<event>
 7    1  0.2856214E-009  0.9027660E+02  0.7561462E-02  0.1302183E+00
          3   -1    0    0  501    0  0.00000000000E+00  0.00000000000E+00  0.17134150652E+02  0.17134150652E+02  0.00000000000E+00 0. -1.
         -3   -1    0    0    0  501 -0.00000000000E+00 -0.00000000000E+00 -0.74999517327E+03  0.74999517327E+03  0.00000000000E+00 0.  1.
         25    2    1    2    0    0  0.77344904938E+01 -0.65499504464E+01 -0.50689014372E+03  0.52219726502E+03  0.12509852759E+03 0.  0.
          5    1    3    3  502    0  0.51590172590E+02 -0.22290937658E+02 -0.12097978741E+03  0.13346165431E+03  0.41800000000E+01 0.  1.
         -5    1    3    3    0  502 -0.43855682096E+02  0.15740987212E+02 -0.38591035630E+03  0.38873561071E+03  0.41800000000E+01 0.  1.
        -11    1    1    2    0    0 -0.39457538097E+02  0.18419326570E+02 -0.19231492912E+03  0.19718316578E+03  0.00000000000E+00 0.  1.
         11    1    1    2    0    0  0.31723047603E+02 -0.11869376123E+02 -0.33655949782E+02  0.47748893123E+02  0.00000000000E+00 0. -1.
</event>
<event>
 7    1  0.2856214E-009  0.9020612E+02  0.7561462E-02  0.1302353E+00
          2   -1    0    0  501    0  0.00000000000E+00  0.00000000000E+00  0.58303068783E+02  0.58303068783E+02  0.00000000000E+00 0. -1.
         -2   -1    0    0    0  501 -0.00000000000E+00 -0.00000000000E+00 -0.20262860567E+03  0.20262860567E+03  0.00000000000E+00 0.  1.
         25    2    1    2    0    0 -0.46566126426E+01  0.11087134433E+02 -0.87105037271E+02  0.15290018861E+03  0.12508625651E+03 0.  0.
          5    1    3    3  502    0 -0.55210070102E+02  0.13084259153E+02 -0.59877389192E+01  0.57207299322E+02  0.41800000000E+01 0.  1.
         -5    1    3    3    0  502  0.50553457460E+02 -0.19971247208E+01 -0.81117298351E+02  0.95692889287E+02  0.41800000000E+01 0.  1.
        -11    1    1    2    0    0  0.30650763365E+02  0.16533023931E+02  0.49794001934E+01  0.35179604907E+02  0.00000000000E+00 0. -1.
         11    1    1    2    0    0 -0.25994150722E+02 -0.27620158364E+02 -0.62199899811E+02  0.72851880939E+02  0.00000000000E+00 0.  1.
</event>
<event>
 7    1  0.2856214E-009  0.1334016E+03  0.7561462E-02  0.1222494E+00
         -2   -1    0    0    0  501 -0.00000000000E+00  0.00000000000E+00  0.15078004659E+03  0.15078004659E+03  0.00000000000E+00 0.  1.
          2   -1    0    0  501    0  0.00000000000E+00 -0.00000000000E+00 -0.17546601482E+03  0.17546601482E+03  0.00000000000E+00 0. -1.
         25    2    1    2    0    0  0.10992206571E+03  0.34842675651E+02 -0.43663971259E+02  0.17564213607E+03  0.12508694976E+03 0.  0.
          5    1    3    3  502    0  0.74983536948E+01 -0.14559338508E+01 -0.64358295435E+02  0.64944650610E+02  0.41800000000E+01 0.  1.
         -5    1    3    3    0  502  0.10242371201E+03  0.36298609501E+02  0.20694324176E+02  0.11069748546E+03  0.41800000000E+01 0.  1.
        -11    1    1    2    0    0 -0.11602172340E+03 -0.20966599413E+01  0.13064185248E+02  0.11677375227E+03  0.00000000000E+00 0. -1.
         11    1    1    2    0    0  0.60996576941E+01 -0.32746015709E+02  0.59138177905E+01  0.33830173066E+02  0.00000000000E+00 0.  1.
</event>
<event>
 7    1  0.2856214E-009  0.1044419E+03  0.7561462E-02  0.1271223E+00
         -2   -1    0    0    0  501 -0.00000000000E+00  0.00000000000E+00  0.38126305538E+02  0.38126305538E+02  0.00000000000E+00 0.  1.
          2   -1    0    0  501    0  0.00000000000E+00 -0.00000000000E+00 -0.63368698075E+03  0.63368698075E+03  0.00000000000E+00 0. -1.
         25    2    1    2    0    0 -0.26984845503E+02  0.59798351659E+02 -0.12880784215E+03  0.19116433565E+03  0.12509323834E+03 0.  0.
          5    1    3    3  502    0 -0.49643184907E+02  0.47255624212E+02 -0.98746778676E+01  0.69372339519E+02  0.41800000000E+01 0. -1.
         -5    1    3    3    0  502  0.22658339404E+02  0.12542727448E+02 -0.11893316428E+03  0.12179199613E+03  0.41800000000E+01 0. -1.
        -11    1    1    2    0    0 -0.31504811124E+02 -0.42666233932E+02 -0.24485791051E+03  0.25053613907E+03  0.00000000000E+00 0. -1.
         11    1    1    2    0    0  0.58489656627E+02 -0.17132117727E+02 -0.22189492255E+03  0.23011281156E+03  0.00000000000E+00 0.  1.
</event>
<event>
 7    1  0.2856214E-009  0.1168690E+03  0.7561462E-02  0.1248353E+00
         -1   -1    0    0    0  501 -0.00000000000E+00  0.00000000000E+00  0.12384038762E+02  0.12384038762E+02  0.00000000000E+00 0.  1.
          1   -1    0    0  501    0  0.00000000000E+00 -0.00000000000E+00 -0.11316826718E+04  0.11316826718E+04  0.00000000000E+00 0. -1.
         25    2    1    2    0    0 -0.92462224760E+01  0.44548097552E+02 -0.70489725840E+03  0.71735439399E+03  0.12508859280E+03 0.  0.
          5    1    3    3  502    0  0.24967372634E+02  0.79202856036E+02 -0.39843328424E+03  0.40701721891E+03  0.41800000000E+01 0. -1.
         -5    1    3    3    0  502 -0.34213595110E+02 -0.34654758484E+02 -0.30646397417E+03  0.31033717508E+03  0.41800000000E+01 0. -1.
        -11    1    1    2    0    0 -0.94668478403E+01  0.26552018134E+02 -0.10905013607E+03  0.11263464411E+03  0.00000000000E+00 0.  1.
         11    1    1    2    0    0  0.18713070316E+02 -0.71100115686E+02 -0.30535123855E+03  0.31407767245E+03  0.00000000000E+00 0. -1.
</event>
<event>
 7    1  0.2856214E-009  0.1394283E+03  0.7561462E-02  0.1214100E+00
         -1   -1    0    0    0  501 -0.00000000000E+00  0.00000000000E+00  0.59469142944E+02  0.59469142944E+02  0.00000000000E+00 0.  1.
          1   -1    0    0  501    0  0.00000000000E+00 -0.00000000000E+00 -0.56400493886E+03  0.56400493886E+03  0.00000000000E+00 0. -1.
         25    2    1    2    0    0  0.12656700160E+03 -0.39902073164E+02 -0.16043906369E+03  0.24289553074E+03  0.12508462879E+03 0.  0.
          5    1    3    3  502    0  0.11503986028E+03 -0.36044270065E+02 -0.48163753461E+02  0.12988679073E+03  0.41800000000E+01 0.  1.
         -5    1    3    3    0  502  0.11527141311E+02 -0.38578030988E+01 -0.11227531022E+03  0.11300874000E+03  0.41800000000E+01 0.  1.
        -11    1    1    2    0    0 -0.66758560493E+02  0.51672328121E+02 -0.10991150516E+03  0.13859030940E+03  0.00000000000E+00 0.  1.
         11    1    1    2    0    0 -0.59808441103E+02 -0.11770254957E+02 -0.23418522707E+03  0.24198824167E+03  0.00000000000E+00 0. -1.
</event>
<event>
 7    1  0.2856214E-009  0.7322078E+02  0.7561462E-02  0.1349471E+00
         -1   -1    0    0    0  501 -0.00000000000E+00  0.00000000000E+00  0.27610730741E+02  0.27610730741E+02  0.00000000000E+00 0.  1.
          1   -1    0    0  501    0  0.00000000000E+00 -0.00000000000E+00 -0.94866831511E+03  0.94866831511E+03  0.00000000000E+00 0. -1.
         25    2    1    2    0    0  0.30010706397E+02  0.88414919906E+01 -0.83941698807E+03  0.84926329076E+03  0.12509373562E+03 0.  0.
          5    1    3    3  502    0  0.54031922973E+02  0.40274558710E+01 -0.15243538382E+03  0.16183228276E+03  0.41800000000E+01 0.  1.
         -5    1    3    3    0  502 -0.24021216576E+02  0.48140361196E+01 -0.68698160424E+03  0.68743100800E+03  0.41800000000E+01 0.  1.
        -11    1    1    2    0    0 -0.20966701682E+02 -0.34315585590E+02  0.83559754677E+00  0.40222633145E+02  0.00000000000E+00 0.  1.
         11    1    1    2    0    0 -0.90440047141E+01  0.25474093600E+02 -0.82476193847E+02  0.86793121948E+02  0.00000000000E+00 0. -1.
</event>
<event>
 7    1  0.2856214E-009  0.2415472E+03  0.7561462E-02  0.1118766E+00
          2   -1    0    0  501    0  0.00000000000E+00  0.00000000000E+00  0.13038754107E+04  0.13038754107E+04  0.00000000000E+00 0. -1.
         -2   -1    0    0    0  501 -0.00000000000E+00 -0.00000000000E+00 -0.53378794859E+02  0.53378794859E+02  0.00000000000E+00 0.  1.
         25    2    1    2    0    0  0.15262961172E+03 -0.17687695827E+03  0.79616472208E+03  0.83911099587E+03  0.12509093476E+03 0.  0.
          5    1    3    3  502    0  0.43181898975E+02 -0.36336027847E+02  0.63348000367E+02  0.84943657028E+02  0.41800000000E+01 0.  1.
         -5    1    3    3    0  502  0.10944771275E+03 -0.14054093043E+03  0.73281672172E+03  0.75416733884E+03  0.41800000000E+01 0.  1.
        -11    1    1    2    0    0 -0.73711053081E+02  0.26195636611E+02  0.12456452896E+03  0.14709130702E+03  0.00000000000E+00 0. -1.
         11    1    1    2    0    0 -0.78918558639E+02  0.15068132166E+03  0.32976736482E+03  0.37105190270E+03  0.00000000000E+00 0.  1.
</event>
<event>
 7    1  0.2856214E-009  0.1073593E+03  0.7561462E-02  0.1265540E+00
         -2   -1    0    0    0  501 -0.00000000000E+00  0.00000000000E+00  0.31779735338E+03  0.31779735338E+03  0.00000000000E+00 0.  1.
          2   -1    0    0  501    0  0.00000000000E+00 -0.00000000000E+00 -0.40913196220E+02  0.40913196220E+02  0.00000000000E+00 0. -1.
         25    2    1    2    0    0  0.35688311695E+02 -0.67142168835E+01  0.17920521761E+03  0.22154349131E+03  0.12509305425E+03 0.  0.
          5    1    3    3  502    0  0.82720884149E+02 -0.53316838802E+01  0.11226541675E+03  0.13961435358E+03  0.41800000000E+01 0. -1.
         -5    1    3    3    0  502 -0.47032572454E+02 -0.13825330034E+01  0.66939800863E+02  0.81929137727E+02  0.41800000000E+01 0. -1.
        -11    1    1    2    0    0 -0.20085374763E+02 -0.34773772244E+02  0.14098634176E+02  0.42560650853E+02  0.00000000000E+00 0. -1.
         11    1    1    2    0    0 -0.15602936932E+02  0.41487989127E+02  0.83580305369E+02  0.94606407438E+02  0.00000000000E+00 0.  1.
</event>
<event>
 7    1  0.2856214E-009  0.5988643E+02  0.7561462E-02  0.1398309E+00
          2   -1    0    0  501    0  0.00000000000E+00  0.00000000000E+00  0.37560779036E+03  0.37560779036E+03  0.00000000000E+00 0. -1.
         -2   -1    0    0    0  501 -0.00000000000E+00 -0.00000000000E+00 -0.32197656052E+02  0.32197656052E+02  0.00000000000E+00 0.  1.
         25    2    1    2    0    0 -0.21739359793E+02  0.31025823264E+01  0.20134446350E+03  0.23805502076E+03  0.12509346163E+03 0.  0.
          5    1    3    3  502    0 -0.48584590593E+01 -0.45726855519E+01  0.21468659267E+03  0.21483090921E+03  0.41800000000E+01 0. -1.
         -5    1    3    3    0  502 -0.16880900734E+02  0.76752678783E+01 -0.13342129169E+02  0.23224111551E+02  0.41800000000E+01 0. -1.
        -11    1    1    2    0    0  0.54296414151E+02  0.14059356292E+02  0.87535331463E+02  0.10396249489E+03  0.00000000000E+00 0. -1.
         11    1    1    2    0    0 -0.32557054358E+02 -0.17161938618E+02  0.54530339341E+02  0.65787930764E+02  0.00000000000E+00 0.  1.
</event>
<event>
 7    1  0.2856214E-009  0.1180622E+03  0.7561462E-02  0.1246328E+00
         -4   -1    0    0    0  501 -0.00000000000E+00  0.00000000000E+00  0.50280375833E+03  0.50280375833E+03  0.00000000000E+00 0. -1.
          4   -1    0    0  501    0  0.00000000000E+00 -0.00000000000E+00 -0.37970210492E+02  0.37970210492E+02  0.00000000000E+00 0.  1.
         25    2    1    2    0    0 -0.41349088815E+02 -0.36437377989E+01  0.39125359609E+03  0.41285611047E+03  0.12509103696E+03 0.  0.
          5    1    3    3  502    0 -0.84340191005E+02  0.12538180411E+02  0.26710430076E+03  0.28041514522E+03  0.41800000000E+01 0.  1.
         -5    1    3    3    0  502  0.42991102189E+02 -0.16181918209E+02  0.12414929534E+03  0.13244096525E+03  0.41800000000E+01 0.  1.
        -11    1    1    2    0    0  0.70172882101E+02 -0.12968577886E+02  0.50911532792E+02  0.87660718488E+02  0.00000000000E+00 0.  1.
         11    1    1    2    0    0 -0.28823793285E+02  0.16612315685E+02  0.22668418950E+02  0.40257139857E+02  0.00000000000E+00 0. -1.
</event>
<event>
 7    1  0.2856214E-009  0.1498440E+03  0.7561462E-02  0.1200665E+00
          2   -1    0    0  501    0  0.00000000000E+00  0.00000000000E+00  0.74167046999E+03  0.74167046999E+03  0.00000000000E+00 0. -1.
         -2   -1    0    0    0  501 -0.00000000000E+00 -0.00000000000E+00 -0.35279491987E+02  0.35279491987E+02  0.00000000000E+00 0.  1.
         25    2    1    2    0    0  0.25209828675E+01  0.11216606220E+03  0.27569769870E+03  0.32286864601E+03  0.12508941060E+03 0.  0.
          5    1    3    3  502    0  0.43089082334E+02  0.72488882432E+01  0.31658633829E+02  0.54119838258E+02  0.41800000000E+01 0.  1.
         -5    1    3    3    0  502 -0.40568099467E+02  0.10491717396E+03  0.24403906487E+03  0.26874880775E+03  0.41800000000E+01 0.  1.
        -11    1    1    2    0    0  0.37591140034E+02 -0.19706612139E+02  0.14766519660E+03  0.15364392165E+03  0.00000000000E+00 0. -1.
         11    1    1    2    0    0 -0.40112122901E+02 -0.92459450061E+02  0.28302808270E+03  0.30043739432E+03  0.00000000000E+00 0.  1.
</event>
<event>
 7    1  0.2856214E-009  0.4085401E+03  0.7561462E-02  0.1040862E+00
         -4   -1    0    0    0  501 -0.00000000000E+00  0.00000000000E+00  0.12772322610E+04  0.12772322610E+04  0.00000000000E+00 0.  1.
          4   -1    0    0  501    0  0.00000000000E+00 -0.00000000000E+00 -0.13573302285E+03  0.13573302285E+03  0.00000000000E+00 0. -1.
         25    2    1    2    0    0 -0.30363716351E+03  0.26349560246E+03  0.56104194462E+03  0.70145663539E+03  0.12509151904E+03 0.  0.
          5    1    3    3  502    0 -0.10567200427E+02  0.26160692899E+02  0.10939310788E+03  0.11305030752E+03  0.41800000000E+01 0.  1.
         -5    1    3    3    0  502 -0.29306996308E+03  0.23733490956E+03  0.45164883674E+03  0.58840632788E+03  0.41800000000E+01 0.  1.
        -11    1    1    2    0    0  0.67469612633E+02 -0.16038912664E+02  0.10247797635E+03  0.12373815493E+03  0.00000000000E+00 0.  1.
         11    1    1    2    0    0  0.23616755088E+03 -0.24745668980E+03  0.47797931717E+03  0.58777049352E+03  0.00000000000E+00 0. -1.
</event>
<event>
 7    1  0.2856214E-009  0.1130835E+03  0.7561462E-02  0.1254964E+00
          2   -1    0    0  501    0  0.00000000000E+00  0.00000000000E+00  0.34367477387E+03  0.34367477387E+03  0.00000000000E+00 0.  1.
         -2   -1    0    0    0  501 -0.00000000000E+00 -0.00000000000E+00 -0.43897296064E+02  0.43897296064E+02  0.00000000000E+00 0. -1.
         25    2    1    2    0    0 -0.55185863117E+02 -0.58534346498E+01  0.15228560486E+03  0.20474085548E+03  0.12509264675E+03 0.  0.
          5    1    3    3  502    0 -0.62377161898E+02 -0.52555088341E+02  0.61252159386E+02  0.10208940722E+03  0.41800000000E+01 0.  1.
         -5    1    3    3    0  502  0.71912987812E+01  0.46701653691E+02  0.91033445476E+02  0.10265144827E+03  0.41800000000E+01 0.  1.
        -11    1    1    2    0    0  0.53345098146E+02 -0.29969741637E+02  0.12831350609E+03  0.14215569196E+03  0.00000000000E+00 0.  1.
         11    1    1    2    0    0  0.18407649711E+01  0.35823176287E+02  0.19178366851E+02  0.40675522492E+02  0.00000000000E+00 0. -1.
</event>
<event>
 7    1  0.2856214E-009  0.9069300E+02  0.7561462E-02  0.1301182E+00
         -2   -1    0    0    0  501 -0.00000000000E+00  0.00000000000E+00  0.28854334362E+03  0.28854334362E+03  0.00000000000E+00 0.  1.
          2   -1    0    0  501    0  0.00000000000E+00 -0.00000000000E+00 -0.89096205572E+02  0.89096205572E+02  0.00000000000E+00 0. -1.
         25    2    1    2    0    0 -0.30005069752E+02 -0.49108350568E+02 -0.14347414505E+02  0.13844060783E+03  0.12509204326E+03 0.  0.
          5    1    3    3  502    0  0.12301101390E+02 -0.95695295542E+01 -0.61541430237E+02  0.63621639612E+02  0.41800000000E+01 0. -1.
         -5    1    3    3    0  502 -0.42306171142E+02 -0.39538821013E+02  0.47194015733E+02  0.74818968215E+02  0.41800000000E+01 0. -1.
        -11    1    1    2    0    0  0.56426666909E+02  0.61512082299E+01  0.10852592722E+03  0.12247319290E+03  0.00000000000E+00 0.  1.
         11    1    1    2    0    0 -0.26421597157E+02  0.42957142338E+02  0.10526862534E+03  0.11672574847E+03  0.00000000000E+00 0. -1.
</event>
<event>
 7    1  0.2856214E-009  0.1436482E+03  0.7561462E-02  0.1208503E+00
          1   -1    0    0  501    0  0.00000000000E+00  0.00000000000E+00  0.10118007239E+04  0.10118007239E+04  0.00000000000E+00 0. -1.
         -1   -1    0    0    0  501 -0.00000000000E+00 -0.00000000000E+00 -0.36903290249E+02  0.36903290249E+02  0.00000000000E+00 0.  1.
         25    2    1    2    0    0 -0.49581225310E+02 -0.10494496871E+03  0.81402598512E+03  0.83172022555E+03  0.12509390389E+03 0.  0.
          5    1    3    3  502    0 -0.78790465798E+02 -0.65235385508E+02  0.69968887637E+03  0.70713901685E+03  0.41800000000E+01 0.  1.
         -5    1    3    3    0  502  0.29209240488E+02 -0.39709583198E+02  0.11433710874E+03  0.12458120871E+03  0.41800000000E+01 0.  1.
        -11    1    1    2    0    0  0.67548166782E+02  0.79956054259E+02  0.15271800232E+03  0.18514457508E+03  0.00000000000E+00 0. -1.
         11    1    1    2    0    0 -0.17966941472E+02  0.24988914447E+02  0.81534461907E+01  0.31839213494E+02  0.00000000000E+00 0.  1.
</event>
<event>
 7    1  0.2856214E-009  0.2416033E+03  0.7561462E-02  0.1118729E+00
          2   -1    0    0  501    0  0.00000000000E+00  0.00000000000E+00  0.97723302309E+03  0.97723302309E+03  0.00000000000E+00 0. -1.
         -2   -1    0    0    0  501 -0.00000000000E+00 -0.00000000000E+00 -0.61429432865E+02  0.61429432865E+02  0.00000000000E+00 0.  1.
         25    2    1    2    0    0  0.20861579585E+03  0.77871359672E+02  0.45423483496E+03  0.52111558164E+03  0.12509062797E+03 0.  0.
          5    1    3    3  502    0  0.99759613379E+02 -0.25499248475E+02  0.21894903461E+03  0.24198831437E+03  0.41800000000E+01 0.  1.
         -5    1    3    3    0  502  0.10885618247E+03  0.10337060815E+03  0.23528580035E+03  0.27912726727E+03  0.41800000000E+01 0.  1.
        -11    1    1    2    0    0 -0.19234732140E+02 -0.28300504445E+02  0.39308857268E+02  0.52116021836E+02  0.00000000000E+00 0. -1.
         11    1    1    2    0    0 -0.18938106371E+03 -0.49570855228E+02  0.42225989800E+03  0.46543085247E+03  0.00000000000E+00 0.  1.
</event>
<event>
 7    1  0.2856214E-009  0.2821380E+03  0.7561462E-02  0.1094527E+00
         -1   -1    0    0    0  501 -0.00000000000E+00  0.00000000000E+00  0.17072917800E+03  0.17072917800E+03  0.00000000000E+00 0.  1.
          1   -1    0    0  501    0  0.00000000000E+00 -0.00000000000E+00 -0.54795713460E+03  0.54795713460E+03  0.00000000000E+00 0. -1.
         25    2    1    2    0    0 -0.16775192031E+03  0.22085192820E+03 -0.27475967627E+03  0.40994820028E+03  0.12509343010E+03 0.  0.
          5    1    3    3  502    0 -0.12307460565E+03  0.11570075881E+03 -0.23388151980E+03  0.28853433392E+03  0.41800000000E+01 0. -1.
         -5    1    3    3    0  502 -0.44677314659E+02  0.10515116939E+03 -0.40878156472E+02  0.12141386637E+03  0.41800000000E+01 0. -1.
        -11    1    1    2    0    0  0.12904459984E+03 -0.13474059897E+03 -0.28350532760E+02  0.18870953995E+03  0.00000000000E+00 0.  1.
         11    1    1    2    0    0  0.38707320472E+02 -0.86111329231E+02 -0.74117747575E+02  0.12002857237E+03  0.00000000000E+00 0. -1.
</event>
<event>
 7    1  0.2856214E-009  0.1249058E+03  0.7561462E-02  0.1235217E+00
          2   -1    0    0  501    0  0.00000000000E+00  0.00000000000E+00  0.14482623155E+04  0.14482623155E+04  0.00000000000E+00 0.  1.
         -2   -1    0    0    0  501 -0.00000000000E+00 -0.00000000000E+00 -0.11600457873E+02  0.11600457873E+02  0.00000000000E+00 0. -1.
         25    2    1    2    0    0 -0.36551761890E+02  0.58497715755E+02  0.92514674243E+03  0.93611012493E+03  0.12509059491E+03 0.  0.
          5    1    3    3  502    0 -0.30586118359E+02 -0.34855841960E+02  0.39768634814E+03  0.40040272758E+03  0.41800000000E+01 0. -1.
         -5    1    3    3    0  502 -0.59656435314E+01  0.93353557715E+02  0.52746039429E+03  0.53570739736E+03  0.41800000000E+01 0. -1.
        -11    1    1    2    0    0 -0.11802014037E+02 -0.60085463397E+02  0.34331167591E+03  0.34872977686E+03  0.00000000000E+00 0.  1.
         11    1    1    2    0    0  0.48353775928E+02  0.15877476424E+01  0.16820343924E+03  0.17502287153E+03  0.00000000000E+00 0. -1.
</event>
<event>
 7    1  0.2856214E-009  0.8932221E+02  0.7561462E-02  0.1304501E+00
          2   -1    0    0  501    0  0.00000000000E+00  0.00000000000E+00  0.12653927083E+04  0.12653927083E+04  0.00000000000E+00 0. -1.
         -2   -1    0    0    0  501 -0.00000000000E+00 -0.00000000000E+00 -0.14099676712E+02  0.14099676712E+02  0.00000000000E+00 0.  1.
         25    2    1    2    0    0  0.40547043097E+01  0.28027610890E+02  0.10071100317E+04  0.10152427459E+04  0.12508089205E+03 0.  0.
          5    1    3    3  502    0  0.16736343469E+02 -0.41246561376E+02  0.63040642376E+03  0.63198980652E+03  0.41800000000E+01 0.  1.
         -5    1    3    3    0  502 -0.12681639159E+02  0.69274172266E+02  0.37670360795E+03  0.38325293939E+03  0.41800000000E+01 0.  1.
        -11    1    1    2    0    0 -0.44543705722E+01 -0.45596267074E+02  0.24228030171E+03  0.24657373255E+03  0.00000000000E+00 0. -1.
         11    1    1    2    0    0  0.39966626249E+00  0.17568656184E+02  0.19026982074E+01  0.17675906588E+02  0.00000000000E+00 0.  1.
</event>
<event>
 7    1  0.2856214E-009  0.9164762E+02  0.7561462E-02  0.1298910E+00
          2   -1    0    0  501    0  0.00000000000E+00  0.00000000000E+00  0.32614632312E+03  0.32614632312E+03  0.00000000000E+00 0.  1.
         -2   -1    0    0    0  501 -0.00000000000E+00 -0.00000000000E+00 -0.40610756468E+02  0.40610756468E+02  0.00000000000E+00 0. -1.
         25    2    1    2    0    0  0.16398207556E+02  0.24804892698E+02  0.11961642337E+03  0.17561229139E+03  0.12508958484E+03 0.  0.
          5    1    3    3  502    0  0.41202857125E+02 -0.26692745218E+02  0.76930769014E+01  0.49868165344E+02  0.41800000000E+01 0. -1.
         -5    1    3    3    0  502 -0.24804649569E+02  0.51497637916E+02  0.11192334647E+03  0.12574412605E+03  0.41800000000E+01 0. -1.
        -11    1    1    2    0    0 -0.15357156427E+02  0.23675328562E+02  0.13663533433E+02  0.31353717194E+02  0.00000000000E+00 0. -1.
         11    1    1    2    0    0 -0.10410511294E+01 -0.48480221260E+02  0.15225560985E+03  0.15979107100E+03  0.00000000000E+00 0.  1.
</event>
<event>
 7    1  0.2856214E-009  0.2479281E+03  0.7561462E-02  0.1114621E+00
         -2   -1    0    0    0  501 -0.00000000000E+00  0.00000000000E+00  0.33995849227E+02  0.33995849227E+02  0.00000000000E+00 0.  1.
          2   -1    0    0  501    0  0.00000000000E+00 -0.00000000000E+00 -0.22711124569E+04  0.22711124569E+04  0.00000000000E+00 0. -1.
         25    2    1    2    0    0 -0.20239390195E+03 -0.12659902571E+03 -0.15171433309E+04  0.15408956975E+04  0.12508021104E+03 0.  0.
          5    1    3    3  502    0 -0.11252100450E+03 -0.91127071397E+02 -0.12161735195E+04  0.12247696198E+04  0.41800000000E+01 0. -1.
         -5    1    3    3    0  502 -0.89872897445E+02 -0.35471954312E+02 -0.30096981146E+03  0.31612607777E+03  0.41800000000E+01 0. -1.
        -11    1    1    2    0    0  0.60783332141E+02 -0.49811617327E+01 -0.13523206310E+03  0.14834802435E+03  0.00000000000E+00 0. -1.
         11    1    1    2    0    0  0.14161056981E+03  0.13158018744E+03 -0.58474121366E+03  0.61586458427E+03  0.00000000000E+00 0.  1.
</event>
<event>
 7    1  0.2856214E-009  0.1370083E+03  0.7561462E-02  0.1217412E+00
          1   -1    0    0  501    0  0.00000000000E+00  0.00000000000E+00  0.31000449829E+03  0.31000449829E+03  0.00000000000E+00 0. -1.
         -1   -1    0    0    0  501 -0.00000000000E+00 -0.00000000000E+00 -0.91216475720E+02  0.91216475720E+02  0.00000000000E+00 0.  1.
         25    2    1    2    0    0  0.53384084232E+01 -0.11140024117E+03  0.41418829182E+02  0.17262873588E+03  0.12508656484E+03 0.  0.
          5    1    3    3  502    0  0.13784077731E+01  0.93280331228E+01  0.50386172932E+02  0.51431031806E+02  0.41800000000E+01 0. -1.
         -5    1    3    3    0  502  0.39600006501E+01 -0.12072827430E+03 -0.89673437494E+01  0.12119770408E+03  0.41800000000E+01 0. -1.
        -11    1    1    2    0    0  0.37238867349E+02  0.84843959367E+02  0.99558912165E+02  0.13600443991E+03  0.00000000000E+00 0.  1.
         11    1    1    2    0    0 -0.42577275773E+02  0.26556281806E+02  0.77810281226E+02  0.92587798224E+02  0.00000000000E+00 0. -1.
</event>
<event>
 7    1  0.2856214E-009  0.1012208E+03  0.7561462E-02  0.1277750E+00
         -3   -1    0    0    0  501 -0.00000000000E+00  0.00000000000E+00  0.15617536015E+03  0.15617536015E+03  0.00000000000E+00 0.  1.
          3   -1    0    0  501    0  0.00000000000E+00 -0.00000000000E+00 -0.93129444763E+02  0.93129444763E+02  0.00000000000E+00 0. -1.
         25    2    1    2    0    0 -0.31551354005E+02  0.28613361097E+02  0.28683561838E+01  0.13216830428E+03  0.12508405501E+03 0.  0.
          5    1    3    3  502    0 -0.56590938310E+02 -0.20638283496E+02 -0.30333935236E+02  0.67572872304E+02  0.41800000000E+01 0.  1.
         -5    1    3    3    0  502  0.25039584305E+02  0.49251644593E+02  0.33202291419E+02  0.64595431981E+02  0.41800000000E+01 0.  1.
        -11    1    1    2    0    0  0.56670722478E+02 -0.19822306237E+02  0.66694884742E+02  0.89736850076E+02  0.00000000000E+00 0.  1.
         11    1    1    2    0    0 -0.25119368473E+02 -0.87910548600E+01 -0.65173255417E+01  0.27399650550E+02  0.00000000000E+00 0. -1.
</event>
<event>
 7    1  0.2856214E-009  0.1328267E+03  0.7561462E-02  0.1223321E+00
          2   -1    0    0  501    0  0.00000000000E+00  0.00000000000E+00  0.82406126071E+02  0.82406126071E+02  0.00000000000E+00 0. -1.
         -2   -1    0    0    0  501 -0.00000000000E+00 -0.00000000000E+00 -0.35051688782E+03  0.35051688782E+03  0.00000000000E+00 0.  1.
         25    2    1    2    0    0 -0.61606055111E+02  0.94072591229E+02 -0.70955972197E+02  0.18255686267E+03  0.12508916687E+03 0.  0.
          5    1    3    3  502    0  0.76173800562E+01  0.13447939480E+02 -0.74450319399E+02  0.76152439316E+02  0.41800000000E+01 0.  1.
         -5    1    3    3    0  502 -0.69223435168E+02  0.80624651748E+02  0.34943472014E+01  0.10640442335E+03  0.41800000000E+01 0.  1.
        -11    1    1    2    0    0  0.82987132823E+02 -0.57600058991E+02 -0.17638056898E+03  0.20326026696E+03  0.00000000000E+00 0.  1.
         11    1    1    2    0    0 -0.21381077712E+02 -0.36472532238E+02 -0.20774220562E+02  0.47105884260E+02  0.00000000000E+00 0. -1.
</event>
<event>
 7    1  0.2856214E-009  0.1299844E+03  0.7561462E-02  0.1227479E+00
          2   -1    0    0  501    0  0.00000000000E+00  0.00000000000E+00  0.24289216206E+03  0.24289216206E+03  0.00000000000E+00 0. -1.
         -2   -1    0    0    0  501 -0.00000000000E+00 -0.00000000000E+00 -0.10974351472E+03  0.10974351472E+03  0.00000000000E+00 0.  1.
         25    2    1    2    0    0 -0.47169304109E+02  0.10294446201E+03  0.11712702777E+03  0.20540280414E+03  0.12509622618E+03 0.  0.
          5    1    3    3  502    0 -0.55385782881E+02  0.11565486468E+03  0.52047494712E+02  0.13845593802E+03  0.41800000000E+01 0. -1.
         -5    1    3    3    0  502  0.82164787718E+01 -0.12710402670E+02  0.65079533056E+02  0.66946866112E+02  0.41800000000E+01 0. -1.
        -11    1    1    2    0    0  0.30961796037E+02 -0.37930330890E+02  0.51797241787E+02  0.71276202705E+02  0.00000000000E+00 0. -1.
         11    1    1    2    0    0  0.16207508072E+02 -0.65014131115E+02 -0.35775622216E+02  0.75956669934E+02  0.00000000000E+00 0.  1.
</event>
<event>
 7    1  0.2856214E-009  0.1675163E+03  0.7561462E-02  0.1180463E+00
         -3   -1    0    0    0  501 -0.00000000000E+00  0.00000000000E+00  0.33205683884E+03  0.33205683884E+03  0.00000000000E+00 0.  1.
          3   -1    0    0  501    0  0.00000000000E+00 -0.00000000000E+00 -0.11218279968E+03  0.11218279968E+03  0.00000000000E+00 0. -1.
         25    2    1    2    0    0  0.13776205151E+03 -0.75933159284E+02  0.86955394936E+02  0.21898126176E+03  0.12508926724E+03 0.  0.
          5    1    3    3  502    0  0.14190652596E+03 -0.64661336153E+02  0.27779094269E+02  0.15845409740E+03  0.41800000000E+01 0.  1.
         -5    1    3    3    0  502 -0.41444744510E+01 -0.11271823131E+02  0.59176300667E+02  0.60527164363E+02  0.41800000000E+01 0.  1.
        -11    1    1    2    0    0 -0.11194649068E+02  0.29411290721E+02  0.69397737282E+02  0.76199672765E+02  0.00000000000E+00 0.  1.
         11    1    1    2    0    0 -0.12656740245E+03  0.46521868563E+02  0.63520906937E+02  0.14905870399E+03  0.00000000000E+00 0. -1.
</event>
<event>
 7    1  0.2856214E-009  0.1076561E+03  0.7561462E-02  0.1264973E+00
          1   -1    0    0  501    0  0.00000000000E+00  0.00000000000E+00  0.29291973297E+03  0.29291973297E+03  0.00000000000E+00 0. -1.
         -1   -1    0    0    0  501 -0.00000000000E+00 -0.00000000000E+00 -0.64290413789E+02  0.64290413789E+02  0.00000000000E+00 0.  1.
         25    2    1    2    0    0 -0.29228810227E+02 -0.31084313239E+02  0.20712023352E+03  0.24569912879E+03  0.12509481555E+03 0.  0.
          5    1    3    3  502    0 -0.55777889134E+02 -0.48789831633E+02  0.19916575057E+03  0.21254667531E+03  0.41800000000E+01 0.  1.
         -5    1    3    3    0  502  0.26549078907E+02  0.17705518394E+02  0.79544829546E+01  0.33152453476E+02  0.41800000000E+01 0.  1.
        -11    1    1    2    0    0 -0.33615853180E+02 -0.84469022236E+01  0.18591084535E+01  0.34710690376E+02  0.00000000000E+00 0.  1.
         11    1    1    2    0    0  0.62844663407E+02  0.39531215462E+02  0.19649977207E+02  0.76800327596E+02  0.00000000000E+00 0. -1.
</event>
<event>
 7    1  0.2856214E-009  0.1021061E+03  0.7561462E-02  0.1275928E+00
          2   -1    0    0  501    0  0.00000000000E+00  0.00000000000E+00  0.13633897569E+04  0.13633897569E+04  0.00000000000E+00 0. -1.
         -2   -1    0    0    0  501 -0.00000000000E+00 -0.00000000000E+00 -0.15447793881E+02  0.15447793881E+02  0.00000000000E+00 0.  1.
         25    2    1    2    0    0 -0.62404496233E+02  0.58509190142E+02  0.91361491188E+03  0.92609639833E+03  0.12507871646E+03 0.  0.
          5    1    3    3  502    0 -0.51229645726E+02  0.64903992516E+02  0.90745514789E+03  0.91122407929E+03  0.41800000000E+01 0. -1.
         -5    1    3    3    0  502 -0.11174850507E+02 -0.63948023731E+01  0.61597639894E+01  0.14872319041E+02  0.41800000000E+01 0. -1.
        -11    1    1    2    0    0  0.75746708039E+02 -0.56257184752E+02  0.42710655881E+03  0.43740421488E+03  0.00000000000E+00 0. -1.
         11    1    1    2    0    0 -0.13342211806E+02 -0.22520053904E+01  0.72204923045E+01  0.15336937546E+02  0.00000000000E+00 0.  1.
</event>
<event>
 7    1  0.2856214E-009  0.1051280E+03  0.7561462E-02  0.1269868E+00
          2   -1    0    0  501    0  0.00000000000E+00  0.00000000000E+00  0.48973915910E+03  0.48973915910E+03  0.00000000000E+00 0. -1.
         -2   -1    0    0    0  501 -0.00000000000E+00 -0.00000000000E+00 -0.45351708260E+02  0.45351708260E+02  0.00000000000E+00 0.  1.
         25    2    1    2    0    0 -0.85003286986E+02  0.54255953647E+02  0.26882522567E+03  0.31318502269E+03  0.12509432111E+03 0.  0.
          5    1    3    3  502    0 -0.43032610405E+02  0.34003840905E+02  0.17765538688E+02  0.57802712043E+02  0.41800000000E+01 0.  1.
         -5    1    3    3    0  502 -0.41970676580E+02  0.20252112742E+02  0.25105968698E+03  0.25538231064E+03  0.41800000000E+01 0.  1.
        -11    1    1    2    0    0  0.23704717480E+02  0.38328797299E+01 -0.31755944811E+01  0.24221663818E+02  0.00000000000E+00 0.  1.
         11    1    1    2    0    0  0.61298569506E+02 -0.58088833377E+02  0.17873781966E+03  0.19768418086E+03  0.00000000000E+00 0. -1.
</event>
<event>
 7    1  0.2856214E-009  0.1246461E+03  0.7561462E-02  0.1235623E+00
          1   -1    0    0  501    0  0.00000000000E+00  0.00000000000E+00  0.35496133555E+03  0.35496133555E+03  0.00000000000E+00 0. -1.
         -1   -1    0    0    0  501 -0.00000000000E+00 -0.00000000000E+00 -0.44960730531E+02  0.44960730531E+02  0.00000000000E+00 0.  1.
         25    2    1    2    0    0 -0.31632718157E+02  0.55031071106E+02  0.15882778395E+03  0.21190203293E+03  0.12508860443E+03 0.  0.
          5    1    3    3  502    0 -0.44374909739E+02  0.90930381282E+02  0.10554381414E+03  0.14626836964E+03  0.41800000000E+01 0.  1.
         -5    1    3    3    0  502  0.12742191582E+02 -0.35899310176E+02  0.53283969807E+02  0.65633663282E+02  0.41800000000E+01 0.  1.
        -11    1    1    2    0    0 -0.30607253308E+02 -0.29245475472E+02  0.41331094099E+02  0.59163849858E+02  0.00000000000E+00 0.  1.
         11    1    1    2    0    0  0.62239971465E+02 -0.25785595634E+02  0.10984172697E+03  0.12885618330E+03  0.00000000000E+00 0. -1.
</event>
<event>
 7    1  0.2856214E-009  0.1026108E+03  0.7561462E-02  0.1274900E+00
          2   -1    0    0  501    0  0.00000000000E+00  0.00000000000E+00  0.29311306211E+02  0.29311306211E+02  0.00000000000E+00 0. -1.
         -2   -1    0    0    0  501 -0.00000000000E+00 -0.00000000000E+00 -0.51694257010E+03  0.51694257010E+03  0.00000000000E+00 0.  1.
         25    2    1    2    0    0  0.13638443543E+02  0.35574014998E+02 -0.17463031922E+03  0.21816153982E+03  0.12508873402E+03 0.  0.
          5    1    3    3  502    0  0.43811854218E+02  0.65726183012E+02 -0.72085073654E+02  0.10701934380E+03  0.41800000000E+01 0.  1.
         -5    1    3    3    0  502 -0.30173410676E+02 -0.30152168014E+02 -0.10254524556E+03  0.11114219602E+03  0.41800000000E+01 0.  1.
        -11    1    1    2    0    0 -0.27867652940E+02 -0.53530193071E+02 -0.28769258410E+03  0.29395426617E+03  0.00000000000E+00 0.  1.
         11    1    1    2    0    0  0.14229209397E+02  0.17956178073E+02 -0.25308360573E+02  0.34138070331E+02  0.00000000000E+00 0. -1.
</event>
<event>
 7    1  0.2856214E-009  0.1279606E+03  0.7561462E-02  0.1230514E+00
          2   -1    0    0  501    0  0.00000000000E+00  0.00000000000E+00  0.78974112347E+02  0.78974112347E+02  0.00000000000E+00 0. -1.
         -2   -1    0    0    0  501 -0.00000000000E+00 -0.00000000000E+00 -0.21605924776E+03  0.21605924776E+03  0.00000000000E+00 0.  1.
         25    2    1    2    0    0  0.59215757767E+02  0.39637253683E+02 -0.47435212270E+02  0.15157642771E+03  0.12509075197E+03 0.  0.
          5    1    3    3  502    0  0.15676058242E+02  0.81682663276E+02 -0.28464166313E+02  0.88008394178E+02  0.41800000000E+01 0.  1.
         -5    1    3    3    0  502  0.43539699525E+02 -0.42045409593E+02 -0.18971045957E+02  0.63568033533E+02  0.41800000000E+01 0.  1.
        -11    1    1    2    0    0 -0.24340809439E+02 -0.64632914040E+02 -0.53885177315E+02  0.87598521196E+02  0.00000000000E+00 0.  1.
         11    1    1    2    0    0 -0.34874948328E+02  0.24995660356E+02 -0.35764745824E+02  0.55858411197E+02  0.00000000000E+00 0. -1.
</event>
<event>
 7    1  0.2856214E-009  0.1887199E+03  0.7561462E-02  0.1159621E+00
          2   -1    0    0  501    0  0.00000000000E+00  0.00000000000E+00  0.78852340015E+03  0.78852340015E+03  0.00000000000E+00 0. -1.
         -2   -1    0    0    0  501 -0.00000000000E+00 -0.00000000000E+00 -0.94316565283E+02  0.94316565283E+02  0.00000000000E+00 0.  1.
         25    2    1    2    0    0  0.54510376472E+02  0.15908268085E+03  0.65104737518E+03  0.68395203554E+03  0.12509604994E+03 0.  0.
          5    1    3    3  502    0  0.59116022760E+02  0.16099913948E+02  0.27046461694E+03  0.27734904505E+03  0.41800000000E+01 0.  1.
         -5    1    3    3    0  502 -0.46056462877E+01  0.14298276690E+03  0.38058275824E+03  0.40660299049E+03  0.41800000000E+01 0.  1.
        -11    1    1    2    0    0 -0.44309104637E+02 -0.67389523684E+02  0.65574114738E+02  0.10394522202E+03  0.00000000000E+00 0. -1.
         11    1    1    2    0    0 -0.10201271836E+02 -0.91693157163E+02 -0.22414655048E+02  0.94942707874E+02  0.00000000000E+00 0.  1.
</event>
<event>
 7    1  0.2856214E-009  0.8409357E+02  0.7561462E-02  0.1317820E+00
         -2   -1    0    0    0  501 -0.00000000000E+00  0.00000000000E+00  0.38394817585E+02  0.38394817585E+02  0.00000000000E+00 0.  1.
          2   -1    0    0  501    0  0.00000000000E+00 -0.00000000000E+00 -0.42446360092E+03  0.42446360092E+03  0.00000000000E+00 0. -1.
         25    2    1    2    0    0 -0.11758411077E+02 -0.55253622089E+02 -0.27414671455E+03  0.30658619159E+03  0.12508976294E+03 0.  0.
          5    1    3    3  502    0  0.24883858307E+01 -0.26984589090E+02  0.30207899705E+01  0.27585461469E+02  0.41800000000E+01 0.  1.
         -5    1    3    3    0  502 -0.14246796908E+02 -0.28269032999E+02 -0.27716750452E+03  0.27900073012E+03  0.41800000000E+01 0.  1.
        -11    1    1    2    0    0 -0.35350509619E+02  0.50283713607E+02 -0.68153712095E+02  0.91777115104E+02  0.00000000000E+00 0.  1.
         11    1    1    2    0    0  0.47108920697E+02  0.49699084822E+01 -0.43768356690E+02  0.64495111806E+02  0.00000000000E+00 0. -1.
</event>
<event>
 7    1  0.2856214E-009  0.9168151E+02  0.7561462E-02  0.1298830E+00
          1   -1    0    0  501    0  0.00000000000E+00  0.00000000000E+00  0.65077210356E+03  0.65077210356E+03  0.00000000000E+00 0. -1.
         -1   -1    0    0    0  501 -0.00000000000E+00 -0.00000000000E+00 -0.20675309878E+02  0.20675309878E+02  0.00000000000E+00 0.  1.
         25    2    1    2    0    0 -0.18246792051E+02 -0.23411895010E+02  0.38480424504E+03  0.40571173361E+03  0.12508653622E+03 0.  0.
          5    1    3    3  502    0  0.31858780087E+02 -0.23570718424E+02  0.32563662234E+03  0.32806591235E+03  0.41800000000E+01 0.  1.
         -5    1    3    3    0  502 -0.50105572137E+02  0.15882341380E+00  0.59167622699E+02  0.77645821265E+02  0.41800000000E+01 0.  1.
        -11    1    1    2    0    0  0.50523225650E+02 -0.42814606757E+01  0.18587256596E+03  0.19266431432E+03  0.00000000000E+00 0. -1.
         11    1    1    2    0    0 -0.32276433599E+02  0.27693355686E+02  0.59419982694E+02  0.73071365516E+02  0.00000000000E+00 0.  1.
</event>
<event>
 7    1  0.2856214E-009  0.1045774E+03  0.7561462E-02  0.1270955E+00
         -2   -1    0    0    0  501 -0.00000000000E+00  0.00000000000E+00  0.34317839541E+02  0.34317839541E+02  0.00000000000E+00 0.  1.
          2   -1    0    0  501    0  0.00000000000E+00 -0.00000000000E+00 -0.57593389983E+03  0.57593389983E+03  0.00000000000E+00 0. -1.
         25    2    1    2    0    0 -0.78614235884E+02 -0.32693954692E+02 -0.23737704381E+03  0.28150810488E+03  0.12509939820E+03 0.  0.
          5    1    3    3  502    0 -0.74126410168E+02 -0.37947198125E+02 -0.25165304122E+03  0.26510646934E+03  0.41800000000E+01 0. -1.
         -5    1    3    3    0  502 -0.44878257151E+01  0.52532434332E+01  0.14275997415E+02  0.16401635540E+02  0.41800000000E+01 0. -1.
        -11    1    1    2    0    0  0.92839991417E+02  0.40707199342E+02 -0.28954479387E+03  0.30677765196E+03  0.00000000000E+00 0. -1.
         11    1    1    2    0    0 -0.14225755534E+02 -0.80132446501E+01 -0.14694222610E+02  0.21965982528E+02  0.00000000000E+00 0.  1.
</event>
<event>
 7    1  0.2856214E-009  0.9984303E+02  0.7561462E-02  0.1280626E+00
          2   -1    0    0  501    0  0.00000000000E+00  0.00000000000E+00  0.69326015479E+02  0.69326015479E+02  0.00000000000E+00 0. -1.
         -2   -1    0    0    0  501 -0.00000000000E+00 -0.00000000000E+00 -0.21876711127E+03  0.21876711127E+03  0.00000000000E+00 0.  1.
         25    2    1    2    0    0 -0.48906317103E+02 -0.11386272542E+02 -0.46254695929E+02  0.14251383025E+03  0.12509684194E+03 0.  0.
          5    1    3    3  502    0  0.79923971397E+01  0.34254777852E+02 -0.58543425494E+02  0.68425677098E+02  0.41800000000E+01 0.  1.
         -5    1    3    3    0  502 -0.56898714243E+02 -0.45641050394E+02  0.12288729564E+02  0.74088153154E+02  0.41800000000E+01 0.  1.
        -11    1    1    2    0    0  0.35349899993E+02  0.43671736785E+02 -0.93777902947E+02  0.10932122897E+03  0.00000000000E+00 0.  1.
         11    1    1    2    0    0  0.13556417110E+02 -0.32285464244E+02 -0.94084969156E+01  0.36258067523E+02  0.00000000000E+00 0. -1.
</event>
<event>
 7    1  0.2856214E-009  0.1539642E+03  0.7561462E-02  0.1195685E+00
         -2   -1    0    0    0  501 -0.00000000000E+00  0.00000000000E+00  0.86622546787E+03  0.86622546787E+03  0.00000000000E+00 0.  1.
          2   -1    0    0  501    0  0.00000000000E+00 -0.00000000000E+00 -0.36192937246E+02  0.36192937246E+02  0.00000000000E+00 0. -1.
         25    2    1    2    0    0 -0.13852274106E+03 -0.22238455145E+01  0.43619757766E+03  0.47445775829E+03  0.12509333460E+03 0.  0.
          5    1    3    3  502    0 -0.74550101151E+02 -0.35200811851E+02  0.36086700790E+03  0.37018817448E+03  0.41800000000E+01 0.  1.
         -5    1    3    3    0  502 -0.63972639914E+02  0.32976966337E+02  0.75330569763E+02  0.10426958381E+03  0.41800000000E+01 0.  1.
        -11    1    1    2    0    0  0.99196973377E+02  0.31701080757E+02  0.17471756080E+03  0.20339917429E+03  0.00000000000E+00 0.  1.
         11    1    1    2    0    0  0.39325767688E+02 -0.29477235243E+02  0.21911739217E+03  0.22456147255E+03  0.00000000000E+00 0. -1.
</event>
<event>
 7    1  0.2856214E-009  0.3674401E+03  0.7561462E-02  0.1055676E+00
          3   -1    0    0  501    0  0.00000000000E+00  0.00000000000E+00  0.29020988284E+03  0.29020988284E+03  0.00000000000E+00 0. -1.
         -3   -1    0    0    0  501 -0.00000000000E+00 -0.00000000000E+00 -0.78070287846E+03  0.78070287846E+03  0.00000000000E+00 0.  1.
         25    2    1    2    0    0  0.59506642039E+02 -0.35891585104E+03 -0.57011467717E+03  0.68777748073E+03  0.12508193037E+03 0.  0.
          5    1    3    3  502    0  0.44495888851E+02 -0.34906828338E+03 -0.47650755664E+03  0.59237274965E+03  0.41800000000E+01 0.  1.
         -5    1    3    3    0  502  0.15010753189E+02 -0.98475676575E+01 -0.93607120529E+02  0.95404731087E+02  0.41800000000E+01 0.  1.
        -11    1    1    2    0    0 -0.20309702676E+02  0.67489520296E+02  0.52406524668E+02  0.87828031973E+02  0.00000000000E+00 0. -1.
         11    1    1    2    0    0 -0.39196939363E+02  0.29142633075E+03  0.27215156891E+02  0.29530724859E+03  0.00000000000E+00 0.  1.
</event>
<event>
 7    1  0.2856214E-009  0.2369792E+03  0.7561462E-02  0.1121822E+00
         -2   -1    0    0    0  501 -0.00000000000E+00  0.00000000000E+00  0.86418208658E+02  0.86418208658E+02  0.00000000000E+00 0.  1.
          2   -1    0    0  501    0  0.00000000000E+00 -0.00000000000E+00 -0.72533338242E+03  0.72533338242E+03  0.00000000000E+00 0. -1.
         25    2    1    2    0    0  0.12196559534E+03  0.18288730495E+03 -0.30827033633E+03  0.39875124857E+03  0.12509430528E+03 0.  0.
          5    1    3    3  502    0  0.19764985772E+02  0.90725976350E+02 -0.20983912413E+03  0.22950335044E+03  0.41800000000E+01 0.  1.
         -5    1    3    3    0  502  0.10220060957E+03  0.92161328602E+02 -0.98431212200E+02  0.16924789813E+03  0.41800000000E+01 0.  1.
        -11    1    1    2    0    0  0.22916100787E+01 -0.85302515219E+02 -0.81617512668E+02  0.11808128113E+03  0.00000000000E+00 0.  1.
         11    1    1    2    0    0 -0.12425720542E+03 -0.97584789733E+02 -0.24902732476E+03  0.29491906138E+03  0.00000000000E+00 0. -1.
</event>
<event>
 7    1  0.2856214E-009  0.2284750E+03  0.7561462E-02  0.1127718E+00
          2   -1    0    0  501    0  0.00000000000E+00  0.00000000000E+00  0.54306420116E+03  0.54306420116E+03  0.00000000000E+00 0. -1.
         -2   -1    0    0    0  501 -0.00000000000E+00 -0.00000000000E+00 -0.19328375965E+03  0.19328375965E+03  0.00000000000E+00 0.  1.
         25    2    1    2    0    0  0.26033362299E+02 -0.21495856725E+03  0.42198830502E+03  0.49051904634E+03  0.12509949504E+03 0.  0.
          5    1    3    3  502    0  0.48060772630E+02 -0.10613140934E+03  0.11381456666E+03  0.16292618543E+03  0.41800000000E+01 0.  1.
         -5    1    3    3    0  502 -0.22027410332E+02 -0.10882715791E+03  0.30817373835E+03  0.32759286090E+03  0.41800000000E+01 0.  1.
        -11    1    1    2    0    0  0.26830094552E+02  0.72768806936E+02  0.60713125885E+00  0.77559795286E+02  0.00000000000E+00 0.  1.
         11    1    1    2    0    0 -0.52863456851E+02  0.14218976032E+03 -0.72814994764E+02  0.16826911918E+03  0.00000000000E+00 0. -1.
</event>
<event>
 7    1  0.2856214E-009  0.1266323E+03  0.7561462E-02  0.1232540E+00
         -3   -1    0    0    0  501 -0.00000000000E+00  0.00000000000E+00  0.63761600495E+02  0.63761600495E+02  0.00000000000E+00 0.  1.
          3   -1    0    0  501    0  0.00000000000E+00 -0.00000000000E+00 -0.38195172610E+03  0.38195172610E+03  0.00000000000E+00 0. -1.
         25    2    1    2    0    0  0.80767028161E+02  0.79654056464E+02 -0.17515799844E+03  0.24330464650E+03  0.12509494412E+03 0.  0.
          5    1    3    3  502    0  0.94611047384E+02  0.54099022624E+02 -0.60038081093E+02  0.12449898842E+03  0.41800000000E+01 0.  1.
         -5    1    3    3    0  502 -0.13844019223E+02  0.25555033840E+02 -0.11511991735E+03  0.11880565808E+03  0.41800000000E+01 0.  1.
        -11    1    1    2    0    0 -0.70243150310E+02 -0.59322526031E+02 -0.15214515211E+03  0.17776785303E+03  0.00000000000E+00 0. -1.
         11    1    1    2    0    0 -0.10523877851E+02 -0.20331530433E+02  0.91130249442E+01  0.24640827064E+02  0.00000000000E+00 0.  1.
</event>
<event>
 7    1  0.2856214E-009  0.1003782E+03  0.7561462E-02  0.1279503E+00
         -2   -1    0    0    0  501 -0.00000000000E+00  0.00000000000E+00  0.12447645150E+02  0.12447645150E+02  0.00000000000E+00 0.  1.
          2   -1    0    0  501    0  0.00000000000E+00 -0.00000000000E+00 -0.11227967624E+04  0.11227967624E+04  0.00000000000E+00 0. -1.
         25    2    1    2    0    0 -0.11414895032E+02  0.90983669640E+01 -0.83848417543E+03  0.84788930425E+03  0.12508988647E+03 0.  0.
          5    1    3    3  502    0  0.16369859181E+02  0.60037155915E+02 -0.55530120794E+03  0.55879274899E+03  0.41800000000E+01 0. -1.
         -5    1    3    3    0  502 -0.27784754214E+02 -0.50938788951E+02 -0.28318296749E+03  0.28909655526E+03  0.41800000000E+01 0. -1.
        -11    1    1    2    0    0  0.39342060601E+02  0.16185118040E+02 -0.69290880709E+02  0.81307945047E+02  0.00000000000E+00 0.  1.
         11    1    1    2    0    0 -0.27927165569E+02 -0.25283485004E+02 -0.20257406112E+03  0.20604715826E+03  0.00000000000E+00 0. -1.
</event>
<event>
 7    1  0.2856214E-009  0.8462310E+02  0.7561462E-02  0.1316421E+00
          1   -1    0    0  501    0  0.00000000000E+00  0.00000000000E+00  0.59933940850E+02  0.59933940850E+02  0.00000000000E+00 0. -1.
         -1   -1    0    0    0  501 -0.00000000000E+00 -0.00000000000E+00 -0.23849901778E+03  0.23849901778E+03  0.00000000000E+00 0.  1.
         25    2    1    2    0    0 -0.15154554935E+02 -0.59202536321E+01 -0.41681170005E+02  0.13285561988E+03  0.12509430787E+03 0.  0.
          5    1    3    3  502    0 -0.41505020775E+01 -0.59868536080E+02  0.52527360445E+01  0.60386520978E+02  0.41800000000E+01 0. -1.
         -5    1    3    3    0  502 -0.11004052857E+02  0.53948282448E+02 -0.46933906049E+02  0.72469098900E+02  0.41800000000E+01 0. -1.
        -11    1    1    2    0    0  0.34306446074E+02  0.52634552589E+01 -0.14164192411E+03  0.14583233822E+03  0.00000000000E+00 0.  1.
         11    1    1    2    0    0 -0.19151891139E+02  0.65679837316E+00  0.47580171930E+01  0.19745000530E+02  0.00000000000E+00 0. -1.
</event>
<event>
 7    1  0.2856214E-009  0.1361899E+03  0.7561462E-02  0.1218550E+00
         -1   -1    0    0    0  501 -0.00000000000E+00  0.00000000000E+00  0.27060967384E+02  0.27060967384E+02  0.00000000000E+00 0.  1.
          1   -1    0    0  501    0  0.00000000000E+00 -0.00000000000E+00 -0.11578723063E+04  0.11578723063E+04  0.00000000000E+00 0. -1.
         25    2    1    2    0    0 -0.12282494503E+03 -0.39906855700E+02 -0.78822871159E+03  0.80847536641E+03  0.12509753017E+03 0.  0.
          5    1    3    3  502    0 -0.42402887469E+02 -0.40115379043E+02 -0.61114354790E+03  0.61393904994E+03  0.41800000000E+01 0. -1.
         -5    1    3    3    0  502 -0.80422057563E+02  0.20852334326E+00 -0.17708516369E+03  0.19453631647E+03  0.41800000000E+01 0. -1.
        -11    1    1    2    0    0  0.83161495090E+02  0.10224541490E+02 -0.29885953839E+03  0.31038266575E+03  0.00000000000E+00 0.  1.
         11    1    1    2    0    0  0.39663449943E+02  0.29682314210E+02 -0.43723088975E+02  0.66075241564E+02  0.00000000000E+00 0. -1.
</event>
<event>
 7    1  0.2856214E-009  0.1371795E+03  0.7561462E-02  0.1217175E+00
          2   -1    0    0  501    0  0.00000000000E+00  0.00000000000E+00  0.44535952156E+03  0.44535952156E+03  0.00000000000E+00 0. -1.
         -2   -1    0    0    0  501 -0.00000000000E+00 -0.00000000000E+00 -0.47372030507E+02  0.47372030507E+02  0.00000000000E+00 0.  1.
         25    2    1    2    0    0  0.30631446897E+02 -0.83157632330E+02  0.15071844263E+03  0.21498568680E+03  0.12509723908E+03 0.  0.
          5    1    3    3  502    0 -0.33493502857E+02 -0.76218646421E+02  0.11208894406E+03  0.13968715251E+03  0.41800000000E+01 0.  1.
         -5    1    3    3    0  502  0.64124949755E+02 -0.69389859095E+01  0.38629498574E+02  0.75298534292E+02  0.41800000000E+01 0.  1.
        -11    1    1    2    0    0 -0.48275009755E+02  0.77144817238E+01  0.10179928914E+03  0.11292955797E+03  0.00000000000E+00 0. -1.
         11    1    1    2    0    0  0.17643562857E+02  0.75443150607E+02  0.14546975928E+03  0.16481630729E+03  0.00000000000E+00 0.  1.
</event>
<event>
 7    1  0.2856214E-009  0.8639724E+02  0.7561462E-02  0.1311819E+00
          3   -1    0    0  501    0  0.00000000000E+00  0.00000000000E+00  0.64897809028E+02  0.64897809028E+02  0.00000000000E+00 0. -1.
         -3   -1    0    0    0  501 -0.00000000000E+00 -0.00000000000E+00 -0.23735907451E+03  0.23735907451E+03  0.00000000000E+00 0.  1.
         25    2    1    2    0    0  0.33269186922E+02 -0.46674761865E+02 -0.12129733254E+03  0.18343210955E+03  0.12509565835E+03 0.  0.
          5    1    3    3  502    0  0.46472231363E+02 -0.80543458984E+01  0.77855778110E+01  0.47985710348E+02  0.41800000000E+01 0.  1.
         -5    1    3    3    0  502 -0.13203044442E+02 -0.38620415966E+02 -0.12908291035E+03  0.13544639920E+03  0.41800000000E+01 0.  1.
        -11    1    1    2    0    0  0.18315804220E+02  0.16511962808E+02 -0.53619271586E+02  0.59018131836E+02  0.00000000000E+00 0.  1.
         11    1    1    2    0    0 -0.51584991141E+02  0.30162799057E+02  0.24553386415E+01  0.59806642155E+02  0.00000000000E+00 0. -1.
</event>
<event>
 7    1  0.3270603E-009  0.1027194E+03  0.7561462E-02  0.1274679E+00
          1   -1    0    0  501    0  0.00000000000E+00  0.00000000000E+00  0.55097212455E+03  0.55097212455E+03  0.00000000000E+00 0.  1.
         -1   -1    0    0    0  501 -0.00000000000E+00 -0.00000000000E+00 -0.55893891459E+02  0.55893891459E+02  0.00000000000E+00 0. -1.
         25    2    1    2    0    0  0.21445550387E+02 -0.79939161830E+02  0.45165406310E+03  0.47590914748E+03  0.12509173719E+03 0.  0.
          5    1    3    3  502    0  0.12380736497E+02 -0.63168610449E+02  0.45181038990E+03  0.45639199906E+03  0.41800000000E+01 0.  1.
         -5    1    3    3    0  502  0.90648138902E+01 -0.16770551381E+02 -0.15632679748E+00  0.19517148423E+02  0.41800000000E+01 0.  1.
        -11    1    1    2    0    0 -0.52713278961E+02  0.25316666241E+02  0.88393419185E+01  0.59141840807E+02  0.00000000000E+00 0.  1.
         11    1    1    2    0    0  0.31267728574E+02  0.54622495588E+02  0.34584828076E+02  0.71815027728E+02  0.00000000000E+00 0. -1.
</event>
<event>
 7    1  0.2856214E-009  0.1164919E+03  0.7561462E-02  0.1248999E+00
         -2   -1    0    0    0  501 -0.00000000000E+00  0.00000000000E+00  0.72667342234E+02  0.72667342234E+02  0.00000000000E+00 0.  1.
          2   -1    0    0  501    0  0.00000000000E+00 -0.00000000000E+00 -0.24252262826E+03  0.24252262826E+03  0.00000000000E+00 0. -1.
         25    2    1    2    0    0 -0.36436575581E+01 -0.55653118102E+02 -0.31772706808E+02  0.14060294914E+03  0.12509651719E+03 0.  0.
          5    1    3    3  502    0 -0.51777001518E+01 -0.93755672884E+02 -0.38652927723E+02  0.10162901160E+03  0.41800000000E+01 0. -1.
         -5    1    3    3    0  502  0.15340425937E+01  0.38102554783E+02  0.68802209143E+01  0.38973937541E+02  0.41800000000E+01 0. -1.
        -11    1    1    2    0    0  0.38505329675E+02  0.53213257992E+02 -0.11582800431E+03  0.13315569016E+03  0.00000000000E+00 0.  1.
         11    1    1    2    0    0 -0.34861672117E+02  0.24398601095E+01 -0.22254574907E+02  0.41431331193E+02  0.00000000000E+00 0. -1.
</event>
<event>
 7    1  0.2856214E-009  0.2571405E+03  0.7561462E-02  0.1108874E+00
         -4   -1    0    0    0  501 -0.00000000000E+00  0.00000000000E+00  0.11176646911E+04  0.11176646911E+04  0.00000000000E+00 0.  1.
          4   -1    0    0  501    0  0.00000000000E+00 -0.00000000000E+00 -0.70703126152E+02  0.70703126152E+02  0.00000000000E+00 0. -1.
         25    2    1    2    0    0  0.19291531572E+02 -0.24358220036E+03  0.71788686246E+03  0.76857890208E+03  0.12509008719E+03 0.  0.
          5    1    3    3  502    0 -0.25220379397E+02 -0.89906839244E+01  0.15148024573E+03  0.15388514282E+03  0.41800000000E+01 0. -1.
         -5    1    3    3    0  502  0.44511910969E+02 -0.23459151644E+03  0.56640661673E+03  0.61469375926E+03  0.41800000000E+01 0. -1.
        -11    1    1    2    0    0  0.11540057182E+02  0.23982195214E+02  0.89338835173E+02  0.93218807529E+02  0.00000000000E+00 0.  1.
         11    1    1    2    0    0 -0.30831588754E+02  0.21960000515E+03  0.23973586732E+03  0.32657010764E+03  0.00000000000E+00 0. -1.
</event>
<event>
 7    1  0.3279287E-009  0.1134436E+03  0.7561462E-02  0.1254322E+00
         -1   -1    0    0    0  501 -0.00000000000E+00  0.00000000000E+00  0.25073253098E+02  0.25073253098E+02  0.00000000000E+00 0.  1.
          1   -1    0    0  501    0  0.00000000000E+00 -0.00000000000E+00 -0.59896276046E+03  0.59896276046E+03  0.00000000000E+00 0. -1.
         25    2    1    2    0    0  0.21208962232E+02  0.49875726999E+02 -0.36850903721E+03  0.39291622669E+03  0.12508733938E+03 0.  0.
          5    1    3    3  502    0  0.69045287721E+02  0.40240084868E+02 -0.28582057719E+03  0.29681204648E+03  0.41800000000E+01 0. -1.
         -5    1    3    3    0  502 -0.47836325489E+02  0.96356421304E+01 -0.82688460015E+02  0.96104180218E+02  0.41800000000E+01 0. -1.
        -11    1    1    2    0    0 -0.38623442813E+02  0.62458383362E+01 -0.41558003518E+02  0.57077565537E+02  0.00000000000E+00 0.  1.
         11    1    1    2    0    0  0.17414480581E+02 -0.56121565335E+02 -0.16382246663E+03  0.17404222132E+03  0.00000000000E+00 0. -1.
</event>
<event>
 7    1  0.2856214E-009  0.1242233E+03  0.7561462E-02  0.1236288E+00
         -1   -1    0    0    0  501 -0.00000000000E+00  0.00000000000E+00  0.67431257432E+03  0.67431257432E+03  0.00000000000E+00 0.  1.
          1   -1    0    0  501    0  0.00000000000E+00 -0.00000000000E+00 -0.55472048608E+02  0.55472048608E+02  0.00000000000E+00 0. -1.
         25    2    1    2    0    0 -0.41434282887E+02 -0.60480902104E+02  0.59036231935E+03  0.60790549960E+03  0.12508672596E+03 0.  0.
          5    1    3    3  502    0 -0.74002384962E+02 -0.11342377273E+02  0.44004046652E+03  0.44638334095E+03  0.41800000000E+01 0.  1.
         -5    1    3    3    0  502  0.32568102075E+02 -0.49138524831E+02  0.15032185284E+03  0.16152215865E+03  0.41800000000E+01 0.  1.
        -11    1    1    2    0    0  0.81474818194E+01 -0.23048642017E+02  0.19958135741E+02  0.31558652397E+02  0.00000000000E+00 0.  1.
         11    1    1    2    0    0  0.33286801067E+02  0.83529544122E+02  0.85200706195E+01  0.90320470934E+02  0.00000000000E+00 0. -1.
</event>
<event>
 7    1  0.2856214E-009  0.2387534E+03  0.7561462E-02  0.1120626E+00
          3   -1    0    0  501    0  0.00000000000E+00  0.00000000000E+00  0.78304697691E+03  0.78304697691E+03  0.00000000000E+00 0. -1.
         -3   -1    0    0    0  501 -0.00000000000E+00 -0.00000000000E+00 -0.18460275042E+03  0.18460275042E+03  0.00000000000E+00 0.  1.
         25    2    1    2    0    0 -0.20710444016E+03  0.10997868593E+03 -0.51788932062E+02  0.27077412776E+03  0.12509586039E+03 0.  0.
          5    1    3    3  502    0 -0.87393619789E+02  0.28442101502E+02 -0.81442627872E+02  0.12286973571E+03  0.41800000000E+01 0.  1.
         -5    1    3    3    0  502 -0.11971082037E+03  0.81536584426E+02  0.29653695810E+02  0.14790439205E+03  0.41800000000E+01 0.  1.
        -11    1    1    2    0    0  0.18985984362E+03 -0.80011675648E+02  0.46729341480E+03  0.51069733109E+03  0.00000000000E+00 0. -1.
         11    1    1    2    0    0  0.17244596538E+02 -0.29967010280E+02  0.18293974374E+03  0.18617826848E+03  0.00000000000E+00 0.  1.
</event>
<event>
 7    1  0.2856214E-009  0.1030391E+03  0.7561462E-02  0.1274032E+00
         -2   -1    0    0    0  501 -0.00000000000E+00  0.00000000000E+00  0.26140344996E+03  0.26140344996E+03  0.00000000000E+00 0. -1.
          2   -1    0    0  501    0  0.00000000000E+00 -0.00000000000E+00 -0.62652617723E+02  0.62652617723E+02  0.00000000000E+00 0.  1.
         25    2    1    2    0    0 -0.60423770609E+02 -0.90987730165E+01  0.74148354695E+02  0.15772863050E+03  0.12508606098E+03 0.  0.
          5    1    3    3  502    0 -0.54588473779E+02  0.26520389586E+02 -0.13966524146E+02  0.62416093518E+02  0.41800000000E+01 0. -1.
         -5    1    3    3    0  502 -0.58352968297E+01 -0.35619162603E+02  0.88114878841E+02  0.95312536986E+02  0.41800000000E+01 0. -1.
        -11    1    1    2    0    0  0.58701792874E+02  0.44377705647E+02  0.95487783354E+02  0.12055371423E+03  0.00000000000E+00 0.  1.
         11    1    1    2    0    0  0.17219777349E+01 -0.35278932630E+02  0.29114694187E+02  0.45773722947E+02  0.00000000000E+00 0. -1.
</event>
<event>
 7    1  0.2856214E-009  0.7497226E+02  0.7561462E-02  0.1343957E+00
         -2   -1    0    0    0  501 -0.00000000000E+00  0.00000000000E+00  0.90603678674E+02  0.90603678674E+02  0.00000000000E+00 0.  1.
          2   -1    0    0  501    0  0.00000000000E+00 -0.00000000000E+00 -0.13956179373E+03  0.13956179373E+03  0.00000000000E+00 0. -1.
         25    2    1    2    0    0  0.86099148877E+01  0.26841519222E+02 -0.13287733977E+02  0.12891409067E+03  0.12509069154E+03 0.  0.
          5    1    3    3  502    0  0.29735481620E+02  0.32078544696E+02  0.47204294112E+02  0.64489919209E+02  0.41800000000E+01 0. -1.
         -5    1    3    3    0  502 -0.21125566732E+02 -0.52370254745E+01 -0.60492028089E+02  0.64424171457E+02  0.41800000000E+01 0. -1.
        -11    1    1    2    0    0  0.34995874064E+02 -0.17981384216E+02  0.65796593762E+01  0.39891519116E+02  0.00000000000E+00 0.  1.
         11    1    1    2    0    0 -0.43605788952E+02 -0.88601350053E+01 -0.42250040451E+02  0.61359862618E+02  0.00000000000E+00 0. -1.
</event>
<event>
 7    1  0.3700493E-009  0.9411517E+02  0.7561462E-02  0.1293181E+00
          2   -1    0    0  501    0  0.00000000000E+00  0.00000000000E+00  0.24496495139E+03  0.24496495139E+03  0.00000000000E+00 0. -1.
         -2   -1    0    0    0  501 -0.00000000000E+00 -0.00000000000E+00 -0.61964766014E+02  0.61964766014E+02  0.00000000000E+00 0.  1.
         25    2    1    2    0    0 -0.33484363118E+02  0.38689732328E+02  0.13702424840E+03  0.19246443905E+03  0.12509523447E+03 0.  0.
          5    1    3    3  502    0 -0.45234586294E+02 -0.15070011205E+01 -0.36795372188E+01  0.45600989504E+02  0.41800000000E+01 0. -1.
         -5    1    3    3    0  502  0.11750223176E+02  0.40196733448E+02  0.14070378562E+03  0.14686344955E+03  0.41800000000E+01 0. -1.
        -11    1    1    2    0    0 -0.11970990531E+02 -0.51973579076E+02  0.40137515654E+02  0.66750113851E+02  0.00000000000E+00 0. -1.
         11    1    1    2    0    0  0.45455353649E+02  0.13283846748E+02  0.58384213183E+01  0.47715164500E+02  0.00000000000E+00 0.  1.
</event>
<event>
 7    1  0.2856214E-009  0.1271888E+03  0.7561462E-02  0.1231688E+00
         -1   -1    0    0    0  501 -0.00000000000E+00  0.00000000000E+00  0.29363095066E+02  0.29363095066E+02  0.00000000000E+00 0.  1.
          1   -1    0    0  501    0  0.00000000000E+00 -0.00000000000E+00 -0.85177647132E+03  0.85177647132E+03  0.00000000000E+00 0. -1.
         25    2    1    2    0    0  0.95974797319E+01  0.10417223474E+03 -0.31347885879E+03  0.35335449558E+03  0.12508572473E+03 0.  0.
          5    1    3    3  502    0  0.32495467301E+02  0.52494190284E+02 -0.28161568641E+03  0.28833394293E+03  0.41800000000E+01 0.  1.
         -5    1    3    3    0  502 -0.22897987569E+02  0.51678044459E+02 -0.31863172378E+02  0.65020552657E+02  0.41800000000E+01 0.  1.
        -11    1    1    2    0    0 -0.32470806214E+02 -0.35886757413E+01 -0.18377747288E+03  0.18665848866E+03  0.00000000000E+00 0. -1.
         11    1    1    2    0    0  0.22873326482E+02 -0.10058355900E+03 -0.32515704458E+03  0.34112658215E+03  0.00000000000E+00 0.  1.
</event>
<event>
 7    1  0.2856214E-009  0.2048395E+03  0.7561462E-02  0.1145719E+00
          2   -1    0    0  501    0  0.00000000000E+00  0.00000000000E+00  0.88814547973E+02  0.88814547973E+02  0.00000000000E+00 0.  1.
         -2   -1    0    0    0  501 -0.00000000000E+00 -0.00000000000E+00 -0.97222783355E+03  0.97222783355E+03  0.00000000000E+00 0. -1.
         25    2    1    2    0    0  0.13105655409E+03 -0.13957268996E+03 -0.80135195111E+03  0.83334830321E+03  0.12509232096E+03 0.  0.
          5    1    3    3  502    0  0.56906684379E+02 -0.11093549251E+03 -0.28793577982E+03  0.31379856584E+03  0.41800000000E+01 0. -1.
         -5    1    3    3    0  502  0.74149869710E+02 -0.28637197449E+02 -0.51341617128E+03  0.51954973736E+03  0.41800000000E+01 0. -1.
        -11    1    1    2    0    0 -0.12278802277E+03  0.83119036971E+02 -0.31777824838E+02  0.15164268197E+03  0.00000000000E+00 0.  1.
         11    1    1    2    0    0 -0.82685313161E+01  0.56453652985E+02 -0.50283509636E+02  0.76051396350E+02  0.00000000000E+00 0. -1.
</event>
<event>
 7    1  0.2856214E-009  0.1301111E+03  0.7561462E-02  0.1227291E+00
         -2   -1    0    0    0  501 -0.00000000000E+00  0.00000000000E+00  0.31500596525E+02  0.31500596525E+02  0.00000000000E+00 0.  1.
          2   -1    0    0  501    0  0.00000000000E+00 -0.00000000000E+00 -0.76185393089E+03  0.76185393089E+03  0.00000000000E+00 0. -1.
         25    2    1    2    0    0 -0.58183916254E+02  0.94698284127E+02 -0.39260534478E+03  0.42677723317E+03  0.12508683732E+03 0.  0.
          5    1    3    3  502    0 -0.25410555646E+02  0.77745214235E+02 -0.37816824641E+03  0.38693501995E+03  0.41800000000E+01 0.  1.
         -5    1    3    3    0  502 -0.32773360609E+02  0.16953069892E+02 -0.14437098373E+02  0.39842213214E+02  0.41800000000E+01 0.  1.
        -11    1    1    2    0    0  0.79042441815E+02 -0.54844316384E+02 -0.25214249650E+03  0.26987301679E+03  0.00000000000E+00 0.  1.
         11    1    1    2    0    0 -0.20858525560E+02 -0.39853967743E+02 -0.85605493085E+02  0.96704277463E+02  0.00000000000E+00 0. -1.
</event>
<event>
 7    1  0.2969818E-009  0.1186451E+03  0.7561462E-02  0.1245349E+00
          1   -1    0    0  501    0  0.00000000000E+00  0.00000000000E+00  0.11454117851E+04  0.11454117851E+04  0.00000000000E+00 0. -1.
         -1   -1    0    0    0  501 -0.00000000000E+00 -0.00000000000E+00 -0.20706013953E+02  0.20706013953E+02  0.00000000000E+00 0.  1.
         25    2    1    2    0    0 -0.94386578793E+02  0.45492420876E+02  0.71626223179E+03  0.73461343687E+03  0.12508769056E+03 0.  0.
          5    1    3    3  502    0 -0.27119794442E+02 -0.83660192548E+01  0.25190258002E+02  0.38177153206E+02  0.41800000000E+01 0. -1.
         -5    1    3    3    0  502 -0.67266784352E+02  0.53858440130E+02  0.69107197379E+03  0.69643628367E+03  0.41800000000E+01 0. -1.
        -11    1    1    2    0    0  0.32375607430E+02 -0.50641281531E+02  0.98611126632E+02  0.11548538283E+03  0.00000000000E+00 0.  1.
         11    1    1    2    0    0  0.62010971363E+02  0.51488606553E+01  0.30983241271E+03  0.31601897933E+03  0.00000000000E+00 0. -1.
</event>
<event>
 7    1  0.2856214E-009  0.7674108E+02  0.7561462E-02  0.1338563E+00
         -2   -1    0    0    0  501 -0.00000000000E+00  0.00000000000E+00  0.10301457127E+03  0.10301457127E+03  0.00000000000E+00 0.  1.
          2   -1    0    0  501    0  0.00000000000E+00 -0.00000000000E+00 -0.12642406327E+03  0.12642406327E+03  0.00000000000E+00 0. -1.
         25    2    1    2    0    0 -0.13926945651E+02 -0.96367088267E+01 -0.47271310581E+02  0.13479124646E+03  0.12508907764E+03 0.  0.
          5    1    3    3  502    0 -0.18342264761E+02 -0.42648993871E+02 -0.76961508769E+02  0.89977339296E+02  0.41800000000E+01 0.  1.
         -5    1    3    3    0  502  0.44153191096E+01  0.33012285045E+02  0.29690198188E+02  0.44813907162E+02  0.41800000000E+01 0.  1.
        -11    1    1    2    0    0  0.40632726135E+02  0.19191857338E+02  0.41564702262E+02  0.61212501137E+02  0.00000000000E+00 0.  1.
         11    1    1    2    0    0 -0.26705780484E+02 -0.95551485114E+01 -0.17702883677E+02  0.33434886942E+02  0.00000000000E+00 0. -1.
</event>
<event>
 7    1  0.2856214E-009  0.1287716E+03  0.7561462E-02  0.1229290E+00
          2   -1    0    0  501    0  0.00000000000E+00  0.00000000000E+00  0.31659019439E+03  0.31659019439E+03  0.00000000000E+00 0. -1.
         -2   -1    0    0    0  501 -0.00000000000E+00 -0.00000000000E+00 -0.65138567264E+02  0.65138567264E+02  0.00000000000E+00 0.  1.
         25    2    1    2    0    0  0.55661655909E+02  0.56793168634E+02  0.20949964996E+03  0.25663388829E+03  0.12508862995E+03 0.  0.
          5    1    3    3  502    0 -0.37910286892E+02  0.23613824431E+02  0.39737002260E+02  0.59927492064E+02  0.41800000000E+01 0.  1.
         -5    1    3    3    0  502  0.93571942801E+02  0.33179344203E+02  0.16976264770E+03  0.19670639622E+03  0.41800000000E+01 0.  1.
        -11    1    1    2    0    0 -0.76839743328E+02 -0.45827900248E+02  0.46478576315E+02  0.10082063604E+03  0.00000000000E+00 0. -1.
         11    1    1    2    0    0  0.21178087419E+02 -0.10965268385E+02 -0.45265991537E+01  0.24274237318E+02  0.00000000000E+00 0.  1.
</event>
<event>
 7    1  0.2856214E-009  0.1172340E+03  0.7561462E-02  0.1247731E+00
         -1   -1    0    0    0  501 -0.00000000000E+00  0.00000000000E+00  0.48170312034E+03  0.48170312034E+03  0.00000000000E+00 0. -1.
          1   -1    0    0  501    0  0.00000000000E+00 -0.00000000000E+00 -0.35026692140E+02  0.35026692140E+02  0.00000000000E+00 0.  1.
         25    2    1    2    0    0 -0.63070948569E+02 -0.26255658355E+02  0.20437201744E+03  0.24916266280E+03  0.12508719709E+03 0.  0.
          5    1    3    3  502    0 -0.93391141667E+02 -0.21202178698E+02  0.93028518241E+02  0.13357849875E+03  0.41800000000E+01 0.  1.
         -5    1    3    3    0  502  0.30320193098E+02 -0.50534796562E+01  0.11134349919E+03  0.11558416405E+03  0.41800000000E+01 0.  1.
        -11    1    1    2    0    0  0.26513259226E+02 -0.30289405689E+02  0.52386500697E+02  0.66066227886E+02  0.00000000000E+00 0.  1.
         11    1    1    2    0    0  0.36557689343E+02  0.56545064043E+02  0.18991791007E+03  0.20150092179E+03  0.00000000000E+00 0. -1.
</event>
<event>
 7    1  0.2856214E-009  0.1321960E+03  0.7561462E-02  0.1224233E+00
         -2   -1    0    0    0  501 -0.00000000000E+00  0.00000000000E+00  0.10888084066E+03  0.10888084066E+03  0.00000000000E+00 0.  1.
          2   -1    0    0  501    0  0.00000000000E+00 -0.00000000000E+00 -0.31085838990E+03  0.31085838990E+03  0.00000000000E+00 0. -1.
         25    2    1    2    0    0 -0.11021946337E+03 -0.35802361039E+02 -0.12121091675E+01  0.17053819725E+03  0.12510662793E+03 0.  0.
          5    1    3    3  502    0 -0.28767978735E+02 -0.56967800114E+02 -0.42415738357E+02  0.76743039493E+02  0.41800000000E+01 0.  1.
         -5    1    3    3    0  502 -0.81451484634E+02  0.21165439075E+02  0.41203629189E+02  0.93795157757E+02  0.41800000000E+01 0.  1.
        -11    1    1    2    0    0  0.46840696270E+02  0.19470782148E+02 -0.16900346323E+03  0.17645206932E+03  0.00000000000E+00 0. -1.
         11    1    1    2    0    0  0.63378767099E+02  0.16331578891E+02 -0.31761976849E+02  0.72748963988E+02  0.00000000000E+00 0.  1.
</event>
<event>
 7    1  0.2856214E-009  0.1190224E+03  0.7561462E-02  0.1244719E+00
          1   -1    0    0  501    0  0.00000000000E+00  0.00000000000E+00  0.23063526880E+04  0.23063526880E+04  0.00000000000E+00 0. -1.
         -1   -1    0    0    0  501 -0.00000000000E+00 -0.00000000000E+00 -0.10783150075E+02  0.10783150075E+02  0.00000000000E+00 0.  1.
         25    2    1    2    0    0 -0.76502475621E+02 -0.11253542609E+02  0.18494965584E+04  0.18553337858E+04  0.12508663567E+03 0.  0.
          5    1    3    3  502    0 -0.93878085202E+02 -0.23993208511E+02  0.83714029177E+03  0.84273964511E+03  0.41800000000E+01 0.  1.
         -5    1    3    3    0  502  0.17375609581E+02  0.12739665902E+02  0.10123562666E+04  0.10125941407E+04  0.41800000000E+01 0.  1.
        -11    1    1    2    0    0  0.83162553572E+02 -0.21330046401E+02  0.30420613691E+03  0.31608915662E+03  0.00000000000E+00 0.  1.
         11    1    1    2    0    0 -0.66600779504E+01  0.32583589010E+02  0.14186684265E+03  0.14571289564E+03  0.00000000000E+00 0. -1.
</event>
<event>
 7    1  0.2856214E-009  0.6939952E+02  0.7561462E-02  0.1362147E+00
         -1   -1    0    0    0  501 -0.00000000000E+00  0.00000000000E+00  0.23165883910E+02  0.23165883910E+02  0.00000000000E+00 0. -1.
          1   -1    0    0  501    0  0.00000000000E+00 -0.00000000000E+00 -0.50645714440E+03  0.50645714440E+03  0.00000000000E+00 0.  1.
         25    2    1    2    0    0 -0.90439103335E-01  0.87270096305E+01 -0.26853173883E+03  0.29636573459E+03  0.12508870853E+03 0.  0.
          5    1    3    3  502    0  0.29688290849E+02  0.20668073231E+01 -0.43156314360E+01  0.30360556331E+02  0.41800000000E+01 0.  1.
         -5    1    3    3    0  502 -0.29778729952E+02  0.66602023074E+01 -0.26421610740E+03  0.26600517826E+03  0.41800000000E+01 0.  1.
        -11    1    1    2    0    0  0.23718161742E+02  0.26478556336E+02 -0.16053748273E+03  0.16442611868E+03  0.00000000000E+00 0.  1.
         11    1    1    2    0    0 -0.23627722638E+02 -0.35205565967E+02 -0.54222038921E+02  0.68831175037E+02  0.00000000000E+00 0. -1.
</event>
<event>
 7    1  0.2856214E-009  0.1146206E+03  0.7561462E-02  0.1252245E+00
          1   -1    0    0  501    0  0.00000000000E+00  0.00000000000E+00  0.50947497056E+03  0.50947497056E+03  0.00000000000E+00 0. -1.
         -1   -1    0    0    0  501 -0.00000000000E+00 -0.00000000000E+00 -0.52430307826E+02  0.52430307826E+02  0.00000000000E+00 0.  1.
         25    2    1    2    0    0  0.54322786199E+02 -0.20205927683E+02  0.43103732939E+03  0.45254804441E+03  0.12508920242E+03 0.  0.
          5    1    3    3  502    0 -0.24822963031E+02  0.27647874585E+02  0.20332265087E+03  0.20673209044E+03  0.41800000000E+01 0.  1.
         -5    1    3    3    0  502  0.79145749230E+02 -0.47853802269E+02  0.22771467852E+03  0.24581595397E+03  0.41800000000E+01 0.  1.
        -11    1    1    2    0    0 -0.73165074498E+02  0.28709153252E+02  0.33225769786E+01  0.78666276920E+02  0.00000000000E+00 0.  1.
         11    1    1    2    0    0  0.18842288298E+02 -0.85032255682E+01  0.22684756365E+02  0.30690957051E+02  0.00000000000E+00 0. -1.
</event>
<event>
 7    1  0.2856214E-009  0.1393937E+03  0.7561462E-02  0.1214147E+00
          1   -1    0    0  501    0  0.00000000000E+00  0.00000000000E+00  0.30115162213E+03  0.30115162213E+03  0.00000000000E+00 0. -1.
         -1   -1    0    0    0  501 -0.00000000000E+00 -0.00000000000E+00 -0.68897983804E+02  0.68897983804E+02  0.00000000000E+00 0.  1.
         25    2    1    2    0    0 -0.74727757888E+02  0.48054428194E+02  0.86752041370E+02  0.17625806313E+03  0.12509005663E+03 0.  0.
          5    1    3    3  502    0 -0.98955969860E+02 -0.30561804073E+00  0.52492923889E+02  0.11209530245E+03  0.41800000000E+01 0. -1.
         -5    1    3    3    0  502  0.24228211972E+02  0.48360046235E+02  0.34259117481E+02  0.64162760677E+02  0.41800000000E+01 0. -1.
        -11    1    1    2    0    0 -0.42605114917E+01  0.20478402953E+02  0.11683471254E+02  0.23958723802E+02  0.00000000000E+00 0.  1.
         11    1    1    2    0    0  0.78988269380E+02 -0.68532831147E+02  0.13381812571E+03  0.16983281901E+03  0.00000000000E+00 0. -1.
</event>
<event>
 7    1  0.2856214E-009  0.2644617E+03  0.7561462E-02  0.1104492E+00
         -1   -1    0    0    0  501 -0.00000000000E+00  0.00000000000E+00  0.13299060617E+03  0.13299060617E+03  0.00000000000E+00 0.  1.
          1   -1    0    0  501    0  0.00000000000E+00 -0.00000000000E+00 -0.56303735596E+03  0.56303735596E+03  0.00000000000E+00 0. -1.
         25    2    1    2    0    0 -0.10922392792E+03  0.22054266459E+03 -0.28013146132E+03  0.39330604215E+03  0.12508826419E+03 0.  0.
          5    1    3    3  502    0 -0.88248656176E+02  0.66616249658E+02 -0.16998563924E+03  0.20282539285E+03  0.41800000000E+01 0. -1.
         -5    1    3    3    0  502 -0.20975271743E+02  0.15392641493E+03 -0.11014582208E+03  0.19048064931E+03  0.41800000000E+01 0. -1.
        -11    1    1    2    0    0  0.12264893885E+03 -0.16419800542E+03 -0.12069817516E+03  0.23784826397E+03  0.00000000000E+00 0. -1.
         11    1    1    2    0    0 -0.13425010934E+02 -0.56344659166E+02 -0.29217113305E+02  0.64873656016E+02  0.00000000000E+00 0.  1.
</event>
<event>
 7    1  0.2856214E-009  0.1052050E+03  0.7561462E-02  0.1269716E+00
          2   -1    0    0  501    0  0.00000000000E+00  0.00000000000E+00  0.71561627086E+02  0.71561627086E+02  0.00000000000E+00 0.  1.
         -2   -1    0    0    0  501 -0.00000000000E+00 -0.00000000000E+00 -0.25168122932E+03  0.25168122932E+03  0.00000000000E+00 0. -1.
         25    2    1    2    0    0 -0.30425678731E+02  0.47259671214E+02 -0.16904420946E+03  0.21767542090E+03  0.12508975042E+03 0.  0.
          5    1    3    3  502    0 -0.52311627975E+01  0.71775648334E+02 -0.37118666674E+02  0.81082529398E+02  0.41800000000E+01 0.  1.
         -5    1    3    3    0  502 -0.25194515934E+02 -0.24515977120E+02 -0.13192554279E+03  0.13659289150E+03  0.41800000000E+01 0.  1.
        -11    1    1    2    0    0  0.11147795713E+02  0.25404735131E+02  0.62058885715E+01  0.28428629395E+02  0.00000000000E+00 0.  1.
         11    1    1    2    0    0  0.19277883019E+02 -0.72664406345E+02 -0.17281281337E+02  0.77138806108E+02  0.00000000000E+00 0. -1.
</event>
<event>
 7    1  0.2856214E-009  0.8071993E+02  0.7561462E-02  0.1327021E+00
         -2   -1    0    0    0  501 -0.00000000000E+00  0.00000000000E+00  0.48562111328E+02  0.48562111328E+02  0.00000000000E+00 0. -1.
          2   -1    0    0  501    0  0.00000000000E+00 -0.00000000000E+00 -0.31691133884E+03  0.31691133884E+03  0.00000000000E+00 0.  1.
         25    2    1    2    0    0 -0.51295927504E+02  0.35007098417E+02 -0.17076268354E+03  0.22060012362E+03  0.12509097223E+03 0.  0.
          5    1    3    3  502    0 -0.35027336598E+02  0.46326850251E+02 -0.10629274481E+02  0.59190752988E+02  0.41800000000E+01 0.  1.
         -5    1    3    3    0  502 -0.16268590905E+02 -0.11319751834E+02 -0.16013340906E+03  0.16140937063E+03  0.41800000000E+01 0.  1.
        -11    1    1    2    0    0 -0.99912586945E+01 -0.15865122494E+02  0.87229838989E+01  0.20678921881E+02  0.00000000000E+00 0. -1.
         11    1    1    2    0    0  0.61287186198E+02 -0.19141975923E+02 -0.10630952788E+03  0.12419440467E+03  0.00000000000E+00 0.  1.
</event>
<event>
 7    1  0.2856214E-009  0.5677309E+02  0.7561462E-02  0.1411895E+00
          2   -1    0    0  501    0  0.00000000000E+00  0.00000000000E+00  0.37900120897E+03  0.37900120897E+03  0.00000000000E+00 0. -1.
         -2   -1    0    0    0  501 -0.00000000000E+00 -0.00000000000E+00 -0.32674435681E+02  0.32674435681E+02  0.00000000000E+00 0.  1.
         25    2    1    2    0    0 -0.62464822572E+01 -0.10469836355E+02  0.23716240947E+03  0.26840624884E+03  0.12508904803E+03 0.  0.
          5    1    3    3  502    0 -0.24766559369E+02  0.13223995204E+02  0.23633421864E+03  0.23803275365E+03  0.41800000000E+01 0.  1.
         -5    1    3    3    0  502  0.18520077112E+02 -0.23693831559E+02  0.82819083646E+00  0.30373495193E+02  0.41800000000E+01 0.  1.
        -11    1    1    2    0    0  0.79981498762E+01 -0.21418025814E+02 -0.61001380322E+01  0.23662500190E+02  0.00000000000E+00 0.  1.
         11    1    1    2    0    0 -0.17516676190E+01  0.31887862169E+02  0.11526450184E+03  0.11960689561E+03  0.00000000000E+00 0. -1.
</event>
<event>
 7    1  0.2856214E-009  0.1136829E+03  0.7561462E-02  0.1253898E+00
         -2   -1    0    0    0  501 -0.00000000000E+00  0.00000000000E+00  0.45219233842E+02  0.45219233842E+02  0.00000000000E+00 0.  1.
          2   -1    0    0  501    0  0.00000000000E+00 -0.00000000000E+00 -0.46004527182E+03  0.46004527182E+03  0.00000000000E+00 0. -1.
         25    2    1    2    0    0 -0.59441462528E+02  0.48862018135E+02 -0.31487352313E+03  0.34743880250E+03  0.12509037384E+03 0.  0.
          5    1    3    3  502    0  0.38744040926E+02  0.19829137904E+02 -0.10987328559E+03  0.11825356952E+03  0.41800000000E+01 0.  1.
         -5    1    3    3    0  502 -0.98185503454E+02  0.29032880231E+02 -0.20500023754E+03  0.22918523298E+03  0.41800000000E+01 0.  1.
        -11    1    1    2    0    0  0.25809515425E+02 -0.56663101999E+01  0.15084584117E+02  0.30426679670E+02  0.00000000000E+00 0.  1.
         11    1    1    2    0    0  0.33631947103E+02 -0.43195707935E+02 -0.11503709896E+03  0.12739902350E+03  0.00000000000E+00 0. -1.
</event>
<event>
 7    1  0.2856214E-009  0.1501691E+03  0.7561462E-02  0.1200265E+00
         -1   -1    0    0    0  501 -0.00000000000E+00  0.00000000000E+00  0.38936381287E+02  0.38936381287E+02  0.00000000000E+00 0.  1.
          1   -1    0    0  501    0  0.00000000000E+00 -0.00000000000E+00 -0.66497688824E+03  0.66497688824E+03  0.00000000000E+00 0. -1.
         25    2    1    2    0    0 -0.21802139873E+02  0.12162620366E+03 -0.39274250857E+03  0.43030531297E+03  0.12509083744E+03 0.  0.
          5    1    3    3  502    0 -0.61152628804E+02  0.58100917678E+02 -0.29703922446E+03  0.30881245751E+03  0.41800000000E+01 0.  1.
         -5    1    3    3    0  502  0.39350488931E+02  0.63525285983E+02 -0.95703284104E+02  0.12149285545E+03  0.41800000000E+01 0.  1.
        -11    1    1    2    0    0  0.45673438492E+02 -0.63651202891E+02 -0.10711596303E+03  0.13270783002E+03  0.00000000000E+00 0.  1.
         11    1    1    2    0    0 -0.23871298619E+02 -0.57975000769E+02 -0.12618203536E+03  0.14090012654E+03  0.00000000000E+00 0. -1.
</event>
<event>
 7    1  0.2856214E-009  0.8166689E+02  0.7561462E-02  0.1324387E+00
         -1   -1    0    0    0  501 -0.00000000000E+00  0.00000000000E+00  0.42451482099E+02  0.42451482099E+02  0.00000000000E+00 0.  1.
          1   -1    0    0  501    0  0.00000000000E+00 -0.00000000000E+00 -0.36995692924E+03  0.36995692924E+03  0.00000000000E+00 0. -1.
         25    2    1    2    0    0 -0.20626490196E+02  0.53734551958E+02 -0.14534669691E+03  0.20021522674E+03  0.12509044945E+03 0.  0.
          5    1    3    3  502    0 -0.66150645527E+01 -0.58610106990E+00 -0.14372364558E+03  0.14393769935E+03  0.41800000000E+01 0.  1.
         -5    1    3    3    0  502 -0.14011425643E+02  0.54320653028E+02 -0.16230513301E+01  0.56277527394E+02  0.41800000000E+01 0.  1.
        -11    1    1    2    0    0 -0.31370794708E+02 -0.18454014648E+02 -0.28643174140E+02  0.46315319734E+02  0.00000000000E+00 0.  1.
         11    1    1    2    0    0  0.51997284904E+02 -0.35280537310E+02 -0.15351557609E+03  0.16587786487E+03  0.00000000000E+00 0. -1.
</event>
<event>
 7    1  0.2856214E-009  0.1315236E+03  0.7561462E-02  0.1225212E+00
          2   -1    0    0  501    0  0.00000000000E+00  0.00000000000E+00  0.41207147934E+02  0.41207147934E+02  0.00000000000E+00 0. -1.
         -2   -1    0    0    0  501 -0.00000000000E+00 -0.00000000000E+00 -0.62843435768E+03  0.62843435768E+03  0.00000000000E+00 0.  1.
         25    2    1    2    0    0  0.93837930014E+02  0.50719647027E+02 -0.32151093931E+03  0.36110347694E+03  0.12509355401E+03 0.  0.
          5    1    3    3  502    0  0.47184709748E+02  0.32624665391E+01 -0.27674922705E+03  0.28079289092E+03  0.41800000000E+01 0.  1.
         -5    1    3    3    0  502  0.46653220266E+02  0.47457180488E+02 -0.44761712263E+02  0.80310586013E+02  0.41800000000E+01 0.  1.
        -11    1    1    2    0    0  0.22940395670E+02 -0.11766369169E+02 -0.92548016051E+02  0.96072079565E+02  0.00000000000E+00 0.  1.
         11    1    1    2    0    0 -0.11677832568E+03 -0.38953277858E+02 -0.17316825439E+03  0.21246594911E+03  0.00000000000E+00 0. -1.
</event>
<event>
 7    1  0.2856214E-009  0.1417361E+03  0.7561462E-02  0.1211012E+00
         -1   -1    0    0    0  501 -0.00000000000E+00  0.00000000000E+00  0.38714972099E+03  0.38714972099E+03  0.00000000000E+00 0.  1.
          1   -1    0    0  501    0  0.00000000000E+00 -0.00000000000E+00 -0.76446409672E+02  0.76446409672E+02  0.00000000000E+00 0. -1.
         25    2    1    2    0    0  0.87105487067E+02 -0.33346668420E+02  0.36180359004E+02  0.16017162816E+03  0.12508623393E+03 0.  0.
          5    1    3    3  502    0  0.11246364970E+03 -0.51089441174E+02  0.36728969563E+02  0.12893677950E+03  0.41800000000E+01 0.  1.
         -5    1    3    3    0  502 -0.25358162633E+02  0.17742772754E+02 -0.54861055889E+00  0.31234848658E+02  0.41800000000E+01 0.  1.
        -11    1    1    2    0    0 -0.88335212502E+02 -0.66933200380E+01  0.20204199212E+03  0.22061023748E+03  0.00000000000E+00 0.  1.
         11    1    1    2    0    0  0.12297254350E+01  0.40039988458E+02  0.72480960204E+02  0.82814265030E+02  0.00000000000E+00 0. -1.
</event>
<event>
 7    1  0.2856214E-009  0.1397468E+03  0.7561462E-02  0.1213670E+00
          2   -1    0    0  501    0  0.00000000000E+00  0.00000000000E+00  0.19444150668E+03  0.19444150668E+03  0.00000000000E+00 0. -1.
         -2   -1    0    0    0  501 -0.00000000000E+00 -0.00000000000E+00 -0.13610363586E+03  0.13610363586E+03  0.00000000000E+00 0.  1.
         25    2    1    2    0    0 -0.11240657678E+03  0.41305388738E+02  0.41570354095E+02  0.17809465999E+03  0.12509292520E+03 0.  0.
          5    1    3    3  502    0 -0.49117933220E+01 -0.26982519134E+02  0.42402805976E+02  0.50672008122E+02  0.41800000000E+01 0.  1.
         -5    1    3    3    0  502 -0.10749478346E+03  0.68287907872E+02 -0.83245188085E+00  0.12742265187E+03  0.41800000000E+01 0.  1.
        -11    1    1    2    0    0  0.38318713469E+02 -0.31485989041E+02 -0.35724497669E+02  0.61122263059E+02  0.00000000000E+00 0.  1.
         11    1    1    2    0    0  0.74087863314E+02 -0.98193996965E+01  0.52492014387E+02  0.91328219491E+02  0.00000000000E+00 0. -1.
</event>
<event>
 7    1  0.2856214E-009  0.1638709E+03  0.7561462E-02  0.1184395E+00
         -4   -1    0    0    0  501 -0.00000000000E+00  0.00000000000E+00  0.18403273316E+03  0.18403273316E+03  0.00000000000E+00 0. -1.
          4   -1    0    0  501    0  0.00000000000E+00 -0.00000000000E+00 -0.20306285309E+03  0.20306285309E+03  0.00000000000E+00 0.  1.
         25    2    1    2    0    0  0.68592475053E+02 -0.12371615355E+03  0.64349147354E+02  0.19949715189E+03  0.12509071333E+03 0.  0.
          5    1    3    3  502    0  0.94380151855E+02 -0.47858474159E+02  0.53139847342E+02  0.11848781536E+03  0.41800000000E+01 0. -1.
         -5    1    3    3    0  502 -0.25787676802E+02 -0.75857679395E+02  0.11209300011E+02  0.81009336528E+02  0.41800000000E+01 0. -1.
        -11    1    1    2    0    0 -0.19014983832E+02  0.40535054859E+02  0.17215577689E+02  0.47969119210E+02  0.00000000000E+00 0. -1.
         11    1    1    2    0    0 -0.49577491221E+02  0.83181098695E+02 -0.10059484497E+03  0.13962931515E+03  0.00000000000E+00 0.  1.
</event>
<event>
 7    1  0.2856214E-009  0.9527293E+02  0.7561462E-02  0.1290563E+00
          1   -1    0    0  501    0  0.00000000000E+00  0.00000000000E+00  0.64505657190E+02  0.64505657190E+02  0.00000000000E+00 0. -1.
         -1   -1    0    0    0  501 -0.00000000000E+00 -0.00000000000E+00 -0.27637655931E+03  0.27637655931E+03  0.00000000000E+00 0.  1.
         25    2    1    2    0    0 -0.37605487616E+02 -0.14915599142E+02 -0.33449995799E+02  0.13566189182E+03  0.12509435989E+03 0.  0.
          5    1    3    3  502    0  0.14367970957E+02  0.24908836581E+02  0.31836517947E+02  0.43103654186E+02  0.41800000000E+01 0.  1.
         -5    1    3    3    0  502 -0.51973458573E+02 -0.39824435723E+02 -0.65286513746E+02  0.92558237633E+02  0.41800000000E+01 0.  1.
        -11    1    1    2    0    0 -0.28087002534E+01 -0.33042609014E+02 -0.96565724160E+02  0.10210113560E+03  0.00000000000E+00 0.  1.
         11    1    1    2    0    0  0.40414187869E+02  0.47958208156E+02 -0.81855182165E+02  0.10311918909E+03  0.00000000000E+00 0. -1.
</event>
<event>
 7    1  0.2856214E-009  0.1142009E+03  0.7561462E-02  0.1252982E+00
         -1   -1    0    0    0  501 -0.00000000000E+00  0.00000000000E+00  0.19456804845E+02  0.19456804845E+02  0.00000000000E+00 0.  1.
          1   -1    0    0  501    0  0.00000000000E+00 -0.00000000000E+00 -0.81276405525E+03  0.81276405525E+03  0.00000000000E+00 0. -1.
         25    2    1    2    0    0  0.54798529229E+02  0.11769811712E+02 -0.33384160124E+03  0.36088697805E+03  0.12509112252E+03 0.  0.
          5    1    3    3  502    0  0.57583435457E+02 -0.41218203094E+02 -0.26226565313E+03  0.27169014983E+03  0.41800000000E+01 0. -1.
         -5    1    3    3    0  502 -0.27849062275E+01  0.52988014806E+02 -0.71575948116E+02  0.89196828220E+02  0.41800000000E+01 0. -1.
        -11    1    1    2    0    0 -0.28494618262E+02 -0.50167173326E+02 -0.22387610691E+03  0.23119082983E+03  0.00000000000E+00 0. -1.
         11    1    1    2    0    0 -0.26303910968E+02  0.38397361614E+02 -0.23558954225E+03  0.24014305222E+03  0.00000000000E+00 0.  1.
</event>
<event>
 7    1  0.2856214E-009  0.1466877E+03  0.7561462E-02  0.1204603E+00
         -2   -1    0    0    0  501 -0.00000000000E+00  0.00000000000E+00  0.38041202552E+02  0.38041202552E+02  0.00000000000E+00 0.  1.
          2   -1    0    0  501    0  0.00000000000E+00 -0.00000000000E+00 -0.78397756711E+03  0.78397756711E+03  0.00000000000E+00 0. -1.
         25    2    1    2    0    0  0.57319278718E+02 -0.12001616931E+03 -0.36295902735E+03  0.40629662300E+03  0.12509320412E+03 0.  0.
          5    1    3    3  502    0  0.20197410242E+02 -0.60291728804E+02 -0.31426453455E+03  0.32065978547E+03  0.41800000000E+01 0. -1.
         -5    1    3    3    0  502  0.37121868476E+02 -0.59724440504E+02 -0.48694492798E+02  0.85636837526E+02  0.41800000000E+01 0. -1.
        -11    1    1    2    0    0  0.22273571511E+02  0.43142932320E+02 -0.15278991793E+03  0.16031900580E+03  0.00000000000E+00 0.  1.
         11    1    1    2    0    0 -0.79592850230E+02  0.76873236987E+02 -0.23018741928E+03  0.25540314087E+03  0.00000000000E+00 0. -1.
</event>
<event>
 7    1  0.2856214E-009  0.1093387E+03  0.7561462E-02  0.1261799E+00
         -4   -1    0    0    0  501 -0.00000000000E+00  0.00000000000E+00  0.72335717731E+02  0.72335717731E+02  0.00000000000E+00 0.  1.
          4   -1    0    0  501    0  0.00000000000E+00 -0.00000000000E+00 -0.23309871135E+03  0.23309871135E+03  0.00000000000E+00 0. -1.
         25    2    1    2    0    0 -0.53916295785E+02 -0.45564626128E+02 -0.10168231561E+03  0.17597811835E+03  0.12508358296E+03 0.  0.
          5    1    3    3  502    0  0.76194933817E+01  0.23645226764E+02  0.13132457602E+02  0.28409281420E+02  0.41800000000E+01 0.  1.
         -5    1    3    3    0  502 -0.61535789167E+02 -0.69209852892E+02 -0.11481477321E+03  0.14756883693E+03  0.41800000000E+01 0.  1.
        -11    1    1    2    0    0  0.91559915498E+01  0.54393136515E+02 -0.62917827835E+02  0.83672567432E+02  0.00000000000E+00 0. -1.
         11    1    1    2    0    0  0.44760304235E+02 -0.88285103863E+01  0.38371498336E+01  0.45783743291E+02  0.00000000000E+00 0.  1.
</event>
<event>
 7    1  0.2856214E-009  0.9858609E+02  0.7561462E-02  0.1283298E+00
          2   -1    0    0  501    0  0.00000000000E+00  0.00000000000E+00  0.12140362717E+03  0.12140362717E+03  0.00000000000E+00 0.  1.
         -2   -1    0    0    0  501 -0.00000000000E+00 -0.00000000000E+00 -0.12403330078E+03  0.12403330078E+03  0.00000000000E+00 0. -1.
         25    2    1    2    0    0 -0.43202938310E+02 -0.31659196262E+02  0.20153762939E+02  0.13755425554E+03  0.12508477314E+03 0.  0.
          5    1    3    3  502    0  0.14937412832E+02 -0.29615540328E+02  0.58762653901E+02  0.67607162524E+02  0.41800000000E+01 0. -1.
         -5    1    3    3    0  502 -0.58140351143E+02 -0.20436559342E+01 -0.38608890962E+02  0.69947093019E+02  0.41800000000E+01 0. -1.
        -11    1    1    2    0    0 -0.98901376589E+01  0.48668377016E+02 -0.93427598731E+01  0.50534274570E+02  0.00000000000E+00 0.  1.
         11    1    1    2    0    0  0.53093075969E+02 -0.17009180754E+02 -0.13440676673E+02  0.57348397844E+02  0.00000000000E+00 0. -1.
</event>
<event>
 7    1  0.2856214E-009  0.1113483E+03  0.7561462E-02  0.1258093E+00
          2   -1    0    0  501    0  0.00000000000E+00  0.00000000000E+00  0.60192185557E+02  0.60192185557E+02  0.00000000000E+00 0. -1.
         -2   -1    0    0    0  501 -0.00000000000E+00 -0.00000000000E+00 -0.22154683001E+03  0.22154683001E+03  0.00000000000E+00 0.  1.
         25    2    1    2    0    0  0.14809463891E+02  0.38872631293E+02 -0.11542839349E+03  0.17521940162E+03  0.12509085896E+03 0.  0.
          5    1    3    3  502    0  0.50251123800E+02  0.68742766450E+02 -0.72756829386E+02  0.11207931122E+03  0.41800000000E+01 0.  1.
         -5    1    3    3    0  502 -0.35441659910E+02 -0.29870135156E+02 -0.42671564109E+02  0.63140090394E+02  0.41800000000E+01 0.  1.
        -11    1    1    2    0    0 -0.41130689117E+02 -0.47846715122E+02 -0.47020526051E+02  0.78689081869E+02  0.00000000000E+00 0.  1.
         11    1    1    2    0    0  0.26321225226E+02  0.89740838292E+01  0.10942750912E+01  0.27830532082E+02  0.00000000000E+00 0. -1.
</event>
<event>
 7    1  0.2856214E-009  0.1018199E+03  0.7561462E-02  0.1276515E+00
         -3   -1    0    0    0  501 -0.00000000000E+00  0.00000000000E+00  0.20634911530E+03  0.20634911530E+03  0.00000000000E+00 0.  1.
          3   -1    0    0  501    0  0.00000000000E+00 -0.00000000000E+00 -0.11360340501E+03  0.11360340501E+03  0.00000000000E+00 0. -1.
         25    2    1    2    0    0 -0.56393760127E+02  0.35827524296E+01 -0.42371029960E+02  0.14365297167E+03  0.12509108598E+03 0.  0.
          5    1    3    3  502    0 -0.58803477718E+02 -0.24576034757E+02  0.26456154960E+02  0.69131982550E+02  0.41800000000E+01 0. -1.
         -5    1    3    3    0  502  0.24097175908E+01  0.28158787186E+02 -0.68827184920E+02  0.74520989115E+02  0.41800000000E+01 0. -1.
        -11    1    1    2    0    0  0.11038959521E+02  0.44060166856E+02  0.72043386272E+02  0.85166932763E+02  0.00000000000E+00 0.  1.
         11    1    1    2    0    0  0.45354800606E+02 -0.47642919285E+02  0.63073353974E+02  0.91132615883E+02  0.00000000000E+00 0. -1.
</event>
<event>
 7    1  0.2856214E-009  0.1095623E+03  0.7561462E-02  0.1261383E+00
          2   -1    0    0  501    0  0.00000000000E+00  0.00000000000E+00  0.20551592083E+02  0.20551592083E+02  0.00000000000E+00 0. -1.
         -2   -1    0    0    0  501 -0.00000000000E+00 -0.00000000000E+00 -0.75901722927E+03  0.75901722927E+03  0.00000000000E+00 0.  1.
         25    2    1    2    0    0  0.41466644815E+02 -0.44501593683E+02 -0.43277693585E+03  0.45457904458E+03  0.12508539921E+03 0.  0.
          5    1    3    3  502    0  0.70865363018E+02 -0.38701679975E+02 -0.15190555348E+03  0.17208279777E+03  0.41800000000E+01 0.  1.
         -5    1    3    3    0  502 -0.29398718203E+02 -0.57999137081E+01 -0.28087138236E+03  0.28249624681E+03  0.41800000000E+01 0.  1.
        -11    1    1    2    0    0 -0.46171823235E+02 -0.14832495480E+02 -0.17083286331E+03  0.17758295912E+03  0.00000000000E+00 0. -1.
         11    1    1    2    0    0  0.47051784203E+01  0.59334089163E+02 -0.13485583804E+03  0.14740681767E+03  0.00000000000E+00 0.  1.
</event>
<event>
 7    1  0.2856214E-009  0.1724429E+03  0.7561462E-02  0.1175324E+00
          1   -1    0    0  501    0  0.00000000000E+00  0.00000000000E+00  0.12445424108E+04  0.12445424108E+04  0.00000000000E+00 0. -1.
         -1   -1    0    0    0  501 -0.00000000000E+00 -0.00000000000E+00 -0.27797570621E+02  0.27797570621E+02  0.00000000000E+00 0.  1.
         25    2    1    2    0    0 -0.12432181760E+03 -0.62121862063E+02  0.84374554359E+03  0.86421638949E+03  0.12509350690E+03 0.  0.
          5    1    3    3  502    0  0.24860255062E+02 -0.14618950108E+02  0.17227928909E+03  0.17472656305E+03  0.41800000000E+01 0. -1.
         -5    1    3    3    0  502 -0.14918207266E+03 -0.47502911955E+02  0.67146625450E+03  0.68948982645E+03  0.41800000000E+01 0. -1.
        -11    1    1    2    0    0  0.76349454994E+02  0.77458996721E+02  0.30268796776E+03  0.32163510579E+03  0.00000000000E+00 0. -1.
         11    1    1    2    0    0  0.47972362604E+02 -0.15337134658E+02  0.70311328870E+02  0.86488486175E+02  0.00000000000E+00 0.  1.
</event>
<event>
 7    1  0.2856214E-009  0.9129253E+02  0.7561462E-02  0.1299751E+00
         -1   -1    0    0    0  501 -0.00000000000E+00  0.00000000000E+00  0.23376042523E+03  0.23376042523E+03  0.00000000000E+00 0.  1.
          1   -1    0    0  501    0  0.00000000000E+00 -0.00000000000E+00 -0.38147344820E+03  0.38147344820E+03  0.00000000000E+00 0. -1.
         25    2    1    2    0    0  0.72759244886E+02 -0.33980673687E+02  0.19857072593E+03  0.24804398916E+03  0.12508754320E+03 0.  0.
          5    1    3    3  502    0  0.16356043684E+01  0.19596647101E+01  0.15881574654E+03  0.15889124972E+03  0.41800000000E+01 0.  1.
         -5    1    3    3    0  502  0.71123640518E+02 -0.35940338397E+02  0.39754979389E+02  0.89152739446E+02  0.41800000000E+01 0.  1.
        -11    1    1    2    0    0 -0.45749058763E+02 -0.94781632836E+01 -0.58374054633E+02  0.74768591074E+02  0.00000000000E+00 0.  1.
         11    1    1    2    0    0 -0.27010186123E+02  0.43458836971E+02 -0.28790969426E+03  0.29242129320E+03  0.00000000000E+00 0. -1.
</event>
<event>
 7    1  0.2856214E-009  0.1700171E+03  0.7561462E-02  0.1177830E+00
          2   -1    0    0  501    0  0.00000000000E+00  0.00000000000E+00  0.21632594188E+04  0.21632594188E+04  0.00000000000E+00 0.  1.
         -2   -1    0    0    0  501 -0.00000000000E+00 -0.00000000000E+00 -0.24235226132E+02  0.24235226132E+02  0.00000000000E+00 0. -1.
         25    2    1    2    0    0  0.12768315681E+03 -0.68729270240E+02  0.17806178596E+04  0.17908864344E+04  0.12509019774E+03 0.  0.
          5    1    3    3  502    0  0.22122247607E+02 -0.81551466700E+02  0.72591295051E+03  0.73082632662E+03  0.41800000000E+01 0. -1.
         -5    1    3    3    0  502  0.10556090921E+03  0.12822196460E+02  0.10547049091E+04  0.10600601077E+04  0.41800000000E+01 0. -1.
        -11    1    1    2    0    0 -0.54449770607E+02  0.48796625366E+02  0.27174799363E+03  0.28141226023E+03  0.00000000000E+00 0.  1.
         11    1    1    2    0    0 -0.73233386207E+02  0.19932644874E+02  0.86658339371E+02  0.11519595032E+03  0.00000000000E+00 0. -1.
</event>
<event>
 7    1  0.2856214E-009  0.1052365E+03  0.7561462E-02  0.1269654E+00
         -1   -1    0    0    0  501 -0.00000000000E+00  0.00000000000E+00  0.87243977079E+02  0.87243977079E+02  0.00000000000E+00 0.  1.
          1   -1    0    0  501    0  0.00000000000E+00 -0.00000000000E+00 -0.16002864015E+03  0.16002864015E+03  0.00000000000E+00 0. -1.
         25    2    1    2    0    0  0.98774619952E+01 -0.44480071483E+02 -0.25941820881E+02  0.13563350794E+03  0.12508968539E+03 0.  0.
          5    1    3    3  502    0  0.18489150269E+02 -0.74914463507E+02 -0.53078983387E+02  0.93749007448E+02  0.41800000000E+01 0. -1.
         -5    1    3    3    0  502 -0.86116882739E+01  0.30434392023E+02  0.27137162506E+02  0.41884500494E+02  0.41800000000E+01 0. -1.
        -11    1    1    2    0    0  0.12581255624E+01  0.71789647621E+02 -0.34672897681E+02  0.79734222383E+02  0.00000000000E+00 0.  1.
         11    1    1    2    0    0 -0.11135587558E+02 -0.27309576138E+02 -0.12169944510E+02  0.31904886905E+02  0.00000000000E+00 0. -1.
</event>
<event>
 7    1  0.2856214E-009  0.1178090E+03  0.7561462E-02  0.1246756E+00
         -2   -1    0    0    0  501 -0.00000000000E+00  0.00000000000E+00  0.84572205416E+02  0.84572205416E+02  0.00000000000E+00 0.  1.
          2   -1    0    0  501    0  0.00000000000E+00 -0.00000000000E+00 -0.25969024897E+03  0.25969024897E+03  0.00000000000E+00 0. -1.
         25    2    1    2    0    0 -0.62651297579E+02 -0.60648510258E+02 -0.33728163716E+02  0.15616613063E+03  0.12508734726E+03 0.  0.
          5    1    3    3  502    0 -0.78769649644E+02 -0.68396736855E+02  0.13706469248E+02  0.10530009979E+03  0.41800000000E+01 0.  1.
         -5    1    3    3    0  502  0.16118352065E+02  0.77482265973E+01 -0.47434632964E+02  0.50866030837E+02  0.41800000000E+01 0.  1.
        -11    1    1    2    0    0  0.60408164216E+02  0.89111201671E+01 -0.11445434679E+03  0.12972413756E+03  0.00000000000E+00 0. -1.
         11    1    1    2    0    0  0.22431333630E+01  0.51737390091E+02 -0.26935533049E+02  0.58372186196E+02  0.00000000000E+00 0.  1.
</event>
<event>
 7    1  0.2856214E-009  0.8310061E+02  0.7561462E-02  0.1320476E+00
          1   -1    0    0  501    0  0.00000000000E+00  0.00000000000E+00  0.50910825701E+03  0.50910825701E+03  0.00000000000E+00 0. -1.
         -1   -1    0    0    0  501 -0.00000000000E+00 -0.00000000000E+00 -0.26847713952E+02  0.26847713952E+02  0.00000000000E+00 0.  1.
         25    2    1    2    0    0 -0.37957718392E+02 -0.16414466710E+01  0.23761022689E+03  0.27119927313E+03  0.12508774156E+03 0.  0.
          5    1    3    3  502    0  0.33905926885E+01  0.22133934086E+02  0.21844058373E+03  0.21962506273E+03  0.41800000000E+01 0.  1.
         -5    1    3    3    0  502 -0.41348311081E+02 -0.23775380757E+02  0.19169643157E+02  0.51574210398E+02  0.41800000000E+01 0.  1.
        -11    1    1    2    0    0  0.18159775231E+02 -0.43016919463E+02  0.76218717011E+02  0.89384146353E+02  0.00000000000E+00 0. -1.
         11    1    1    2    0    0  0.19797943161E+02  0.44658366134E+02  0.16843159915E+03  0.17537255148E+03  0.00000000000E+00 0.  1.
</event>
<event>
 7    1  0.2856214E-009  0.1037043E+03  0.7561462E-02  0.1272694E+00
         -2   -1    0    0    0  501 -0.00000000000E+00  0.00000000000E+00  0.65929071343E+02  0.65929071343E+02  0.00000000000E+00 0.  1.
          2   -1    0    0  501    0  0.00000000000E+00 -0.00000000000E+00 -0.32543039868E+03  0.32543039868E+03  0.00000000000E+00 0. -1.
         25    2    1    2    0    0 -0.10283253571E+01 -0.74143997392E+02 -0.22527874282E+03  0.26813525953E+03  0.12509042983E+03 0.  0.
          5    1    3    3  502    0  0.40474970263E+02 -0.41551919666E+02 -0.20218123753E+03  0.21037944399E+03  0.41800000000E+01 0. -1.
         -5    1    3    3    0  502 -0.41503295620E+02 -0.32592077726E+02 -0.23097505292E+02  0.57755815539E+02  0.41800000000E+01 0. -1.
        -11    1    1    2    0    0  0.29817403251E+02  0.23124186841E+02  0.20600713954E+02  0.42990638156E+02  0.00000000000E+00 0.  1.
         11    1    1    2    0    0 -0.28789077894E+02  0.51019810552E+02 -0.54823298472E+02  0.80233572337E+02  0.00000000000E+00 0. -1.
</event>
<event>
 7    1  0.2856214E-009  0.1195937E+03  0.7561462E-02  0.1243769E+00
          2   -1    0    0  501    0  0.00000000000E+00  0.00000000000E+00  0.27010858376E+03  0.27010858376E+03  0.00000000000E+00 0. -1.
         -2   -1    0    0    0  501 -0.00000000000E+00 -0.00000000000E+00 -0.63988249490E+02  0.63988249490E+02  0.00000000000E+00 0.  1.
         25    2    1    2    0    0  0.50936362329E+02  0.27654625713E+02  0.57194354031E+02  0.14925640788E+03  0.12508792839E+03 0.  0.
          5    1    3    3  502    0  0.80963613674E+02 -0.11904477460E+02  0.13642283596E+02  0.83068692204E+02  0.41800000000E+01 0.  1.
         -5    1    3    3    0  502 -0.30027251345E+02  0.39559103173E+02  0.43552070435E+02  0.66187715675E+02  0.41800000000E+01 0.  1.
        -11    1    1    2    0    0  0.36313567944E+01 -0.48763352535E+02  0.50196664237E+02  0.70076789333E+02  0.00000000000E+00 0.  1.
         11    1    1    2    0    0 -0.54567719123E+02  0.21108726822E+02  0.98729316007E+02  0.11476363604E+03  0.00000000000E+00 0. -1.
</event>
<event>
 7    1  0.2856214E-009  0.7827903E+02  0.7561462E-02  0.1334007E+00
         -1   -1    0    0    0  501 -0.00000000000E+00  0.00000000000E+00  0.88211373581E+02  0.88211373581E+02  0.00000000000E+00 0.  1.
          1   -1    0    0  501    0  0.00000000000E+00 -0.00000000000E+00 -0.19236172665E+03  0.19236172665E+03  0.00000000000E+00 0. -1.
         25    2    1    2    0    0  0.45944119372E+02  0.52075486585E+02 -0.31449996151E+02  0.14648888944E+03  0.12508866480E+03 0.  0.
          5    1    3    3  502    0  0.37833599159E+02  0.31740801289E+02  0.44947007824E+02  0.66907141652E+02  0.41800000000E+01 0.  1.
         -5    1    3    3    0  502  0.81105202137E+01  0.20334685296E+02 -0.76397003974E+02  0.79581747785E+02  0.41800000000E+01 0.  1.
        -11    1    1    2    0    0 -0.53381229257E+02 -0.29608447104E+02 -0.87115600702E+02  0.10637360416E+03  0.00000000000E+00 0. -1.
         11    1    1    2    0    0  0.74371098850E+01 -0.22467039481E+02  0.14415243785E+02  0.27710606631E+02  0.00000000000E+00 0.  1.
</event>
<event>
 7    1  0.2856214E-009  0.2373250E+03  0.7561462E-02  0.1121588E+00
         -2   -1    0    0    0  501 -0.00000000000E+00  0.00000000000E+00  0.10917871151E+03  0.10917871151E+03  0.00000000000E+00 0.  1.
          2   -1    0    0  501    0  0.00000000000E+00 -0.00000000000E+00 -0.65547043567E+03  0.65547043567E+03  0.00000000000E+00 0. -1.
         25    2    1    2    0    0  0.10431124282E+02 -0.22824542413E+03 -0.40283844058E+03  0.47972041636E+03  0.12509231261E+03 0.  0.
          5    1    3    3  502    0  0.12275727522E+02 -0.14101134332E+03 -0.35016679896E+03  0.37771570251E+03  0.41800000000E+01 0. -1.
         -5    1    3    3    0  502 -0.18446032394E+01 -0.87234080814E+02 -0.52671641624E+02  0.10200471385E+03  0.41800000000E+01 0. -1.
        -11    1    1    2    0    0 -0.28692913739E+02  0.22538687179E+03 -0.13719039830E+03  0.26541237850E+03  0.00000000000E+00 0.  1.
         11    1    1    2    0    0  0.18261789457E+02  0.28585523439E+01 -0.62628852785E+01  0.19516352315E+02  0.00000000000E+00 0. -1.
</event>
<event>
 7    1  0.2856214E-009  0.3461352E+03  0.7561462E-02  0.1064213E+00
          2   -1    0    0  501    0  0.00000000000E+00  0.00000000000E+00  0.52412385492E+03  0.52412385492E+03  0.00000000000E+00 0. -1.
         -2   -1    0    0    0  501 -0.00000000000E+00 -0.00000000000E+00 -0.24696873641E+03  0.24696873641E+03  0.00000000000E+00 0.  1.
         25    2    1    2    0    0  0.15972607792E+03  0.29121421958E+03  0.44029865277E+02  0.35763762814E+03  0.12509157595E+03 0.  0.
          5    1    3    3  502    0  0.17675127511E+03  0.22916108001E+03  0.25559709493E+02  0.29056253198E+03  0.41800000000E+01 0.  1.
         -5    1    3    3    0  502 -0.17025197190E+02  0.62053139573E+02  0.18470155785E+02  0.67075096160E+02  0.41800000000E+01 0.  1.
        -11    1    1    2    0    0 -0.57151769406E+02 -0.17113918058E+03  0.96391762309E+02  0.20456372043E+03  0.00000000000E+00 0.  1.
         11    1    1    2    0    0 -0.10257430851E+03 -0.12007503900E+03  0.13673349093E+03  0.20889124275E+03  0.00000000000E+00 0. -1.
</event>
<event>
 7    1  0.2856214E-009  0.8262702E+02  0.7561462E-02  0.1321757E+00
         -2   -1    0    0    0  501 -0.00000000000E+00  0.00000000000E+00  0.25322092937E+03  0.25322092937E+03  0.00000000000E+00 0. -1.
          2   -1    0    0  501    0  0.00000000000E+00 -0.00000000000E+00 -0.65188815935E+02  0.65188815935E+02  0.00000000000E+00 0.  1.
         25    2    1    2    0    0 -0.13661498250E+02 -0.54504558247E+02  0.55490930908E+02  0.14793351630E+03  0.12509076076E+03 0.  0.
          5    1    3    3  502    0  0.26124856363E+02 -0.13044745796E+02 -0.31780008746E+02  0.43360291383E+02  0.41800000000E+01 0.  1.
         -5    1    3    3    0  502 -0.39786354614E+02 -0.41459812451E+02  0.87270939654E+02  0.10457322492E+03  0.41800000000E+01 0.  1.
        -11    1    1    2    0    0 -0.25243215201E+01  0.60743152689E+02  0.32490294122E+02  0.68932735401E+02  0.00000000000E+00 0.  1.
         11    1    1    2    0    0  0.16185819770E+02 -0.62385944422E+01  0.10005088840E+03  0.10154349360E+03  0.00000000000E+00 0. -1.
</event>
<event>
 7    1  0.2856214E-009  0.1120320E+03  0.7561462E-02  0.1256853E+00
         -3   -1    0    0    0  501 -0.00000000000E+00  0.00000000000E+00  0.11380219986E+03  0.11380219986E+03  0.00000000000E+00 0.  1.
          3   -1    0    0  501    0  0.00000000000E+00 -0.00000000000E+00 -0.15072767153E+03  0.15072767153E+03  0.00000000000E+00 0. -1.
         25    2    1    2    0    0  0.60712407148E+02 -0.38785956027E+02 -0.31946581515E+01  0.14438899379E+03  0.12509048293E+03 0.  0.
          5    1    3    3  502    0 -0.36164759330E+02 -0.15183940396E+02  0.16342061484E+02  0.42696337511E+02  0.41800000000E+01 0.  1.
         -5    1    3    3    0  502  0.96877166478E+02 -0.23602015631E+02 -0.19536719636E+02  0.10169265628E+03  0.41800000000E+01 0.  1.
        -11    1    1    2    0    0 -0.16459789675E+02 -0.97568248612E+01 -0.49086092763E+02  0.52683629433E+02  0.00000000000E+00 0. -1.
         11    1    1    2    0    0 -0.44252617473E+02  0.48542780888E+02  0.15355279244E+02  0.67457248167E+02  0.00000000000E+00 0.  1.
</event>
<event>
 7    1  0.3864180E-009  0.8850819E+02  0.7561462E-02  0.1306505E+00
          2   -1    0    0  501    0  0.00000000000E+00  0.00000000000E+00  0.18481999415E+03  0.18481999415E+03  0.00000000000E+00 0. -1.
         -2   -1    0    0    0  501 -0.00000000000E+00 -0.00000000000E+00 -0.82525345609E+02  0.82525345609E+02  0.00000000000E+00 0.  1.
         25    2    1    2    0    0 -0.17860384442E+01  0.37363735797E+02  0.10660425051E+03  0.16856623489E+03  0.12510343972E+03 0.  0.
          5    1    3    3  502    0 -0.25753474012E+02  0.78412793054E+02  0.72239219588E+02  0.10976240151E+03  0.41800000000E+01 0. -1.
         -5    1    3    3    0  502  0.23967435568E+02 -0.41049057258E+02  0.34365030922E+02  0.58803833376E+02  0.41800000000E+01 0. -1.
        -11    1    1    2    0    0 -0.12931035336E+02 -0.20900940468E+02 -0.45686855277E+02  0.51878220213E+02  0.00000000000E+00 0.  1.
         11    1    1    2    0    0  0.14717073780E+02 -0.16462795329E+02  0.41377253310E+02  0.46900884663E+02  0.00000000000E+00 0. -1.
</event>
<event>
 7    1  0.2856214E-009  0.1368725E+03  0.7561462E-02  0.1217600E+00
         -2   -1    0    0    0  501 -0.00000000000E+00  0.00000000000E+00  0.30760672980E+03  0.30760672980E+03  0.00000000000E+00 0.  1.
          2   -1    0    0  501    0  0.00000000000E+00 -0.00000000000E+00 -0.96904935076E+02  0.96904935076E+02  0.00000000000E+00 0. -1.
         25    2    1    2    0    0  0.73454423217E+02  0.51589765767E+02 -0.47183293079E+01  0.15403681020E+03  0.12509204628E+03 0.  0.
          5    1    3    3  502    0  0.10108268348E+03  0.65491333289E+02  0.69504368370E+01  0.12071704357E+03  0.41800000000E+01 0.  1.
         -5    1    3    3    0  502 -0.27628260266E+02 -0.13901567521E+02 -0.11668766145E+02  0.33319766629E+02  0.41800000000E+01 0.  1.
        -11    1    1    2    0    0 -0.67231987511E+02  0.27841656102E+01  0.80767782324E+02  0.10512528899E+03  0.00000000000E+00 0. -1.
         11    1    1    2    0    0 -0.62224357054E+01 -0.54373931377E+02  0.13465234171E+03  0.14534956570E+03  0.00000000000E+00 0.  1.
</event>
<event>
 7    1  0.2856214E-009  0.1044652E+03  0.7561462E-02  0.1271177E+00
         -2   -1    0    0    0  501 -0.00000000000E+00  0.00000000000E+00  0.77902872609E+02  0.77902872609E+02  0.00000000000E+00 0.  1.
          2   -1    0    0  501    0  0.00000000000E+00 -0.00000000000E+00 -0.29573558729E+03  0.29573558729E+03  0.00000000000E+00 0. -1.
         25    2    1    2    0    0  0.75881810967E+02  0.34756743815E+02 -0.37927940872E+02  0.15508581155E+03  0.12508796812E+03 0.  0.
          5    1    3    3  502    0  0.76679657697E+02  0.34140230389E+02  0.28331123121E+02  0.88687373243E+02  0.41800000000E+01 0.  1.
         -5    1    3    3    0  502 -0.79784672972E+00  0.61651342646E+00 -0.66259063993E+02  0.66398438306E+02  0.41800000000E+01 0.  1.
        -11    1    1    2    0    0 -0.21776658556E+02 -0.57812150169E+02 -0.11782062219E+03  0.13303445636E+03  0.00000000000E+00 0. -1.
         11    1    1    2    0    0 -0.54105152411E+02  0.23055406354E+02 -0.62084151617E+02  0.85518191992E+02  0.00000000000E+00 0.  1.
</event>
<event>
 7    1  0.2856214E-009  0.1082961E+03  0.7561462E-02  0.1263758E+00
          1   -1    0    0  501    0  0.00000000000E+00  0.00000000000E+00  0.41117033029E+02  0.41117033029E+02  0.00000000000E+00 0. -1.
         -1   -1    0    0    0  501 -0.00000000000E+00 -0.00000000000E+00 -0.39173895550E+03  0.39173895550E+03  0.00000000000E+00 0.  1.
         25    2    1    2    0    0  0.25402315132E+02 -0.31020915585E+02 -0.10615665318E+03  0.16888953128E+03  0.12508742520E+03 0.  0.
          5    1    3    3  502    0  0.69934545006E+02  0.94852850453E+01 -0.63070321935E+02  0.94742541271E+02  0.41800000000E+01 0.  1.
         -5    1    3    3    0  502 -0.44532229874E+02 -0.40506200631E+02 -0.43086331240E+02  0.74146990005E+02  0.41800000000E+01 0.  1.
        -11    1    1    2    0    0 -0.38142650285E+02 -0.12550337994E+02 -0.18414813517E+03  0.18847521970E+03  0.00000000000E+00 0.  1.
         11    1    1    2    0    0  0.12740335153E+02  0.43571253579E+02 -0.60317134131E+02  0.75491237558E+02  0.00000000000E+00 0. -1.
</event>
<event>
 7    1  0.2856214E-009  0.1625588E+03  0.7561462E-02  0.1185838E+00
         -1   -1    0    0    0  501 -0.00000000000E+00  0.00000000000E+00  0.50748978896E+02  0.50748978896E+02  0.00000000000E+00 0.  1.
          1   -1    0    0  501    0  0.00000000000E+00 -0.00000000000E+00 -0.68797885347E+03  0.68797885347E+03  0.00000000000E+00 0. -1.
         25    2    1    2    0    0  0.14621041148E+03 -0.47469491410E+01 -0.26251907590E+03  0.32552271568E+03  0.12509498495E+03 0.  0.
          5    1    3    3  502    0  0.46229512932E+02 -0.44505258184E+02 -0.33626710286E+02  0.72567995126E+02  0.41800000000E+01 0. -1.
         -5    1    3    3    0  502  0.99980898548E+02  0.39758309043E+02 -0.22889236562E+03  0.25295472055E+03  0.41800000000E+01 0. -1.
        -11    1    1    2    0    0 -0.41833701110E+02  0.22118684571E+02 -0.22471266295E+03  0.22964118892E+03  0.00000000000E+00 0. -1.
         11    1    1    2    0    0 -0.10437671037E+03 -0.17371735430E+02 -0.14999813572E+03  0.18356392777E+03  0.00000000000E+00 0.  1.
</event>
<event>
 7    1  0.2856214E-009  0.1164894E+03  0.7561462E-02  0.1249003E+00
         -2   -1    0    0    0  501 -0.00000000000E+00  0.00000000000E+00  0.19705912665E+03  0.19705912665E+03  0.00000000000E+00 0.  1.
          2   -1    0    0  501    0  0.00000000000E+00 -0.00000000000E+00 -0.23550359908E+03  0.23550359908E+03  0.00000000000E+00 0. -1.
         25    2    1    2    0    0 -0.11355500233E+02  0.96738881670E+02  0.13785808763E+03  0.21009537356E+03  0.12509138681E+03 0.  0.
          5    1    3    3  502    0 -0.71611981245E-01  0.42306580888E+02 -0.16788786120E+02  0.45707632339E+02  0.41800000000E+01 0. -1.
         -5    1    3    3    0  502 -0.11283888252E+02  0.54432300782E+02  0.15464687375E+03  0.16438774122E+03  0.41800000000E+01 0. -1.
        -11    1    1    2    0    0  0.42614737713E+02 -0.11810263052E+02 -0.45877394408E+02  0.63719961561E+02  0.00000000000E+00 0.  1.
         11    1    1    2    0    0 -0.31259237480E+02 -0.84928618619E+02 -0.13042516566E+03  0.15874739061E+03  0.00000000000E+00 0. -1.
</event>
<event>
 7    1  0.2856214E-009  0.8912605E+02  0.7561462E-02  0.1304982E+00
         -1   -1    0    0    0  501 -0.00000000000E+00  0.00000000000E+00  0.94699471906E+02  0.94699471906E+02  0.00000000000E+00 0.  1.
          1   -1    0    0  501    0  0.00000000000E+00 -0.00000000000E+00 -0.23065830756E+03  0.23065830756E+03  0.00000000000E+00 0. -1.
         25    2    1    2    0    0 -0.48795839379E+02  0.10962138227E+02 -0.16756295442E+03  0.21500195793E+03  0.12508915143E+03 0.  0.
          5    1    3    3  502    0 -0.68467743180E+02  0.21166394836E+02 -0.17665697208E+03  0.19068562167E+03  0.41800000000E+01 0.  1.
         -5    1    3    3    0  502  0.19671903801E+02 -0.10204256609E+02  0.90940176618E+01  0.24316336265E+02  0.41800000000E+01 0.  1.
        -11    1    1    2    0    0 -0.52380843010E+01 -0.27036687003E+02  0.44679561314E+02  0.52485075693E+02  0.00000000000E+00 0.  1.
         11    1    1    2    0    0  0.54033923680E+02  0.16074548775E+02 -0.13075442554E+02  0.57870745844E+02  0.00000000000E+00 0. -1.
</event>
<event>
 7    1  0.2856214E-009  0.6564977E+02  0.7561462E-02  0.1375544E+00
         -3   -1    0    0    0  501 -0.00000000000E+00  0.00000000000E+00  0.77570823503E+02  0.77570823503E+02  0.00000000000E+00 0.  1.
          3   -1    0    0  501    0  0.00000000000E+00 -0.00000000000E+00 -0.24508681741E+03  0.24508681741E+03  0.00000000000E+00 0. -1.
         25    2    1    2    0    0  0.11420391490E+02 -0.54474914267E+01  0.64245071795E+01  0.12589115502E+03  0.12508880092E+03 0.  0.
          5    1    3    3  502    0  0.36787540953E+02  0.18214934927E+02 -0.46692669241E+02  0.62311995511E+02  0.41800000000E+01 0. -1.
         -5    1    3    3    0  502 -0.25367149463E+02 -0.23662426354E+02  0.53117176421E+02  0.63579159508E+02  0.41800000000E+01 0. -1.
        -11    1    1    2    0    0  0.10704663785E+02  0.23963365169E+02 -0.67428381436E+01  0.27097943893E+02  0.00000000000E+00 0.  1.
         11    1    1    2    0    0 -0.22125055275E+02 -0.18515873743E+02 -0.16719766295E+03  0.16966854200E+03  0.00000000000E+00 0. -1.
</event>
<event>
 7    1  0.2856214E-009  0.1068630E+03  0.7561462E-02  0.1266492E+00
         -2   -1    0    0    0  501 -0.00000000000E+00  0.00000000000E+00  0.44037193096E+02  0.44037193096E+02  0.00000000000E+00 0. -1.
          2   -1    0    0  501    0  0.00000000000E+00 -0.00000000000E+00 -0.45302526625E+03  0.45302526625E+03  0.00000000000E+00 0.  1.
         25    2    1    2    0    0  0.38702142618E+02 -0.17598710294E+02 -0.85303591536E+02  0.15726373235E+03  0.12509040066E+03 0.  0.
          5    1    3    3  502    0 -0.34003658752E+02 -0.20867165158E+02 -0.73053442012E+02  0.83342457247E+02  0.41800000000E+01 0. -1.
         -5    1    3    3    0  502  0.72705801370E+02  0.32684548642E+01 -0.12250149524E+02  0.73921275107E+02  0.41800000000E+01 0. -1.
        -11    1    1    2    0    0 -0.62550233923E+02 -0.10962842283E+02 -0.16471127208E+03  0.17652908775E+03  0.00000000000E+00 0.  1.
         11    1    1    2    0    0  0.23848091305E+02  0.28561552577E+02 -0.15897320954E+03  0.16326963924E+03  0.00000000000E+00 0. -1.
</event>
<event>
 7    1  0.2856214E-009  0.1070550E+03  0.7561462E-02  0.1266123E+00
         -3   -1    0    0    0  501 -0.00000000000E+00  0.00000000000E+00  0.34091725057E+02  0.34091725057E+02  0.00000000000E+00 0.  1.
          3   -1    0    0  501    0  0.00000000000E+00 -0.00000000000E+00 -0.44928281985E+03  0.44928281985E+03  0.00000000000E+00 0. -1.
         25    2    1    2    0    0  0.58223630104E+02  0.14436826438E+02 -0.24796127201E+03  0.28413321914E+03  0.12509388769E+03 0.  0.
          5    1    3    3  502    0  0.56469059343E+01  0.60474557652E+02 -0.16327269848E+03  0.17425414239E+03  0.41800000000E+01 0.  1.
         -5    1    3    3    0  502  0.52576724170E+02 -0.46037731214E+02 -0.84688573529E+02  0.10987907674E+03  0.41800000000E+01 0.  1.
        -11    1    1    2    0    0 -0.69092661966E+02 -0.57974472193E+01 -0.17127726734E+03  0.18477908063E+03  0.00000000000E+00 0. -1.
         11    1    1    2    0    0  0.10869031862E+02 -0.86393792191E+01  0.40474445645E+01  0.14462245137E+02  0.00000000000E+00 0.  1.
</event>
<event>
 7    1  0.3266658E-009  0.8881760E+02  0.7561462E-02  0.1305741E+00
          3   -1    0    0  501    0  0.00000000000E+00  0.00000000000E+00  0.18623606766E+03  0.18623606766E+03  0.00000000000E+00 0. -1.
         -3   -1    0    0    0  501 -0.00000000000E+00 -0.00000000000E+00 -0.77438740155E+02  0.77438740155E+02  0.00000000000E+00 0.  1.
         25    2    1    2    0    0 -0.36856702621E+02 -0.16024565724E+02  0.97006623976E+02  0.16331752886E+03  0.12508847630E+03 0.  0.
          5    1    3    3  502    0 -0.56611104641E+02 -0.38458053476E+02  0.76385066379E+01  0.68990276340E+02  0.41800000000E+01 0. -1.
         -5    1    3    3    0  502  0.19754402020E+02  0.22433487752E+02  0.89368117338E+02  0.94327252523E+02  0.41800000000E+01 0. -1.
        -11    1    1    2    0    0  0.45853455780E+02 -0.13679258333E+02 -0.23542749582E+02  0.53328440568E+02  0.00000000000E+00 0.  1.
         11    1    1    2    0    0 -0.89967531590E+01  0.29703824056E+02  0.35333453112E+02  0.47028838385E+02  0.00000000000E+00 0. -1.
</event>
<event>
 7    1  0.2856214E-009  0.2354988E+03  0.7561462E-02  0.1122828E+00
          1   -1    0    0  501    0  0.00000000000E+00  0.00000000000E+00  0.94806653584E+03  0.94806653584E+03  0.00000000000E+00 0. -1.
         -1   -1    0    0    0  501 -0.00000000000E+00 -0.00000000000E+00 -0.60779289468E+02  0.60779289468E+02  0.00000000000E+00 0.  1.
         25    2    1    2    0    0 -0.20916815849E+03  0.15356248928E+02  0.37232721776E+03  0.44526751191E+03  0.12509383347E+03 0.  0.
          5    1    3    3  502    0 -0.15399804555E+03 -0.44902544772E+02  0.21919285722E+03  0.27165164755E+03  0.41800000000E+01 0.  1.
         -5    1    3    3    0  502 -0.55170112932E+02  0.60258793700E+02  0.15313436055E+03  0.17361586437E+03  0.41800000000E+01 0.  1.
        -11    1    1    2    0    0  0.30416558506E+01  0.19445482871E+02  0.37186556158E+02  0.42073963841E+02  0.00000000000E+00 0. -1.
         11    1    1    2    0    0  0.20612650263E+03 -0.34801731798E+02  0.47777347245E+03  0.52150434955E+03  0.00000000000E+00 0.  1.
</event>
<event>
 7    1  0.2856214E-009  0.1771568E+03  0.7561462E-02  0.1170583E+00
          2   -1    0    0  501    0  0.00000000000E+00  0.00000000000E+00  0.57421744353E+03  0.57421744353E+03  0.00000000000E+00 0. -1.
         -2   -1    0    0    0  501 -0.00000000000E+00 -0.00000000000E+00 -0.62581130109E+02  0.62581130109E+02  0.00000000000E+00 0.  1.
         25    2    1    2    0    0 -0.13763606269E+03 -0.35033512106E+02  0.37338420591E+03  0.41860971514E+03  0.12508915084E+03 0.  0.
          5    1    3    3  502    0 -0.16316974584E+02 -0.62220055751E+02  0.14058296661E+03  0.15465646413E+03  0.41800000000E+01 0. -1.
         -5    1    3    3    0  502 -0.12131908811E+03  0.27186543645E+02  0.23280123930E+03  0.26395325100E+03  0.41800000000E+01 0. -1.
        -11    1    1    2    0    0  0.13494514941E+03  0.54697029979E+02  0.13401705387E+03  0.19789524797E+03  0.00000000000E+00 0.  1.
         11    1    1    2    0    0  0.26909132811E+01 -0.19663517873E+02  0.42350536383E+01  0.20293610540E+02  0.00000000000E+00 0. -1.
</event>
<event>
 7    1  0.2856214E-009  0.1356689E+03  0.7561462E-02  0.1219278E+00
         -3   -1    0    0    0  501 -0.00000000000E+00  0.00000000000E+00  0.46010666462E+02  0.46010666462E+02  0.00000000000E+00 0.  1.
          3   -1    0    0  501    0  0.00000000000E+00 -0.00000000000E+00 -0.44605938142E+03  0.44605938142E+03  0.00000000000E+00 0. -1.
         25    2    1    2    0    0 -0.40054729845E+02 -0.83414819185E+02 -0.18921921509E+03  0.24497248162E+03  0.12508074171E+03 0.  0.
          5    1    3    3  502    0  0.36185913638E+02 -0.54052727932E+02 -0.12498917614E+03  0.14096412414E+03  0.41800000000E+01 0.  1.
         -5    1    3    3    0  502 -0.76240643482E+02 -0.29362091252E+02 -0.64230038956E+02  0.10400835748E+03  0.41800000000E+01 0.  1.
        -11    1    1    2    0    0 -0.19899870929E+02 -0.19935221714E+01 -0.14311662190E+02  0.24592736088E+02  0.00000000000E+00 0. -1.
         11    1    1    2    0    0  0.59954600774E+02  0.85408341356E+02 -0.19651783767E+03  0.22250483017E+03  0.00000000000E+00 0.  1.
</event>
<event>
 7    1  0.2856214E-009  0.1330014E+03  0.7561462E-02  0.1223069E+00
         -4   -1    0    0    0  501 -0.00000000000E+00  0.00000000000E+00  0.57684134688E+02  0.57684134688E+02  0.00000000000E+00 0.  1.
          4   -1    0    0  501    0  0.00000000000E+00 -0.00000000000E+00 -0.39844695224E+03  0.39844695224E+03  0.00000000000E+00 0. -1.
         25    2    1    2    0    0 -0.47808615871E+02  0.90124845498E+02 -0.16407200895E+03  0.23016575242E+03  0.12509395646E+03 0.  0.
          5    1    3    3  502    0 -0.24375747570E+02 -0.79823391095E+01 -0.11503298184E+03  0.11793198938E+03  0.41800000000E+01 0. -1.
         -5    1    3    3    0  502 -0.23432868301E+02  0.98107184607E+02 -0.49039027107E+02  0.11223376305E+03  0.41800000000E+01 0. -1.
        -11    1    1    2    0    0  0.73988516876E+02 -0.44162874670E+02 -0.12642019971E+03  0.15299257179E+03  0.00000000000E+00 0. -1.
         11    1    1    2    0    0 -0.26179901005E+02 -0.45961970828E+02 -0.50270608895E+02  0.72972762710E+02  0.00000000000E+00 0.  1.
</event>
<event>
 7    1  0.2856214E-009  0.1295768E+03  0.7561462E-02  0.1228085E+00
         -2   -1    0    0    0  501 -0.00000000000E+00  0.00000000000E+00  0.21197054843E+03  0.21197054843E+03  0.00000000000E+00 0. -1.
          2   -1    0    0  501    0  0.00000000000E+00 -0.00000000000E+00 -0.11273333702E+03  0.11273333702E+03  0.00000000000E+00 0.  1.
         25    2    1    2    0    0 -0.43615741986E+02  0.99120700815E+02  0.33079066855E+02  0.16872386053E+03  0.12508505174E+03 0.  0.
          5    1    3    3  502    0 -0.22867138695E+00  0.92794663447E+02 -0.24656917020E+02  0.96105867728E+02  0.41800000000E+01 0.  1.
         -5    1    3    3    0  502 -0.43387070599E+02  0.63260373678E+01  0.57735983875E+02  0.72617992798E+02  0.41800000000E+01 0.  1.
        -11    1    1    2    0    0  0.57514288622E+02 -0.77310910979E+02  0.81245943919E+02  0.12603877878E+03  0.00000000000E+00 0. -1.
         11    1    1    2    0    0 -0.13898546636E+02 -0.21809789836E+02 -0.15087799357E+02  0.29941246145E+02  0.00000000000E+00 0.  1.
</event>
<event>
 7    1  0.2856214E-009  0.3376736E+03  0.7561462E-02  0.1067791E+00
         -1   -1    0    0    0  501 -0.00000000000E+00  0.00000000000E+00  0.23428142879E+03  0.23428142879E+03  0.00000000000E+00 0.  1.
          1   -1    0    0  501    0  0.00000000000E+00 -0.00000000000E+00 -0.75526029682E+03  0.75526029682E+03  0.00000000000E+00 0. -1.
         25    2    1    2    0    0  0.25530953740E+03  0.20828518314E+03 -0.54164535491E+03  0.64621370391E+03  0.12508710251E+03 0.  0.
          5    1    3    3  502    0  0.24391678942E+03  0.16210463171E+03 -0.39336651202E+03  0.49043653714E+03  0.41800000000E+01 0. -1.
         -5    1    3    3    0  502  0.11392747986E+02  0.46180551436E+02 -0.14827884289E+03  0.15577716677E+03  0.41800000000E+01 0. -1.
        -11    1    1    2    0    0 -0.20723556070E+03 -0.13596341759E+03  0.47640826411E+02  0.25239309992E+03  0.00000000000E+00 0.  1.
         11    1    1    2    0    0 -0.48073976696E+02 -0.72321765552E+02 -0.26974339527E+02  0.90934921790E+02  0.00000000000E+00 0. -1.
</event>
<event>
 7    1  0.2856214E-009  0.1055414E+03  0.7561462E-02  0.1269057E+00
          2   -1    0    0  501    0  0.00000000000E+00  0.00000000000E+00  0.61518803336E+03  0.61518803336E+03  0.00000000000E+00 0. -1.
         -2   -1    0    0    0  501 -0.00000000000E+00 -0.00000000000E+00 -0.21244984397E+02  0.21244984397E+02  0.00000000000E+00 0.  1.
         25    2    1    2    0    0  0.12705437779E+02 -0.35774601098E+02  0.32276413669E+03  0.34823216316E+03  0.12509077222E+03 0.  0.
          5    1    3    3  502    0  0.29765354672E+02 -0.74632562643E+02  0.26142796448E+03  0.27352888103E+03  0.41800000000E+01 0. -1.
         -5    1    3    3    0  502 -0.17059916893E+02  0.38857961544E+02  0.61336172206E+02  0.74703282128E+02  0.41800000000E+01 0. -1.
        -11    1    1    2    0    0  0.13624289994E+02  0.54173443509E+02  0.10488251859E+03  0.11883066088E+03  0.00000000000E+00 0.  1.
         11    1    1    2    0    0 -0.26329727774E+02 -0.18398842411E+02  0.16629639368E+03  0.16937019371E+03  0.00000000000E+00 0. -1.
</event>
<event>
 7    1  0.2856214E-009  0.1305076E+03  0.7561462E-02  0.1226705E+00
         -3   -1    0    0    0  501 -0.00000000000E+00  0.00000000000E+00  0.55086730635E+02  0.55086730635E+02  0.00000000000E+00 0. -1.
          3   -1    0    0  501    0  0.00000000000E+00 -0.00000000000E+00 -0.45012237052E+03  0.45012237052E+03  0.00000000000E+00 0.  1.
         25    2    1    2    0    0  0.72309487540E+02  0.84804594425E+02 -0.15274693814E+03  0.22671399632E+03  0.12508847986E+03 0.  0.
          5    1    3    3  502    0  0.73219954116E+01  0.72146243883E+02 -0.15497219557E+02  0.74271988914E+02  0.41800000000E+01 0.  1.
         -5    1    3    3    0  502  0.64987492129E+02  0.12658350542E+02 -0.13724971858E+03  0.15244200741E+03  0.41800000000E+01 0.  1.
        -11    1    1    2    0    0 -0.21871264707E+02 -0.63720664443E+02 -0.19466462313E+03  0.20599269597E+03  0.00000000000E+00 0.  1.
         11    1    1    2    0    0 -0.50438222833E+02 -0.21083929982E+02 -0.47624078616E+02  0.72502408857E+02  0.00000000000E+00 0. -1.
</event>
<event>
 7    1  0.2856214E-009  0.2451885E+03  0.7561462E-02  0.1116384E+00
         -1   -1    0    0    0  501 -0.00000000000E+00  0.00000000000E+00  0.73203628685E+02  0.73203628685E+02  0.00000000000E+00 0.  1.
          1   -1    0    0  501    0  0.00000000000E+00 -0.00000000000E+00 -0.93758768522E+03  0.93758768522E+03  0.00000000000E+00 0. -1.
         25    2    1    2    0    0  0.22058609991E+03  0.72411892441E+02 -0.34593232766E+03  0.43499229692E+03  0.12508962154E+03 0.  0.
          5    1    3    3  502    0  0.15852087523E+03  0.81019451276E+02 -0.16237516566E+03  0.24099001264E+03  0.41800000000E+01 0.  1.
         -5    1    3    3    0  502  0.62065224679E+02 -0.86075588342E+01 -0.18355716200E+03  0.19400228428E+03  0.41800000000E+01 0.  1.
        -11    1    1    2    0    0 -0.31587129141E+02  0.21746511354E+02 -0.99722664068E+02  0.10684225387E+03  0.00000000000E+00 0.  1.
         11    1    1    2    0    0 -0.18899897077E+03 -0.94158403795E+02 -0.41872906481E+03  0.46895676312E+03  0.00000000000E+00 0. -1.
</event>
<event>
 7    1  0.2856214E-009  0.1835079E+03  0.7561462E-02  0.1164451E+00
         -1   -1    0    0    0  501 -0.00000000000E+00  0.00000000000E+00  0.22608703383E+03  0.22608703383E+03  0.00000000000E+00 0.  1.
          1   -1    0    0  501    0  0.00000000000E+00 -0.00000000000E+00 -0.19659075895E+03  0.19659075895E+03  0.00000000000E+00 0. -1.
         25    2    1    2    0    0  0.10494269021E+03 -0.12295985572E+03 -0.65216138136E+02  0.21455063859E+03  0.12508691976E+03 0.  0.
          5    1    3    3  502    0  0.12702898074E+03 -0.11408038236E+03 -0.32461497368E+02  0.17384451904E+03  0.41800000000E+01 0.  1.
         -5    1    3    3    0  502 -0.22086290532E+02 -0.88794733592E+01 -0.32754640768E+02  0.40706119546E+02  0.41800000000E+01 0.  1.
        -11    1    1    2    0    0 -0.67236038080E+02  0.33797251304E+02  0.80645747571E+02  0.11030265461E+03  0.00000000000E+00 0. -1.
         11    1    1    2    0    0 -0.37706652133E+02  0.89162604417E+02  0.14066665446E+02  0.97824499581E+02  0.00000000000E+00 0.  1.
</event>
<event>
 7    1  0.2856214E-009  0.6339392E+02  0.7561462E-02  0.1384117E+00
          2   -1    0    0  501    0  0.00000000000E+00  0.00000000000E+00  0.38192025068E+03  0.38192025068E+03  0.00000000000E+00 0.  1.
         -2   -1    0    0    0  501 -0.00000000000E+00 -0.00000000000E+00 -0.31916038517E+02  0.31916038517E+02  0.00000000000E+00 0. -1.
         25    2    1    2    0    0 -0.22559024633E+02 -0.67986559404E+01  0.20078415432E+03  0.23773210963E+03  0.12508856065E+03 0.  0.
          5    1    3    3  502    0 -0.36094911278E+02 -0.76358734699E+01  0.21468188071E+03  0.21786906960E+03  0.41800000000E+01 0. -1.
         -5    1    3    3    0  502  0.13535886645E+02  0.83721752951E+00 -0.13897726385E+02  0.19863040028E+02  0.41800000000E+01 0. -1.
        -11    1    1    2    0    0  0.16528363127E+02 -0.32098934150E+02  0.20539509369E+02  0.41537932138E+02  0.00000000000E+00 0. -1.
         11    1    1    2    0    0  0.60306615061E+01  0.38897590090E+02  0.12868054847E+03  0.13456624743E+03  0.00000000000E+00 0.  1.
</event>
<event>
 7    1  0.2856214E-009  0.9526975E+02  0.7561462E-02  0.1290570E+00
         -1   -1    0    0    0  501 -0.00000000000E+00  0.00000000000E+00  0.35664011835E+02  0.35664011835E+02  0.00000000000E+00 0.  1.
          1   -1    0    0  501    0  0.00000000000E+00 -0.00000000000E+00 -0.36411405732E+03  0.36411405732E+03  0.00000000000E+00 0. -1.
         25    2    1    2    0    0 -0.21983855650E+02 -0.27085538505E+02 -0.17493728639E+03  0.21787240017E+03  0.12509361407E+03 0.  0.
          5    1    3    3  502    0  0.33383353552E+02 -0.22289326664E+02 -0.70399550375E+01  0.40967008000E+02  0.41800000000E+01 0.  1.
         -5    1    3    3    0  502 -0.55367209202E+02 -0.47962118414E+01 -0.16789733136E+03  0.17690539217E+03  0.41800000000E+01 0.  1.
        -11    1    1    2    0    0  0.26886867091E+02 -0.28190987755E+02 -0.86716417108E+02  0.95065095638E+02  0.00000000000E+00 0. -1.
         11    1    1    2    0    0 -0.49030114405E+01  0.55276526260E+02 -0.66796341979E+02  0.86840573342E+02  0.00000000000E+00 0.  1.
</event>
<event>
 7    1  0.2984458E-009  0.1184238E+03  0.7561462E-02  0.1245720E+00
         -2   -1    0    0    0  501 -0.00000000000E+00  0.00000000000E+00  0.17136293555E+02  0.17136293555E+02  0.00000000000E+00 0.  1.
          2   -1    0    0  501    0  0.00000000000E+00 -0.00000000000E+00 -0.10044150919E+04  0.10044150919E+04  0.00000000000E+00 0. -1.
         25    2    1    2    0    0 -0.44105701598E+02 -0.56111764438E+02 -0.48484195394E+03  0.50578067086E+03  0.12509405941E+03 0.  0.
          5    1    3    3  502    0 -0.39837880599E+02  0.21181131288E+02 -0.32486417806E+03  0.32800899933E+03  0.41800000000E+01 0. -1.
         -5    1    3    3    0  502 -0.42678209987E+01 -0.77292895726E+02 -0.15997777587E+03  0.17777167153E+03  0.41800000000E+01 0. -1.
        -11    1    1    2    0    0  0.30645662210E+02 -0.20081545553E+02 -0.11543712470E+03  0.12111215811E+03  0.00000000000E+00 0.  1.
         11    1    1    2    0    0  0.13460039388E+02  0.76193309991E+02 -0.38699971973E+03  0.39465855650E+03  0.00000000000E+00 0. -1.
</event>
<event>
 7    1  0.2856214E-009  0.6488627E+02  0.7561462E-02  0.1378400E+00
         -2   -1    0    0    0  501 -0.00000000000E+00  0.00000000000E+00  0.17224772689E+02  0.17224772689E+02  0.00000000000E+00 0. -1.
          2   -1    0    0  501    0  0.00000000000E+00 -0.00000000000E+00 -0.73060791476E+03  0.73060791476E+03  0.00000000000E+00 0.  1.
         25    2    1    2    0    0  0.73347032434E+01  0.24432394960E+02 -0.45686683284E+03  0.47436729874E+03  0.12508513650E+03 0.  0.
          5    1    3    3  502    0  0.40419015102E+01 -0.34747819808E+01  0.69361391312E+01  0.96950246869E+01  0.41800000000E+01 0. -1.
         -5    1    3    3    0  502  0.32928017332E+01  0.27907176941E+02 -0.46380297197E+03  0.46467227405E+03  0.41800000000E+01 0. -1.
        -11    1    1    2    0    0  0.37507393673E+02 -0.31765265170E+02 -0.14188060970E+03  0.15015306877E+03  0.00000000000E+00 0. -1.
         11    1    1    2    0    0 -0.44842096916E+02  0.73328702099E+01 -0.11463569953E+03  0.12331231994E+03  0.00000000000E+00 0.  1.
</event>
<event>
 7    1  0.2856214E-009  0.1229667E+03  0.7561462E-02  0.1238282E+00
          2   -1    0    0  501    0  0.00000000000E+00  0.00000000000E+00  0.82434141828E+03  0.82434141828E+03  0.00000000000E+00 0. -1.
         -2   -1    0    0    0  501 -0.00000000000E+00 -0.00000000000E+00 -0.19258544642E+02  0.19258544642E+02  0.00000000000E+00 0.  1.
         25    2    1    2    0    0 -0.55802393837E+02 -0.34635763418E+02  0.46241236309E+03  0.48351396513E+03  0.12508803968E+03 0.  0.
          5    1    3    3  502    0 -0.46260735821E+02 -0.78517661836E+02  0.36401732233E+03  0.37527478233E+03  0.41800000000E+01 0. -1.
         -5    1    3    3    0  502 -0.95416580163E+01  0.43881898418E+02  0.98395040766E+02  0.10823918280E+03  0.41800000000E+01 0. -1.
        -11    1    1    2    0    0  0.46865959579E+02 -0.22349502234E+02  0.13807503894E+03  0.14751486296E+03  0.00000000000E+00 0.  1.
         11    1    1    2    0    0  0.89364342584E+01  0.56985265652E+02  0.20459547161E+03  0.21257113483E+03  0.00000000000E+00 0. -1.
</event>
<event>
 7    1  0.2856214E-009  0.2317309E+03  0.7561462E-02  0.1125427E+00
         -2   -1    0    0    0  501 -0.00000000000E+00  0.00000000000E+00  0.26207947012E+03  0.26207947012E+03  0.00000000000E+00 0. -1.
          2   -1    0    0  501    0  0.00000000000E+00 -0.00000000000E+00 -0.20668375792E+03  0.20668375792E+03  0.00000000000E+00 0.  1.
         25    2    1    2    0    0  0.18478809694E+03  0.90599385520E+02  0.31003998228E+02  0.24282353773E+03  0.12508850123E+03 0.  0.
          5    1    3    3  502    0 -0.13052098288E+01  0.49996773467E+02  0.97260763468E+01  0.51121912043E+02  0.41800000000E+01 0. -1.
         -5    1    3    3    0  502  0.18609330677E+03  0.40602612053E+02  0.21277921881E+02  0.19170162569E+03  0.41800000000E+01 0. -1.
        -11    1    1    2    0    0 -0.93528934190E+02 -0.92407753249E+02  0.28644482441E+02  0.13456359376E+03  0.00000000000E+00 0. -1.
         11    1    1    2    0    0 -0.91259162754E+02  0.18083677289E+01 -0.42527684695E+01  0.91376096546E+02  0.00000000000E+00 0.  1.
</event>
<event>
 7    1  0.2856214E-009  0.9578544E+02  0.7561462E-02  0.1289417E+00
          2   -1    0    0  501    0  0.00000000000E+00  0.00000000000E+00  0.50781171701E+02  0.50781171701E+02  0.00000000000E+00 0. -1.
         -2   -1    0    0    0  501 -0.00000000000E+00 -0.00000000000E+00 -0.32644960948E+03  0.32644960948E+03  0.00000000000E+00 0.  1.
         25    2    1    2    0    0  0.32317886336E+02 -0.60028393873E+02 -0.16076952705E+03  0.21480670171E+03  0.12508886611E+03 0.  0.
          5    1    3    3  502    0 -0.49762912407E+01  0.16700707852E+02 -0.11786903781E+03  0.11922356978E+03  0.41800000000E+01 0. -1.
         -5    1    3    3    0  502  0.37294177577E+02 -0.76729101725E+02 -0.42900489241E+02  0.95583131931E+02  0.41800000000E+01 0. -1.
        -11    1    1    2    0    0 -0.17404156743E+01  0.57529748527E+02 -0.11829844151E+03  0.13155691649E+03  0.00000000000E+00 0.  1.
         11    1    1    2    0    0 -0.30577470662E+02  0.24986453466E+01  0.33995307849E+01  0.30867162977E+02  0.00000000000E+00 0. -1.
</event>
<event>
 7    1  0.2856214E-009  0.1213225E+03  0.7561462E-02  0.1240931E+00
         -2   -1    0    0    0  501 -0.00000000000E+00  0.00000000000E+00  0.75323873954E+02  0.75323873954E+02  0.00000000000E+00 0. -1.
          2   -1    0    0  501    0  0.00000000000E+00 -0.00000000000E+00 -0.38673692242E+03  0.38673692242E+03  0.00000000000E+00 0.  1.
         25    2    1    2    0    0  0.52078861993E+02 -0.94546196671E+02 -0.64280850077E+02  0.17728703272E+03  0.12508986016E+03 0.  0.
          5    1    3    3  502    0  0.45254236684E+01 -0.85657162365E+02 -0.88247564610E+02  0.12313705366E+03  0.41800000000E+01 0. -1.
         -5    1    3    3    0  502  0.47553438325E+02 -0.88890343060E+01  0.23966714533E+02  0.54149979066E+02  0.41800000000E+01 0. -1.
        -11    1    1    2    0    0 -0.11721568359E+02  0.28395472474E+02 -0.17892117243E+03  0.18153920779E+03  0.00000000000E+00 0.  1.
         11    1    1    2    0    0 -0.40357293634E+02  0.66150724197E+02 -0.68211025959E+02  0.10323455586E+03  0.00000000000E+00 0. -1.
</event>
<event>
 7    1  0.2856214E-009  0.1084256E+03  0.7561462E-02  0.1263514E+00
          1   -1    0    0  501    0  0.00000000000E+00  0.00000000000E+00  0.62827908076E+03  0.62827908076E+03  0.00000000000E+00 0. -1.
         -1   -1    0    0    0  501 -0.00000000000E+00 -0.00000000000E+00 -0.36456830945E+02  0.36456830945E+02  0.00000000000E+00 0.  1.
         25    2    1    2    0    0  0.55981767852E+02  0.84419956155E+02  0.24596087002E+03  0.29394975748E+03  0.12509605515E+03 0.  0.
          5    1    3    3  502    0  0.31206653430E+02  0.53669361224E+02  0.24650411243E+03  0.25423612134E+03  0.41800000000E+01 0. -1.
         -5    1    3    3    0  502  0.24775114423E+02  0.30750594931E+02 -0.54324240689E+00  0.39713636141E+02  0.41800000000E+01 0. -1.
        -11    1    1    2    0    0 -0.28334316226E+01 -0.53206218490E+02  0.69166888215E+02  0.87309727099E+02  0.00000000000E+00 0.  1.
         11    1    1    2    0    0 -0.53148336229E+02 -0.31213737665E+02  0.27669449158E+03  0.28347642712E+03  0.00000000000E+00 0. -1.
</event>
<event>
 7    1  0.2856214E-009  0.9917243E+02  0.7561462E-02  0.1282046E+00
          2   -1    0    0  501    0  0.00000000000E+00  0.00000000000E+00  0.96115402290E+01  0.96115402290E+01  0.00000000000E+00 0.  1.
         -2   -1    0    0    0  501 -0.00000000000E+00 -0.00000000000E+00 -0.14496123349E+04  0.14496123349E+04  0.00000000000E+00 0. -1.
         25    2    1    2    0    0  0.85137284508E+00 -0.32380273702E+02 -0.10181502590E+04  0.10263168568E+04  0.12508850298E+03 0.  0.
          5    1    3    3  502    0  0.44942116478E+02  0.63242531499E+01 -0.16612029308E+03  0.17225914833E+03  0.41800000000E+01 0.  1.
         -5    1    3    3    0  502 -0.44090743633E+02 -0.38704526852E+02 -0.85202996595E+03  0.85405770844E+03  0.41800000000E+01 0.  1.
        -11    1    1    2    0    0 -0.42607937038E+02  0.26482827345E+01 -0.24835619899E+03  0.25199851443E+03  0.00000000000E+00 0. -1.
         11    1    1    2    0    0  0.41756564192E+02  0.29731990967E+02 -0.17349433661E+03  0.18090850388E+03  0.00000000000E+00 0.  1.
</event>
<event>
 7    1  0.2856214E-009  0.9825256E+02  0.7561462E-02  0.1284014E+00
         -1   -1    0    0    0  501 -0.00000000000E+00  0.00000000000E+00  0.24609193911E+03  0.24609193911E+03  0.00000000000E+00 0.  1.
          1   -1    0    0  501    0  0.00000000000E+00 -0.00000000000E+00 -0.50510049268E+02  0.50510049268E+02  0.00000000000E+00 0. -1.
         25    2    1    2    0    0  0.21720361268E+02 -0.12259462662E+02  0.69702360389E+02  0.14535675229E+03  0.12509235738E+03 0.  0.
          5    1    3    3  502    0 -0.28006019092E+02 -0.51509763505E+02  0.54310321896E+02  0.80029221577E+02  0.41800000000E+01 0.  1.
         -5    1    3    3    0  502  0.49726380360E+02  0.39250300843E+02  0.15392038493E+02  0.65327530712E+02  0.41800000000E+01 0.  1.
        -11    1    1    2    0    0  0.24478624977E+02 -0.48814830630E+01  0.80412587480E+02  0.84197483234E+02  0.00000000000E+00 0.  1.
         11    1    1    2    0    0 -0.46198986245E+02  0.17140945725E+02  0.45466941968E+02  0.67047752851E+02  0.00000000000E+00 0. -1.
</event>
<event>
 7    1  0.2856214E-009  0.1290678E+03  0.7561462E-02  0.1228846E+00
         -1   -1    0    0    0  501 -0.00000000000E+00  0.00000000000E+00  0.37668461910E+02  0.37668461910E+02  0.00000000000E+00 0.  1.
          1   -1    0    0  501    0  0.00000000000E+00 -0.00000000000E+00 -0.65113715259E+03  0.65113715259E+03  0.00000000000E+00 0. -1.
         25    2    1    2    0    0  0.79810953402E+02  0.75572148677E+02 -0.30307882845E+03  0.34581330628E+03  0.12509647720E+03 0.  0.
          5    1    3    3  502    0  0.67145505762E+02  0.90787762953E+02 -0.13293665518E+03  0.17447224289E+03  0.41800000000E+01 0.  1.
         -5    1    3    3    0  502  0.12665447640E+02 -0.15215614276E+02 -0.17014217326E+03  0.17134106339E+03  0.41800000000E+01 0.  1.
        -11    1    1    2    0    0 -0.27941842661E+02  0.56748467987E+01 -0.17196311201E+03  0.17431082110E+03  0.00000000000E+00 0. -1.
         11    1    1    2    0    0 -0.51869110741E+02 -0.81246995476E+02 -0.13842675022E+03  0.16868148713E+03  0.00000000000E+00 0.  1.
</event>
<event>
 7    1  0.2980644E-009  0.7906833E+02  0.7561462E-02  0.1331716E+00
         -1   -1    0    0    0  501 -0.00000000000E+00  0.00000000000E+00  0.77461431311E+02  0.77461431311E+02  0.00000000000E+00 0.  1.
          1   -1    0    0  501    0  0.00000000000E+00 -0.00000000000E+00 -0.19808281076E+03  0.19808281076E+03  0.00000000000E+00 0. -1.
         25    2    1    2    0    0  0.22452820955E+02  0.21271881890E+02 -0.12377911891E+03  0.17867673467E+03  0.12508990010E+03 0.  0.
          5    1    3    3  502    0  0.10707836598E+02  0.61313678156E+02 -0.18060341954E+02  0.64943615892E+02  0.41800000000E+01 0.  1.
         -5    1    3    3    0  502  0.11744984357E+02 -0.40041796265E+02 -0.10571877696E+03  0.11373311878E+03  0.41800000000E+01 0.  1.
        -11    1    1    2    0    0  0.13490978606E+02 -0.58148742151E+01  0.40315358061E+02  0.42908593096E+02  0.00000000000E+00 0.  1.
         11    1    1    2    0    0 -0.35943799561E+02 -0.15457007675E+02 -0.37157618600E+02  0.53958914307E+02  0.00000000000E+00 0. -1.
</event>
<event>
 7    1  0.2856214E-009  0.1689344E+03  0.7561462E-02  0.1178964E+00
         -1   -1    0    0    0  501 -0.00000000000E+00  0.00000000000E+00  0.25428668874E+03  0.25428668874E+03  0.00000000000E+00 0.  1.
          1   -1    0    0  501    0  0.00000000000E+00 -0.00000000000E+00 -0.14140956027E+03  0.14140956027E+03  0.00000000000E+00 0. -1.
         25    2    1    2    0    0  0.29710564669E+02  0.15141807857E+03  0.73701128086E+02  0.21187149420E+03  0.12509005398E+03 0.  0.
          5    1    3    3  502    0 -0.16905488480E+02  0.12838237733E+03  0.10586808338E+02  0.12998993523E+03  0.41800000000E+01 0. -1.
         -5    1    3    3    0  502  0.46616053149E+02  0.23035701238E+02  0.63114319748E+02  0.81881558974E+02  0.41800000000E+01 0. -1.
        -11    1    1    2    0    0 -0.89190839111E+01 -0.10384998712E+03  0.67993951099E+02  0.12444897456E+03  0.00000000000E+00 0.  1.
         11    1    1    2    0    0 -0.20791480758E+02 -0.47568091453E+02 -0.28817950721E+02  0.59375780250E+02  0.00000000000E+00 0. -1.
</event>
<event>
 7    1  0.2856214E-009  0.8333391E+02  0.7561462E-02  0.1319848E+00
         -1   -1    0    0    0  501 -0.00000000000E+00  0.00000000000E+00  0.35605006507E+02  0.35605006507E+02  0.00000000000E+00 0.  1.
          1   -1    0    0  501    0  0.00000000000E+00 -0.00000000000E+00 -0.44976698086E+03  0.44976698086E+03  0.00000000000E+00 0. -1.
         25    2    1    2    0    0 -0.24561792290E+02  0.56515605810E+02 -0.26503679191E+03  0.29948189447E+03  0.12509040214E+03 0.  0.
          5    1    3    3  502    0  0.24241340432E+02  0.49174322436E+02 -0.23545853114E+03  0.24179319440E+03  0.41800000000E+01 0. -1.
         -5    1    3    3    0  502 -0.48803132722E+02  0.73412833737E+01 -0.29578260774E+02  0.57688700067E+02  0.41800000000E+01 0. -1.
        -11    1    1    2    0    0  0.12835210623E+02 -0.19660690249E+02  0.74311085449E+01  0.24627357694E+02  0.00000000000E+00 0.  1.
         11    1    1    2    0    0  0.11726581667E+02 -0.36854915561E+02 -0.15655629098E+03  0.16126273520E+03  0.00000000000E+00 0. -1.
</event>
<event>
 7    1  0.2856214E-009  0.1175658E+03  0.7561462E-02  0.1247168E+00
         -2   -1    0    0    0  501 -0.00000000000E+00  0.00000000000E+00  0.10846597290E+03  0.10846597290E+03  0.00000000000E+00 0. -1.
          2   -1    0    0  501    0  0.00000000000E+00 -0.00000000000E+00 -0.18048731071E+03  0.18048731071E+03  0.00000000000E+00 0.  1.
         25    2    1    2    0    0  0.66378981478E+02 -0.38541313758E+02 -0.83625533217E+02  0.16891596551E+03  0.12509105304E+03 0.  0.
          5    1    3    3  502    0  0.71310656091E+01  0.41810878527E+02 -0.74421851288E+01  0.43264999473E+02  0.41800000000E+01 0.  1.
         -5    1    3    3    0  502  0.59247915869E+02 -0.80352192285E+02 -0.76183348088E+02  0.12565096604E+03  0.41800000000E+01 0.  1.
        -11    1    1    2    0    0 -0.21530266273E+02 -0.12298918004E+02  0.39573295799E+02  0.46699694755E+02  0.00000000000E+00 0. -1.
         11    1    1    2    0    0 -0.44848715205E+02  0.50840231763E+02 -0.27969100397E+02  0.73337623348E+02  0.00000000000E+00 0.  1.
</event>
<event>
 7    1  0.2856214E-009  0.9720897E+02  0.7561462E-02  0.1286277E+00
         -2   -1    0    0    0  501 -0.00000000000E+00  0.00000000000E+00  0.85728652341E+02  0.85728652341E+02  0.00000000000E+00 0.  1.
          2   -1    0    0  501    0  0.00000000000E+00 -0.00000000000E+00 -0.24691466532E+03  0.24691466532E+03  0.00000000000E+00 0. -1.
         25    2    1    2    0    0 -0.82734286131E+02  0.20461956132E+02 -0.35832694016E+02  0.15554267655E+03  0.12508352616E+03 0.  0.
          5    1    3    3  502    0 -0.40194783090E+02 -0.17655508423E+02  0.40661277240E+02  0.59984576618E+02  0.41800000000E+01 0. -1.
         -5    1    3    3    0  502 -0.42539503042E+02  0.38117464555E+02 -0.76493971256E+02  0.95558099927E+02  0.41800000000E+01 0. -1.
        -11    1    1    2    0    0  0.10698782198E+02 -0.18035547667E+02  0.10394258037E+02  0.23404818314E+02  0.00000000000E+00 0.  1.
         11    1    1    2    0    0  0.72035503934E+02 -0.24264084651E+01 -0.13574757700E+03  0.15369582280E+03  0.00000000000E+00 0. -1.
</event>
<event>
 7    1  0.2856214E-009  0.9177852E+02  0.7561462E-02  0.1298601E+00
          2   -1    0    0  501    0  0.00000000000E+00  0.00000000000E+00  0.15987541725E+04  0.15987541725E+04  0.00000000000E+00 0. -1.
         -2   -1    0    0    0  501 -0.00000000000E+00 -0.00000000000E+00 -0.99516650870E+01  0.99516650870E+01  0.00000000000E+00 0.  1.
         25    2    1    2    0    0 -0.46692197336E+02 -0.43771282192E-01  0.11721832060E+04  0.11797631368E+04  0.12508967696E+03 0.  0.
          5    1    3    3  502    0  0.55494224382E+01  0.28057196958E+02  0.92775109655E+03  0.92820125617E+03  0.41800000000E+01 0. -1.
         -5    1    3    3    0  502 -0.52241619775E+02 -0.28100968240E+02  0.24443210944E+03  0.25156188061E+03  0.41800000000E+01 0. -1.
        -11    1    1    2    0    0  0.23604025511E+02  0.41494549796E+02  0.28634331005E+03  0.29029543382E+03  0.00000000000E+00 0. -1.
         11    1    1    2    0    0  0.23088171826E+02 -0.41450778513E+02  0.13027599138E+03  0.13864726700E+03  0.00000000000E+00 0.  1.
</event>
<event>
 7    1  0.2856214E-009  0.9992324E+02  0.7561462E-02  0.1280457E+00
         -1   -1    0    0    0  501 -0.00000000000E+00  0.00000000000E+00  0.30990443644E+03  0.30990443644E+03  0.00000000000E+00 0.  1.
          1   -1    0    0  501    0  0.00000000000E+00 -0.00000000000E+00 -0.41204797044E+02  0.41204797044E+02  0.00000000000E+00 0. -1.
         25    2    1    2    0    0  0.16065264015E+02  0.10574945055E+02  0.11471722514E+03  0.17081158999E+03  0.12508651151E+03 0.  0.
          5    1    3    3  502    0 -0.12433945275E+02 -0.43418940856E+02  0.55951280777E+01  0.45701042421E+02  0.41800000000E+01 0. -1.
         -5    1    3    3    0  502  0.28499209290E+02  0.53993885911E+02  0.10912209706E+03  0.12511054757E+03  0.41800000000E+01 0. -1.
        -11    1    1    2    0    0 -0.58742065201E+01 -0.51135323723E+02  0.94097615701E+02  0.10725525122E+03  0.00000000000E+00 0.  1.
         11    1    1    2    0    0 -0.10191057494E+02  0.40560378668E+02  0.59884798560E+02  0.73042392274E+02  0.00000000000E+00 0. -1.
</event>
<event>
 7    1  0.2856214E-009  0.8419087E+02  0.7561462E-02  0.1317562E+00
          2   -1    0    0  501    0  0.00000000000E+00  0.00000000000E+00  0.26153147823E+03  0.26153147823E+03  0.00000000000E+00 0. -1.
         -2   -1    0    0    0  501 -0.00000000000E+00 -0.00000000000E+00 -0.76409428605E+02  0.76409428605E+02  0.00000000000E+00 0.  1.
         25    2    1    2    0    0  0.25630558103E+02 -0.61374620121E+02  0.27807291319E+02  0.14437027780E+03  0.12508302106E+03 0.  0.
          5    1    3    3  502    0  0.50017562125E+02 -0.21066121549E+02 -0.35766558162E+02  0.65132611500E+02  0.41800000000E+01 0. -1.
         -5    1    3    3    0  502 -0.24387004022E+02 -0.40308498572E+02  0.63573849481E+02  0.79237666297E+02  0.41800000000E+01 0. -1.
        -11    1    1    2    0    0 -0.15950184863E+02  0.32611898169E+02  0.15908142037E+03  0.16317120643E+03  0.00000000000E+00 0. -1.
         11    1    1    2    0    0 -0.96803732401E+01  0.28762721952E+02 -0.17666620674E+01  0.30399422610E+02  0.00000000000E+00 0.  1.
</event>
<event>
 7    1  0.2856214E-009  0.1342145E+03  0.7561462E-02  0.1221333E+00
          2   -1    0    0  501    0  0.00000000000E+00  0.00000000000E+00  0.11126245460E+04  0.11126245460E+04  0.00000000000E+00 0. -1.
         -2   -1    0    0    0  501 -0.00000000000E+00 -0.00000000000E+00 -0.17459445011E+02  0.17459445011E+02  0.00000000000E+00 0.  1.
         25    2    1    2    0    0 -0.55318283592E+02  0.65878404911E+02  0.70112993696E+03  0.71737779650E+03  0.12509051798E+03 0.  0.
          5    1    3    3  502    0 -0.11703028268E+02  0.94459962457E+02  0.36638324366E+03  0.37856809033E+03  0.41800000000E+01 0. -1.
         -5    1    3    3    0  502 -0.43615255323E+02 -0.28581557546E+02  0.33474669330E+03  0.33880970618E+03  0.41800000000E+01 0. -1.
        -11    1    1    2    0    0 -0.12130867390E+02  0.12512553609E+02  0.86835862814E+02  0.88567426360E+02  0.00000000000E+00 0.  1.
         11    1    1    2    0    0  0.67449150982E+02 -0.78390958520E+02  0.30719930124E+03  0.32413876816E+03  0.00000000000E+00 0. -1.
</event>
<event>
 7    1  0.2856214E-009  0.1509386E+03  0.7561462E-02  0.1199324E+00
          1   -1    0    0  501    0  0.00000000000E+00  0.00000000000E+00  0.18774148319E+03  0.18774148319E+03  0.00000000000E+00 0. -1.
         -1   -1    0    0    0  501 -0.00000000000E+00 -0.00000000000E+00 -0.23137325070E+03  0.23137325070E+03  0.00000000000E+00 0.  1.
         25    2    1    2    0    0 -0.85562873982E+02  0.75201933396E+02  0.11404345732E+03  0.20402424949E+03  0.12507456988E+03 0.  0.
          5    1    3    3  502    0 -0.48962628777E+02 -0.22061729526E+02  0.62365085609E+01  0.54225689166E+02  0.41800000000E+01 0.  1.
         -5    1    3    3    0  502 -0.36600245205E+02  0.97263662922E+02  0.10780694876E+03  0.14979856032E+03  0.41800000000E+01 0.  1.
        -11    1    1    2    0    0 -0.44118529379E+01  0.15578262900E+02 -0.31879639536E+02  0.35755532974E+02  0.00000000000E+00 0.  1.
         11    1    1    2    0    0  0.89974726920E+02 -0.90780196296E+02 -0.12579558530E+03  0.17933495143E+03  0.00000000000E+00 0. -1.
</event>
<event>
 7    1  0.2856214E-009  0.2113509E+03  0.7561462E-02  0.1140501E+00
         -3   -1    0    0    0  501 -0.00000000000E+00  0.00000000000E+00  0.76995476587E+03  0.76995476587E+03  0.00000000000E+00 0.  1.
          3   -1    0    0  501    0  0.00000000000E+00 -0.00000000000E+00 -0.72638837123E+02  0.72638837123E+02  0.00000000000E+00 0. -1.
         25    2    1    2    0    0 -0.19266198779E+03 -0.12660900533E+02  0.50579172774E+03  0.55565383112E+03  0.12508784211E+03 0.  0.
          5    1    3    3  502    0 -0.11205134161E+03 -0.64136637413E+02  0.23102902041E+03  0.26469018132E+03  0.41800000000E+01 0. -1.
         -5    1    3    3    0  502 -0.80610646181E+02  0.51475736880E+02  0.27476270733E+03  0.29096364980E+03  0.41800000000E+01 0. -1.
        -11    1    1    2    0    0  0.30030955361E+02  0.18108000880E+02  0.86318344701E+02  0.93169815969E+02  0.00000000000E+00 0.  1.
         11    1    1    2    0    0  0.16263103242E+03 -0.54471003475E+01  0.10520585630E+03  0.19376995590E+03  0.00000000000E+00 0. -1.
</event>
<event>
 7    1  0.2856214E-009  0.1159250E+03  0.7561462E-02  0.1249975E+00
          1   -1    0    0  501    0  0.00000000000E+00  0.00000000000E+00  0.47211167365E+02  0.47211167365E+02  0.00000000000E+00 0. -1.
         -1   -1    0    0    0  501 -0.00000000000E+00 -0.00000000000E+00 -0.48744004214E+03  0.48744004214E+03  0.00000000000E+00 0.  1.
         25    2    1    2    0    0  0.37230098753E+02 -0.71211943848E+02 -0.35953596391E+03  0.38906468824E+03  0.12509197053E+03 0.  0.
          5    1    3    3  502    0 -0.42227136091E+02 -0.19592129431E+02 -0.18056158891E+03  0.18651257960E+03  0.41800000000E+01 0. -1.
         -5    1    3    3    0  502  0.79457234844E+02 -0.51619814417E+02 -0.17897437500E+03  0.20255210864E+03  0.41800000000E+01 0. -1.
        -11    1    1    2    0    0  0.20210021536E+01  0.40179789493E+02 -0.86320012548E+02  0.95234681181E+02  0.00000000000E+00 0.  1.
         11    1    1    2    0    0 -0.39251100907E+02  0.31032154355E+02  0.56271016841E+01  0.50351840082E+02  0.00000000000E+00 0. -1.
</event>
<event>
 7    1  0.2856214E-009  0.9983510E+02  0.7561462E-02  0.1280643E+00
         -1   -1    0    0    0  501 -0.00000000000E+00  0.00000000000E+00  0.20260899856E+03  0.20260899856E+03  0.00000000000E+00 0.  1.
          1   -1    0    0  501    0  0.00000000000E+00 -0.00000000000E+00 -0.65888417297E+02  0.65888417297E+02  0.00000000000E+00 0. -1.
         25    2    1    2    0    0 -0.89828507103E+01 -0.29353225045E+02  0.46897999143E+02  0.13707643388E+03  0.12509285741E+03 0.  0.
          5    1    3    3  502    0 -0.46340607745E+02  0.13434733083E+02  0.61499897647E+02  0.78279331817E+02  0.41800000000E+01 0. -1.
         -5    1    3    3    0  502  0.37357757035E+02 -0.42787958128E+02 -0.14601898504E+02  0.58797102066E+02  0.41800000000E+01 0. -1.
        -11    1    1    2    0    0  0.26716230372E+02 -0.25319965373E+02  0.23556674695E+02  0.43700967203E+02  0.00000000000E+00 0.  1.
         11    1    1    2    0    0 -0.17733379662E+02  0.54673190418E+02  0.66265907425E+02  0.87720014772E+02  0.00000000000E+00 0. -1.
</event>
<event>
 7    1  0.2856214E-009  0.1357334E+03  0.7561462E-02  0.1219188E+00
         -1   -1    0    0    0  501 -0.00000000000E+00  0.00000000000E+00  0.46762648534E+02  0.46762648534E+02  0.00000000000E+00 0.  1.
          1   -1    0    0  501    0  0.00000000000E+00 -0.00000000000E+00 -0.66356402629E+03  0.66356402629E+03  0.00000000000E+00 0. -1.
         25    2    1    2    0    0  0.12828025086E+03 -0.41166298220E+02 -0.39926270917E+03  0.43955563502E+03  0.12509180018E+03 0.  0.
          5    1    3    3  502    0  0.92078931973E+02 -0.38547071376E+02 -0.11243824147E+03  0.15041355314E+03  0.41800000000E+01 0. -1.
         -5    1    3    3    0  502  0.36201318887E+02 -0.26192268438E+01 -0.28682446770E+03  0.28914208188E+03  0.41800000000E+01 0. -1.
        -11    1    1    2    0    0 -0.10657815188E+03  0.30600216359E+02 -0.22014454193E+03  0.24649319472E+03  0.00000000000E+00 0. -1.
         11    1    1    2    0    0 -0.21702098983E+02  0.10566081862E+02  0.26058733476E+01  0.24277845087E+02  0.00000000000E+00 0.  1.
</event>
<event>
 7    1  0.2856214E-009  0.1266880E+03  0.7561462E-02  0.1232455E+00
         -1   -1    0    0    0  501 -0.00000000000E+00  0.00000000000E+00  0.18526386530E+02  0.18526386530E+02  0.00000000000E+00 0.  1.
          1   -1    0    0  501    0  0.00000000000E+00 -0.00000000000E+00 -0.86793277602E+03  0.86793277602E+03  0.00000000000E+00 0. -1.
         25    2    1    2    0    0 -0.64552070794E+02  0.89706688757E+01 -0.48782785829E+03  0.50780969848E+03  0.12508887961E+03 0.  0.
          5    1    3    3  502    0  0.30777901249E+02 -0.24878931248E+02 -0.13572465160E+03  0.14143865765E+03  0.41800000000E+01 0.  1.
         -5    1    3    3    0  502 -0.95329972042E+02  0.33849600124E+02 -0.35210320670E+03  0.36637104084E+03  0.41800000000E+01 0.  1.
        -11    1    1    2    0    0  0.16052160819E+02 -0.47660452872E+02 -0.16896972737E+03  0.17629509182E+03  0.00000000000E+00 0. -1.
         11    1    1    2    0    0  0.48499909974E+02  0.38689783996E+02 -0.19260880383E+03  0.20235437224E+03  0.00000000000E+00 0.  1.
</event>
<event>
 7    1  0.2856214E-009  0.9200872E+02  0.7561462E-02  0.1298059E+00
          1   -1    0    0  501    0  0.00000000000E+00  0.00000000000E+00  0.60660354681E+03  0.60660354681E+03  0.00000000000E+00 0. -1.
         -1   -1    0    0    0  501 -0.00000000000E+00 -0.00000000000E+00 -0.25237233445E+02  0.25237233445E+02  0.00000000000E+00 0.  1.
         25    2    1    2    0    0 -0.44990460369E+02 -0.23644890484E+02  0.39609909461E+03  0.41847769394E+03  0.12508343297E+03 0.  0.
          5    1    3    3  502    0 -0.67673573192E+01 -0.47552336300E+02  0.35195551391E+03  0.35524242143E+03  0.41800000000E+01 0. -1.
         -5    1    3    3    0  502 -0.38223103050E+02  0.23907445816E+02  0.44143580697E+02  0.63235272507E+02  0.41800000000E+01 0. -1.
        -11    1    1    2    0    0 -0.66929133607E+01 -0.21118404711E+02  0.83184391212E+01  0.23663865623E+02  0.00000000000E+00 0.  1.
         11    1    1    2    0    0  0.51683373730E+02  0.44763295195E+02  0.17694877963E+03  0.18969922069E+03  0.00000000000E+00 0. -1.
</event>
<event>
 7    1  0.2856214E-009  0.1352845E+03  0.7561462E-02  0.1219819E+00
          1   -1    0    0  501    0  0.00000000000E+00  0.00000000000E+00  0.67619556627E+02  0.67619556627E+02  0.00000000000E+00 0. -1.
         -1   -1    0    0    0  501 -0.00000000000E+00 -0.00000000000E+00 -0.32702653401E+03  0.32702653401E+03  0.00000000000E+00 0.  1.
         25    2    1    2    0    0  0.81006671757E+02 -0.63881528266E+02 -0.15551927410E+03  0.22466549774E+03  0.12508161630E+03 0.  0.
          5    1    3    3  502    0 -0.22507289805E+02  0.70210649049E+01 -0.66745565622E+02  0.70910622455E+02  0.41800000000E+01 0. -1.
         -5    1    3    3    0  502  0.10351396156E+03 -0.70902593171E+02 -0.88773708476E+02  0.15375487528E+03  0.41800000000E+01 0. -1.
        -11    1    1    2    0    0 -0.72985786518E+02  0.18897276866E+02 -0.98394734026E+02  0.12395787910E+03  0.00000000000E+00 0. -1.
         11    1    1    2    0    0 -0.80208852384E+01  0.44984251400E+02 -0.54929692560E+01  0.46022713797E+02  0.00000000000E+00 0.  1.
</event>
<event>
 7    1  0.2856214E-009  0.1042611E+03  0.7561462E-02  0.1271582E+00
         -2   -1    0    0    0  501 -0.00000000000E+00  0.00000000000E+00  0.64736934073E+02  0.64736934073E+02  0.00000000000E+00 0.  1.
          2   -1    0    0  501    0  0.00000000000E+00 -0.00000000000E+00 -0.26122898863E+03  0.26122898863E+03  0.00000000000E+00 0. -1.
         25    2    1    2    0    0  0.21930212366E+01  0.33783633184E+02 -0.31316026043E+02  0.13331975920E+03  0.12508925411E+03 0.  0.
          5    1    3    3  502    0 -0.48314885175E+02  0.35235848607E+02 -0.51224342690E+02  0.78849849972E+02  0.41800000000E+01 0. -1.
         -5    1    3    3    0  502  0.50507906412E+02 -0.14522154229E+01  0.19908316647E+02  0.54469909230E+02  0.41800000000E+01 0. -1.
        -11    1    1    2    0    0  0.15567280498E+01 -0.65710909120E+02 -0.95760442483E+02  0.11614822136E+03  0.00000000000E+00 0.  1.
         11    1    1    2    0    0 -0.37497492863E+01  0.31927275936E+02 -0.69415586035E+02  0.76497942149E+02  0.00000000000E+00 0. -1.
</event>
<event>
 7    1  0.2856214E-009  0.1127533E+03  0.7561462E-02  0.1255555E+00
          1   -1    0    0  501    0  0.00000000000E+00  0.00000000000E+00  0.60911096159E+02  0.60911096159E+02  0.00000000000E+00 0. -1.
         -1   -1    0    0    0  501 -0.00000000000E+00 -0.00000000000E+00 -0.21204599397E+03  0.21204599397E+03  0.00000000000E+00 0.  1.
         25    2    1    2    0    0  0.30191310783E+02  0.47858603619E+02 -0.10272701396E+03  0.17146832339E+03  0.12508631156E+03 0.  0.
          5    1    3    3  502    0  0.59766013460E+02  0.75079697829E+02 -0.63482053079E+02  0.11513635766E+03  0.41800000000E+01 0.  1.
         -5    1    3    3    0  502 -0.29574702677E+02 -0.27221094210E+02 -0.39244960884E+02  0.56331965732E+02  0.41800000000E+01 0.  1.
        -11    1    1    2    0    0 -0.15967961283E+02 -0.64904476263E+02 -0.33667948783E+02  0.74840481036E+02  0.00000000000E+00 0.  1.
         11    1    1    2    0    0 -0.14223349500E+02  0.17045872644E+02 -0.14739935061E+02  0.26648285701E+02  0.00000000000E+00 0. -1.
</event>
<event>
 7    1  0.3082291E-009  0.1143189E+03  0.7561462E-02  0.1252775E+00
          2   -1    0    0  501    0  0.00000000000E+00  0.00000000000E+00  0.55876520764E+03  0.55876520764E+03  0.00000000000E+00 0.  1.
         -2   -1    0    0    0  501 -0.00000000000E+00 -0.00000000000E+00 -0.39658110244E+02  0.39658110244E+02  0.00000000000E+00 0. -1.
         25    2    1    2    0    0 -0.64525530894E+02  0.44869819035E+02  0.40998978723E+03  0.43579383892E+03  0.12509116518E+03 0.  0.
          5    1    3    3  502    0  0.22700890783E+02  0.47172704732E+02  0.91083738409E+02  0.10513949932E+03  0.41800000000E+01 0.  1.
         -5    1    3    3    0  502 -0.87226421677E+02 -0.23028856971E+01  0.31890604882E+03  0.33065433960E+03  0.41800000000E+01 0.  1.
        -11    1    1    2    0    0  0.49240997411E+00 -0.20101027075E+02 -0.11993107670E+02  0.23412141907E+02  0.00000000000E+00 0. -1.
         11    1    1    2    0    0  0.64033120920E+02 -0.24768791960E+02  0.12111041784E+03  0.13921733706E+03  0.00000000000E+00 0.  1.
</event>
<event>
 7    1  0.3045375E-009  0.1299683E+03  0.7561462E-02  0.1227503E+00
         -1   -1    0    0    0  501 -0.00000000000E+00  0.00000000000E+00  0.11285415561E+03  0.11285415561E+03  0.00000000000E+00 0.  1.
          1   -1    0    0  501    0  0.00000000000E+00 -0.00000000000E+00 -0.25857815586E+03  0.25857815586E+03  0.00000000000E+00 0. -1.
         25    2    1    2    0    0 -0.88429745184E+02  0.46357029073E+02  0.15978486762E+02  0.16084755507E+03  0.12509128648E+03 0.  0.
          5    1    3    3  502    0 -0.74553278943E+02 -0.23272299692E+02 -0.20586855352E+02  0.80876958075E+02  0.41800000000E+01 0. -1.
         -5    1    3    3    0  502 -0.13876466241E+02  0.69629328765E+02  0.36565342114E+02  0.79970596993E+02  0.41800000000E+01 0. -1.
        -11    1    1    2    0    0  0.52543875545E+02 -0.52405104470E+02 -0.41567849534E+02  0.85059038007E+02  0.00000000000E+00 0.  1.
         11    1    1    2    0    0  0.35885869639E+02  0.60480753974E+01 -0.12013463748E+03  0.12552571839E+03  0.00000000000E+00 0. -1.
</event>
<event>
 7    1  0.2856214E-009  0.9974816E+02  0.7561462E-02  0.1280826E+00
         -2   -1    0    0    0  501 -0.00000000000E+00  0.00000000000E+00  0.39983676508E+02  0.39983676508E+02  0.00000000000E+00 0.  1.
          2   -1    0    0  501    0  0.00000000000E+00 -0.00000000000E+00 -0.58009805968E+03  0.58009805968E+03  0.00000000000E+00 0. -1.
         25    2    1    2    0    0 -0.16172925911E+02  0.35187811442E+02 -0.49381553368E+03  0.51088284290E+03  0.12509097593E+03 0.  0.
          5    1    3    3  502    0  0.11369266683E+02 -0.39695346393E+02 -0.27134094150E+03  0.27449655678E+03  0.41800000000E+01 0. -1.
         -5    1    3    3    0  502 -0.27542192594E+02  0.74883157835E+02 -0.22247459218E+03  0.23638628612E+03  0.41800000000E+01 0. -1.
        -11    1    1    2    0    0  0.21591951327E+02  0.15841930458E+02 -0.51065176695E+02  0.57661350952E+02  0.00000000000E+00 0. -1.
         11    1    1    2    0    0 -0.54190254156E+01 -0.51029741900E+02  0.47663272027E+01  0.51537542334E+02  0.00000000000E+00 0.  1.
</event>
<event>
 7    1  0.2856214E-009  0.1021070E+03  0.7561462E-02  0.1275927E+00
          2   -1    0    0  501    0  0.00000000000E+00  0.00000000000E+00  0.25235132852E+03  0.25235132852E+03  0.00000000000E+00 0. -1.
         -2   -1    0    0    0  501 -0.00000000000E+00 -0.00000000000E+00 -0.63658816702E+02  0.63658816702E+02  0.00000000000E+00 0.  1.
         25    2    1    2    0    0 -0.32839021173E+02  0.33257642937E+02  0.16263465542E+03  0.21043138258E+03  0.12508742344E+03 0.  0.
          5    1    3    3  502    0  0.43462938642E+02 -0.52428242203E+01  0.81004567170E+02  0.92172265587E+02  0.41800000000E+01 0. -1.
         -5    1    3    3    0  502 -0.76301959815E+02  0.38500467157E+02  0.81630088252E+02  0.11825911699E+03  0.41800000000E+01 0. -1.
        -11    1    1    2    0    0  0.33996887778E+02  0.67372078245E+01 -0.23508159484E+02  0.41878537585E+02  0.00000000000E+00 0.  1.
         11    1    1    2    0    0 -0.11578666055E+01 -0.39994850762E+02  0.49566015883E+02  0.63700225063E+02  0.00000000000E+00 0. -1.
</event>
<event>
 7    1  0.2856214E-009  0.2830265E+03  0.7561462E-02  0.1094047E+00
          2   -1    0    0  501    0  0.00000000000E+00  0.00000000000E+00  0.19830511522E+04  0.19830511522E+04  0.00000000000E+00 0. -1.
         -2   -1    0    0    0  501 -0.00000000000E+00 -0.00000000000E+00 -0.42162712764E+02  0.42162712764E+02  0.00000000000E+00 0.  1.
         25    2    1    2    0    0 -0.23713533630E+03 -0.11946488626E+03  0.11146460755E+04  0.11526440977E+04  0.12509002905E+03 0.  0.
          5    1    3    3  502    0 -0.20718009178E+03 -0.14338347065E+03  0.90238966860E+03  0.93691354803E+03  0.41800000000E+01 0. -1.
         -5    1    3    3    0  502 -0.29955244520E+02  0.23918584391E+02  0.21225640695E+03  0.21573054963E+03  0.41800000000E+01 0. -1.
        -11    1    1    2    0    0  0.13415924017E+03  0.26463182482E+02  0.49251289255E+03  0.51114376753E+03  0.00000000000E+00 0.  1.
         11    1    1    2    0    0  0.10297609613E+03  0.93001703779E+02  0.33372947136E+03  0.36142599980E+03  0.00000000000E+00 0. -1.
</event>
<event>
 7    1  0.2856214E-009  0.8816192E+02  0.7561462E-02  0.1307365E+00
          2   -1    0    0  501    0  0.00000000000E+00  0.00000000000E+00  0.74342003609E+03  0.74342003609E+03  0.00000000000E+00 0. -1.
         -2   -1    0    0    0  501 -0.00000000000E+00 -0.00000000000E+00 -0.17031433237E+02  0.17031433237E+02  0.00000000000E+00 0.  1.
         25    2    1    2    0    0  0.16731230231E+02 -0.13987629309E+02  0.45475466118E+03  0.47214956031E+03  0.12509123711E+03 0.  0.
          5    1    3    3  502    0  0.36688948782E+02  0.18707139339E+02  0.41399608990E+03  0.41606041734E+03  0.41800000000E+01 0.  1.
         -5    1    3    3    0  502 -0.19957718551E+02 -0.32694768648E+02  0.40758571279E+02  0.56089142973E+02  0.41800000000E+01 0.  1.
        -11    1    1    2    0    0 -0.34171157800E+02  0.47561283414E+02  0.15561296915E+03  0.16626827681E+03  0.00000000000E+00 0.  1.
         11    1    1    2    0    0  0.17439927569E+02 -0.33573654105E+02  0.11602097253E+03  0.12203363221E+03  0.00000000000E+00 0. -1.
</event>
<event>
 7    1  0.2856214E-009  0.1111412E+03  0.7561462E-02  0.1258471E+00
         -2   -1    0    0    0  501 -0.00000000000E+00  0.00000000000E+00  0.24097357135E+02  0.24097357135E+02  0.00000000000E+00 0.  1.
          2   -1    0    0  501    0  0.00000000000E+00 -0.00000000000E+00 -0.62269341623E+03  0.62269341623E+03  0.00000000000E+00 0. -1.
         25    2    1    2    0    0  0.24843364164E+02 -0.40602851517E+02 -0.24832908546E+03  0.28210158123E+03  0.12509269823E+03 0.  0.
          5    1    3    3  502    0  0.34367940368E+02  0.33188781501E+02 -0.15735772718E+03  0.16450403414E+03  0.41800000000E+01 0. -1.
         -5    1    3    3    0  502 -0.95245762041E+01 -0.73791633018E+02 -0.90971358276E+02  0.11759754709E+03  0.41800000000E+01 0. -1.
        -11    1    1    2    0    0  0.82511148023E+01  0.60583815361E+02 -0.24604920234E+03  0.25353242308E+03  0.00000000000E+00 0. -1.
         11    1    1    2    0    0 -0.33094478966E+02 -0.19980963844E+02 -0.10421777130E+03  0.11115676906E+03  0.00000000000E+00 0.  1.
</event>
<event>
 7    1  0.2856214E-009  0.5006418E+02  0.7561462E-02  0.1444996E+00
         -1   -1    0    0    0  501 -0.00000000000E+00  0.00000000000E+00  0.64944449922E+02  0.64944449922E+02  0.00000000000E+00 0.  1.
          1   -1    0    0  501    0  0.00000000000E+00 -0.00000000000E+00 -0.16993132749E+03  0.16993132749E+03  0.00000000000E+00 0. -1.
         25    2    1    2    0    0  0.30484491097E+02  0.21526082974E+01 -0.61462621554E+02  0.14268675778E+03  0.12509164271E+03 0.  0.
          5    1    3    3  502    0 -0.64926239237E+01 -0.77148619931E+01 -0.92557558554E+02  0.93198966231E+02  0.41800000000E+01 0. -1.
         -5    1    3    3    0  502  0.36977115021E+02  0.98674702906E+01  0.31094937000E+02  0.49487791547E+02  0.41800000000E+01 0. -1.
        -11    1    1    2    0    0 -0.14357673289E+02 -0.21295725545E+02 -0.57888008882E+02  0.63329868791E+02  0.00000000000E+00 0. -1.
         11    1    1    2    0    0 -0.16126817808E+02  0.19143117247E+02  0.14363752872E+02  0.28859150839E+02  0.00000000000E+00 0.  1.
</event>
<event>
 7    1  0.2856214E-009  0.1540235E+03  0.7561462E-02  0.1195614E+00
          1   -1    0    0  501    0  0.00000000000E+00  0.00000000000E+00  0.13155940524E+03  0.13155940524E+03  0.00000000000E+00 0. -1.
         -1   -1    0    0    0  501 -0.00000000000E+00 -0.00000000000E+00 -0.28911693433E+03  0.28911693433E+03  0.00000000000E+00 0.  1.
         25    2    1    2    0    0  0.37398056172E+02 -0.13345428681E+03 -0.68291441888E+01  0.18683176477E+03  0.12510319678E+03 0.  0.
          5    1    3    3  502    0  0.37916426307E+02 -0.53903985195E+02  0.55040400600E+02  0.85966348661E+02  0.41800000000E+01 0. -1.
         -5    1    3    3    0  502 -0.51837013562E+00 -0.79550301618E+02 -0.61869544789E+02  0.10086541611E+03  0.41800000000E+01 0. -1.
        -11    1    1    2    0    0 -0.62413592457E+02  0.68118606232E+02 -0.13253206653E+03  0.16155602650E+03  0.00000000000E+00 0.  1.
         11    1    1    2    0    0  0.25015536285E+02  0.65335680581E+02 -0.18196318366E+02  0.72288548296E+02  0.00000000000E+00 0. -1.
</event>
<event>
 7    1  0.2856214E-009  0.1202777E+03  0.7561462E-02  0.1242640E+00
          1   -1    0    0  501    0  0.00000000000E+00  0.00000000000E+00  0.20314206787E+04  0.20314206787E+04  0.00000000000E+00 0. -1.
         -1   -1    0    0    0  501 -0.00000000000E+00 -0.00000000000E+00 -0.19467506487E+02  0.19467506487E+02  0.00000000000E+00 0.  1.
         25    2    1    2    0    0 -0.31214147223E+02 -0.85057399782E+01  0.18397085361E+04  0.18442401546E+04  0.12509028515E+03 0.  0.
          5    1    3    3  502    0  0.47520989335E+02 -0.26063566116E+01  0.87152880548E+03  0.87283730942E+03  0.41800000000E+01 0. -1.
         -5    1    3    3    0  502 -0.78735136558E+02 -0.58993833666E+01  0.96817973066E+03  0.97140284523E+03  0.41800000000E+01 0. -1.
        -11    1    1    2    0    0  0.69625964889E+02 -0.11233674582E+02  0.11564321394E+03  0.13545229183E+03  0.00000000000E+00 0. -1.
         11    1    1    2    0    0 -0.38411817666E+02  0.19739414560E+02  0.56601422113E+02  0.71195738698E+02  0.00000000000E+00 0.  1.
</event>
<event>
 7    1  0.2856214E-009  0.1587476E+03  0.7561462E-02  0.1190118E+00
          3   -1    0    0  501    0  0.00000000000E+00  0.00000000000E+00  0.42994423132E+03  0.42994423132E+03  0.00000000000E+00 0. -1.
         -3   -1    0    0    0  501 -0.00000000000E+00 -0.00000000000E+00 -0.73552414508E+02  0.73552414508E+02  0.00000000000E+00 0.  1.
         25    2    1    2    0    0  0.87058598745E+02 -0.10544763919E+03  0.23087525161E+03  0.29605488696E+03  0.12508681009E+03 0.  0.
          5    1    3    3  502    0  0.78814428848E+02 -0.44178645278E+02  0.46816934125E+02  0.10184677027E+03  0.41800000000E+01 0. -1.
         -5    1    3    3    0  502  0.82441698974E+01 -0.61268993915E+02  0.18405831749E+03  0.19420811669E+03  0.41800000000E+01 0. -1.
        -11    1    1    2    0    0 -0.11768512138E+02  0.86700301946E+02  0.63398371365E+02  0.10804995940E+03  0.00000000000E+00 0.  1.
         11    1    1    2    0    0 -0.75290086607E+02  0.18747337248E+02  0.62118193833E+02  0.99391799462E+02  0.00000000000E+00 0. -1.
</event>
<event>
 7    1  0.2856214E-009  0.1479275E+03  0.7561462E-02  0.1203043E+00
          1   -1    0    0  501    0  0.00000000000E+00  0.00000000000E+00  0.10116528973E+03  0.10116528973E+03  0.00000000000E+00 0. -1.
         -1   -1    0    0    0  501 -0.00000000000E+00 -0.00000000000E+00 -0.27429513399E+03  0.27429513399E+03  0.00000000000E+00 0.  1.
         25    2    1    2    0    0 -0.39706463024E+02 -0.11766693313E+03 -0.11718732048E+03  0.21166766594E+03  0.12509285497E+03 0.  0.
          5    1    3    3  502    0  0.27569754323E+02  0.80407862541E+01 -0.34335696358E+01  0.29223404960E+02  0.41800000000E+01 0. -1.
         -5    1    3    3    0  502 -0.67276217347E+02 -0.12570771938E+03 -0.11375375085E+03  0.18244426098E+03  0.41800000000E+01 0. -1.
        -11    1    1    2    0    0  0.33412310409E+02  0.97270296746E+02  0.11342165140E+01  0.10285513873E+03  0.00000000000E+00 0. -1.
         11    1    1    2    0    0  0.62941526151E+01  0.20396636384E+02 -0.57076740295E+02  0.60937619051E+02  0.00000000000E+00 0.  1.
</event>
<event>
 7    1  0.2856214E-009  0.1668714E+03  0.7561462E-02  0.1181150E+00
          2   -1    0    0  501    0  0.00000000000E+00  0.00000000000E+00  0.44362266539E+03  0.44362266539E+03  0.00000000000E+00 0. -1.
         -2   -1    0    0    0  501 -0.00000000000E+00 -0.00000000000E+00 -0.82515720590E+02  0.82515720590E+02  0.00000000000E+00 0.  1.
         25    2    1    2    0    0 -0.38646231836E+02  0.14656673518E+03  0.24169374114E+03  0.31150576413E+03  0.12507852527E+03 0.  0.
          5    1    3    3  502    0 -0.20810491815E+02  0.13859568440E+03  0.10974760292E+03  0.17805574703E+03  0.41800000000E+01 0. -1.
         -5    1    3    3    0  502 -0.17835740021E+02  0.79710507735E+01  0.13194613822E+03  0.13345001709E+03  0.41800000000E+01 0. -1.
        -11    1    1    2    0    0  0.56767470191E+02 -0.51091788735E+02  0.77474636401E+02  0.10878987009E+03  0.00000000000E+00 0.  1.
         11    1    1    2    0    0 -0.18121238355E+02 -0.95474946441E+02  0.41938567267E+02  0.10584275177E+03  0.00000000000E+00 0. -1.
</event>
<event>
 7    1  0.2856214E-009  0.1391051E+03  0.7561462E-02  0.1214538E+00
         -2   -1    0    0    0  501 -0.00000000000E+00  0.00000000000E+00  0.21815029095E+02  0.21815029095E+02  0.00000000000E+00 0.  1.
          2   -1    0    0  501    0  0.00000000000E+00 -0.00000000000E+00 -0.99284147677E+03  0.99284147677E+03  0.00000000000E+00 0. -1.
         25    2    1    2    0    0  0.80475465303E+02 -0.57333672670E+02 -0.47154743258E+03  0.49776289404E+03  0.12508983562E+03 0.  0.
          5    1    3    3  502    0  0.81335574032E+02 -0.87784286717E+02 -0.42812582781E+03  0.44455680563E+03  0.41800000000E+01 0. -1.
         -5    1    3    3    0  502 -0.86010872960E+00  0.30450614047E+02 -0.43421604773E+02  0.53206088411E+02  0.41800000000E+01 0. -1.
        -11    1    1    2    0    0 -0.80669324291E+02  0.11038956930E+02 -0.38285129779E+03  0.39141348299E+03  0.00000000000E+00 0. -1.
         11    1    1    2    0    0  0.19385898865E+00  0.46294715740E+02 -0.11662771731E+03  0.12548012883E+03  0.00000000000E+00 0.  1.
</event>
<event>
 7    1  0.2856214E-009  0.8175906E+02  0.7561462E-02  0.1324132E+00
         -2   -1    0    0    0  501 -0.00000000000E+00  0.00000000000E+00  0.14238268552E+02  0.14238268552E+02  0.00000000000E+00 0.  1.
          2   -1    0    0  501    0  0.00000000000E+00 -0.00000000000E+00 -0.10520377028E+04  0.10520377028E+04  0.00000000000E+00 0. -1.
         25    2    1    2    0    0  0.20048413321E+02  0.24812712753E+02 -0.76221677260E+03  0.77307156952E+03  0.12509050159E+03 0.  0.
          5    1    3    3  502    0  0.25700302125E+01  0.46683625380E+02 -0.72396296439E+03  0.72548315773E+03  0.41800000000E+01 0.  1.
         -5    1    3    3    0  502  0.17478383108E+02 -0.21870912627E+02 -0.38253808203E+02  0.47588411796E+02  0.41800000000E+01 0.  1.
        -11    1    1    2    0    0 -0.34019826589E+02  0.21266033395E+02 -0.19699566089E+03  0.20103950653E+03  0.00000000000E+00 0.  1.
         11    1    1    2    0    0  0.13971413269E+02 -0.46078746149E+02 -0.78587000743E+02  0.92164895275E+02  0.00000000000E+00 0. -1.
</event>
<event>
 7    1  0.2856214E-009  0.1001623E+03  0.7561462E-02  0.1279955E+00
          3   -1    0    0  501    0  0.00000000000E+00  0.00000000000E+00  0.27493570179E+03  0.27493570179E+03  0.00000000000E+00 0. -1.
         -3   -1    0    0    0  501 -0.00000000000E+00 -0.00000000000E+00 -0.49027064560E+02  0.49027064560E+02  0.00000000000E+00 0.  1.
         25    2    1    2    0    0  0.37823801876E+02  0.20406008837E+02  0.12723819166E+03  0.18353386965E+03  0.12509228077E+03 0.  0.
          5    1    3    3  502    0  0.47720475104E+02 -0.45156740469E+02  0.63410474576E+02  0.91404243008E+02  0.41800000000E+01 0.  1.
         -5    1    3    3    0  502 -0.98966732281E+01  0.65562749306E+02  0.63827717082E+02  0.92129626643E+02  0.41800000000E+01 0.  1.
        -11    1    1    2    0    0 -0.20381101861E+02 -0.38100445984E+02  0.49745627877E+01  0.43494592448E+02  0.00000000000E+00 0.  1.
         11    1    1    2    0    0 -0.17442700015E+02  0.17694437148E+02  0.93695882785E+02  0.96934304251E+02  0.00000000000E+00 0. -1.
</event>
<event>
 7    1  0.2856214E-009  0.1251939E+03  0.7561462E-02  0.1234767E+00
          1   -1    0    0  501    0  0.00000000000E+00  0.00000000000E+00  0.15112446438E+03  0.15112446438E+03  0.00000000000E+00 0. -1.
         -1   -1    0    0    0  501 -0.00000000000E+00 -0.00000000000E+00 -0.12456664882E+03  0.12456664882E+03  0.00000000000E+00 0.  1.
         25    2    1    2    0    0  0.61653475527E+02  0.47045331550E+02  0.34122094818E+01  0.14721982467E+03  0.12509044463E+03 0.  0.
          5    1    3    3  502    0  0.89636352357E+02  0.38646706302E+02 -0.30415494282E+02  0.10232701630E+03  0.41800000000E+01 0. -1.
         -5    1    3    3    0  502 -0.27982876830E+02  0.83986252483E+01  0.33827703764E+02  0.44892808374E+02  0.41800000000E+01 0. -1.
        -11    1    1    2    0    0 -0.17597897605E+02  0.29791705045E+02  0.19737642809E+02  0.39834736516E+02  0.00000000000E+00 0. -1.
         11    1    1    2    0    0 -0.44055577922E+02 -0.76837036596E+02  0.34079632727E+01  0.88636552012E+02  0.00000000000E+00 0.  1.
</event>
<event>
 7    1  0.2856214E-009  0.1024333E+03  0.7561462E-02  0.1275261E+00
          1   -1    0    0  501    0  0.00000000000E+00  0.00000000000E+00  0.30024480552E+03  0.30024480552E+03  0.00000000000E+00 0. -1.
         -1   -1    0    0    0  501 -0.00000000000E+00 -0.00000000000E+00 -0.56496390361E+02  0.56496390361E+02  0.00000000000E+00 0.  1.
         25    2    1    2    0    0  0.58370094517E+02  0.21550411004E+02  0.86605081407E+02  0.16437516369E+03  0.12508903295E+03 0.  0.
          5    1    3    3  502    0 -0.17643170776E+02  0.68354180093E+01 -0.23026769832E+02  0.30094998643E+02  0.41800000000E+01 0. -1.
         -5    1    3    3    0  502  0.76013265294E+02  0.14714992995E+02  0.10963185124E+03  0.13428016505E+03  0.41800000000E+01 0. -1.
        -11    1    1    2    0    0 -0.65611954247E+02  0.17765689722E+02  0.76360657913E+02  0.10223256990E+03  0.00000000000E+00 0. -1.
         11    1    1    2    0    0  0.72418597292E+01 -0.39316100726E+02  0.80782675837E+02  0.90133462288E+02  0.00000000000E+00 0.  1.
</event>
<event>
 7    1  0.2856214E-009  0.1113140E+03  0.7561462E-02  0.1258156E+00
         -1   -1    0    0    0  501 -0.00000000000E+00  0.00000000000E+00  0.49031449649E+03  0.49031449649E+03  0.00000000000E+00 0.  1.
          1   -1    0    0  501    0  0.00000000000E+00 -0.00000000000E+00 -0.34482486161E+02  0.34482486161E+02  0.00000000000E+00 0. -1.
         25    2    1    2    0    0  0.63139169207E+02 -0.13371369368E+02  0.18838927889E+03  0.23516788013E+03  0.12509221894E+03 0.  0.
          5    1    3    3  502    0  0.31413702319E+01 -0.44402815202E+02  0.15177109672E+03  0.15821951967E+03  0.41800000000E+01 0. -1.
         -5    1    3    3    0  502  0.59997798975E+02  0.31031445834E+02  0.36618182169E+02  0.76948360462E+02  0.41800000000E+01 0. -1.
        -11    1    1    2    0    0 -0.19260931669E+02  0.49683564241E+02  0.14804182814E+03  0.15733983260E+03  0.00000000000E+00 0.  1.
         11    1    1    2    0    0 -0.43878237539E+02 -0.36312194873E+02  0.11940090330E+03  0.13228926992E+03  0.00000000000E+00 0. -1.
</event>
<event>
 7    1  0.2856214E-009  0.1209282E+03  0.7561462E-02  0.1241574E+00
         -1   -1    0    0    0  501 -0.00000000000E+00  0.00000000000E+00  0.30963185673E+02  0.30963185673E+02  0.00000000000E+00 0.  1.
          1   -1    0    0  501    0  0.00000000000E+00 -0.00000000000E+00 -0.72843163747E+03  0.72843163747E+03  0.00000000000E+00 0. -1.
         25    2    1    2    0    0  0.32582422005E+02 -0.93177467663E+02 -0.29071824288E+03  0.33152393326E+03  0.12508943551E+03 0.  0.
          5    1    3    3  502    0  0.13216716110E+01 -0.10387734822E+03 -0.27633367876E+03  0.29524570226E+03  0.41800000000E+01 0.  1.
         -5    1    3    3    0  502  0.31260750394E+02  0.10699880558E+02 -0.14384564120E+02  0.36278230994E+02  0.41800000000E+01 0.  1.
        -11    1    1    2    0    0 -0.86050616357E+01  0.72237142367E+02 -0.37812526705E+03  0.38505969589E+03  0.00000000000E+00 0. -1.
         11    1    1    2    0    0 -0.23977360369E+02  0.20940325296E+02 -0.28624941871E+02  0.42811193990E+02  0.00000000000E+00 0.  1.
</event>
<event>
 7    1  0.2856214E-009  0.2157490E+03  0.7561462E-02  0.1137093E+00
         -2   -1    0    0    0  501 -0.00000000000E+00  0.00000000000E+00  0.30359288200E+03  0.30359288200E+03  0.00000000000E+00 0.  1.
          2   -1    0    0  501    0  0.00000000000E+00 -0.00000000000E+00 -0.21560786932E+03  0.21560786932E+03  0.00000000000E+00 0. -1.
         25    2    1    2    0    0 -0.18906697073E+03 -0.49742267235E+02  0.17074600136E+03  0.28813778396E+03  0.12509425643E+03 0.  0.
          5    1    3    3  502    0 -0.12975929621E+03 -0.77176363810E+02  0.66482400104E+02  0.16501832628E+03  0.41800000000E+01 0. -1.
         -5    1    3    3    0  502 -0.59307674514E+02  0.27434096575E+02  0.10426360126E+03  0.12311945768E+03  0.41800000000E+01 0. -1.
        -11    1    1    2    0    0  0.65442833533E+01 -0.18885503807E+02 -0.13546027429E+02  0.24145077299E+02  0.00000000000E+00 0. -1.
         11    1    1    2    0    0  0.18252268738E+03  0.68627771043E+02 -0.69214961258E+02  0.20691789006E+03  0.00000000000E+00 0.  1.
</event>
<event>
 7    1  0.2856214E-009  0.6984141E+02  0.7561462E-02  0.1360633E+00
          1   -1    0    0  501    0  0.00000000000E+00  0.00000000000E+00  0.50129852676E+03  0.50129852676E+03  0.00000000000E+00 0. -1.
         -1   -1    0    0    0  501 -0.00000000000E+00 -0.00000000000E+00 -0.26698071691E+02  0.26698071691E+02  0.00000000000E+00 0.  1.
         25    2    1    2    0    0 -0.24948289475E+02 -0.12519381268E+02  0.34557371377E+03  0.36857723186E+03  0.12509529225E+03 0.  0.
          5    1    3    3  502    0  0.25189409590E+02 -0.11390244889E+02  0.29805447680E+03  0.29936296961E+03  0.41800000000E+01 0. -1.
         -5    1    3    3    0  502 -0.50137699065E+02 -0.11291363793E+01  0.47519236972E+02  0.69214262251E+02  0.41800000000E+01 0. -1.
        -11    1    1    2    0    0 -0.17018660448E+02  0.90857940641E+01 -0.41595243118E+01  0.19735452863E+02  0.00000000000E+00 0.  1.
         11    1    1    2    0    0  0.41966949924E+02  0.34335872043E+01  0.13318626561E+03  0.13968391372E+03  0.00000000000E+00 0. -1.
</event>
<event>
 7    1  0.2856214E-009  0.9714635E+02  0.7561462E-02  0.1286414E+00
         -1   -1    0    0    0  501 -0.00000000000E+00  0.00000000000E+00  0.25708314365E+03  0.25708314365E+03  0.00000000000E+00 0. -1.
          1   -1    0    0  501    0  0.00000000000E+00 -0.00000000000E+00 -0.66940212701E+02  0.66940212701E+02  0.00000000000E+00 0.  1.
         25    2    1    2    0    0 -0.90984853846E+00  0.36217799553E+02  0.20396737986E+03  0.24199697402E+03  0.12508911447E+03 0.  0.
          5    1    3    3  502    0 -0.13321971080E+02 -0.42522389124E+02  0.10967229545E+03  0.11845300030E+03  0.41800000000E+01 0. -1.
         -5    1    3    3    0  502  0.12412122541E+02  0.78740188677E+02  0.94295084403E+02  0.12354397372E+03  0.41800000000E+01 0. -1.
        -11    1    1    2    0    0  0.20156841279E+02 -0.44430294351E+02  0.10534627188E+02  0.49913201424E+02  0.00000000000E+00 0. -1.
         11    1    1    2    0    0 -0.19246992741E+02  0.82124947976E+01 -0.24359076092E+02  0.32113180914E+02  0.00000000000E+00 0.  1.
</event>
<event>
 7    1  0.2856214E-009  0.1528287E+03  0.7561462E-02  0.1197040E+00
         -1   -1    0    0    0  501 -0.00000000000E+00  0.00000000000E+00  0.73304439290E+02  0.73304439290E+02  0.00000000000E+00 0.  1.
          1   -1    0    0  501    0  0.00000000000E+00 -0.00000000000E+00 -0.37435144989E+03  0.37435144989E+03  0.00000000000E+00 0. -1.
         25    2    1    2    0    0  0.12178272082E+03 -0.19867713860E+02 -0.14639904450E+03  0.22870512958E+03  0.12509036303E+03 0.  0.
          5    1    3    3  502    0  0.58971992815E+02  0.52682909465E+02 -0.74487724761E+02  0.10871558502E+03  0.41800000000E+01 0.  1.
         -5    1    3    3    0  502  0.62810728008E+02 -0.72550623325E+02 -0.71911319734E+02  0.11998954456E+03  0.41800000000E+01 0.  1.
        -11    1    1    2    0    0 -0.96189894129E+02  0.32946236530E+02 -0.16013860910E+03  0.18969007448E+03  0.00000000000E+00 0. -1.
         11    1    1    2    0    0 -0.25592826694E+02 -0.13078522670E+02  0.54906429865E+01  0.29260685122E+02  0.00000000000E+00 0.  1.
</event>
<event>
 7    1  0.2856214E-009  0.1505552E+03  0.7561462E-02  0.1199792E+00
         -1   -1    0    0    0  501 -0.00000000000E+00  0.00000000000E+00  0.15896304776E+03  0.15896304776E+03  0.00000000000E+00 0.  1.
          1   -1    0    0  501    0  0.00000000000E+00 -0.00000000000E+00 -0.15305036193E+03  0.15305036193E+03  0.00000000000E+00 0. -1.
         25    2    1    2    0    0  0.67027993139E+02 -0.85772044438E+02 -0.22828853075E+02  0.16738252672E+03  0.12508460436E+03 0.  0.
          5    1    3    3  502    0  0.30426949011E+02 -0.11194834445E+03  0.14248519737E+01  0.11609364175E+03  0.41800000000E+01 0. -1.
         -5    1    3    3    0  502  0.36601044129E+02  0.26176300009E+02 -0.24253705049E+02  0.51288884976E+02  0.41800000000E+01 0. -1.
        -11    1    1    2    0    0 -0.88488228391E+02  0.63571493161E+02  0.12298503813E+02  0.10964832193E+03  0.00000000000E+00 0. -1.
         11    1    1    2    0    0  0.21460235252E+02  0.22200551277E+02  0.16443035093E+02  0.34982561043E+02  0.00000000000E+00 0.  1.
</event>
<event>
 7    1  0.2856214E-009  0.1050894E+03  0.7561462E-02  0.1269944E+00
         -1   -1    0    0    0  501 -0.00000000000E+00  0.00000000000E+00  0.23758010701E+02  0.23758010701E+02  0.00000000000E+00 0.  1.
          1   -1    0    0  501    0  0.00000000000E+00 -0.00000000000E+00 -0.48255912310E+03  0.48255912310E+03  0.00000000000E+00 0. -1.
         25    2    1    2    0    0  0.87211063095E+01  0.57097396388E+01 -0.23832883467E+03  0.26936164245E+03  0.12508557937E+03 0.  0.
          5    1    3    3  502    0  0.15383205427E+01  0.65131225438E+02 -0.13241879007E+03  0.14763689011E+03  0.41800000000E+01 0.  1.
         -5    1    3    3    0  502  0.71827857668E+01 -0.59421485799E+02 -0.10591004460E+03  0.12172475235E+03  0.41800000000E+01 0.  1.
        -11    1    1    2    0    0 -0.46698925289E+02 -0.20899991382E+01 -0.96143114483E+02  0.10690489316E+03  0.00000000000E+00 0.  1.
         11    1    1    2    0    0  0.37977818979E+02 -0.36197405006E+01 -0.12432916325E+03  0.13005059819E+03  0.00000000000E+00 0. -1.
</event>
<event>
 7    1  0.2856214E-009  0.2247532E+03  0.7561462E-02  0.1130388E+00
          2   -1    0    0  501    0  0.00000000000E+00  0.00000000000E+00  0.11064063574E+04  0.11064063574E+04  0.00000000000E+00 0. -1.
         -2   -1    0    0    0  501 -0.00000000000E+00 -0.00000000000E+00 -0.56152485251E+02  0.56152485251E+02  0.00000000000E+00 0.  1.
         25    2    1    2    0    0  0.21354929260E+03  0.96352775156E+01  0.68165905128E+03  0.72526012326E+03  0.12508814998E+03 0.  0.
          5    1    3    3  502    0  0.45540927168E+00  0.15889060209E+02  0.17215468223E+03  0.17293749346E+03  0.41800000000E+01 0.  1.
         -5    1    3    3    0  502  0.21309388333E+03 -0.62537826938E+01  0.50950436905E+03  0.55232262980E+03  0.41800000000E+01 0.  1.
        -11    1    1    2    0    0 -0.18462254919E+03 -0.26259078457E+02  0.23715715180E+03  0.30169278997E+03  0.00000000000E+00 0.  1.
         11    1    1    2    0    0 -0.28926743414E+02  0.16623800942E+02  0.13143766908E+03  0.13560592942E+03  0.00000000000E+00 0. -1.
</event>
<event>
 7    1  0.2856214E-009  0.1135703E+03  0.7561462E-02  0.1254098E+00
         -1   -1    0    0    0  501 -0.00000000000E+00  0.00000000000E+00  0.12686727868E+03  0.12686727868E+03  0.00000000000E+00 0.  1.
          1   -1    0    0  501    0  0.00000000000E+00 -0.00000000000E+00 -0.16536230552E+03  0.16536230552E+03  0.00000000000E+00 0. -1.
         25    2    1    2    0    0  0.34701028384E+02 -0.47002348911E+02 -0.98868984565E+02  0.16981224777E+03  0.12509093177E+03 0.  0.
          5    1    3    3  502    0  0.76462795249E+02 -0.48962564235E+02 -0.44787945537E+02  0.10132780576E+03  0.41800000000E+01 0.  1.
         -5    1    3    3    0  502 -0.41761766865E+02  0.19602153240E+01 -0.54081039028E+02  0.68484442015E+02  0.41800000000E+01 0.  1.
        -11    1    1    2    0    0 -0.47499548240E+02  0.21047168965E+01  0.58916258691E+02  0.75708404120E+02  0.00000000000E+00 0.  1.
         11    1    1    2    0    0  0.12798519856E+02  0.44897632015E+02  0.14576990438E+01  0.46708932310E+02  0.00000000000E+00 0. -1.
</event>
<event>
 7    1  0.2856214E-009  0.7464502E+02  0.7561462E-02  0.1344974E+00
          1   -1    0    0  501    0  0.00000000000E+00  0.00000000000E+00  0.10717496243E+03  0.10717496243E+03  0.00000000000E+00 0. -1.
         -1   -1    0    0    0  501 -0.00000000000E+00 -0.00000000000E+00 -0.17934805105E+03  0.17934805105E+03  0.00000000000E+00 0.  1.
         25    2    1    2    0    0 -0.28465988285E+02  0.36208633263E+02 -0.11419968461E+03  0.17552785228E+03  0.12508829420E+03 0.  0.
          5    1    3    3  502    0 -0.77992243404E+01 -0.35402053137E+01  0.26313488322E+02  0.27986300607E+02  0.41800000000E+01 0.  1.
         -5    1    3    3    0  502 -0.20666763945E+02  0.39748838577E+02 -0.14051317294E+03  0.14754155167E+03  0.41800000000E+01 0.  1.
        -11    1    1    2    0    0 -0.24790312662E+02  0.74655301874E+01  0.32365518567E+02  0.41446598593E+02  0.00000000000E+00 0. -1.
         11    1    1    2    0    0  0.53256300947E+02 -0.43674163451E+02  0.96610774340E+01  0.69548562608E+02  0.00000000000E+00 0.  1.
</event>
<event>
 7    1  0.2856214E-009  0.1587376E+03  0.7561462E-02  0.1190129E+00
          2   -1    0    0  501    0  0.00000000000E+00  0.00000000000E+00  0.18897802011E+03  0.18897802011E+03  0.00000000000E+00 0.  1.
         -2   -1    0    0    0  501 -0.00000000000E+00 -0.00000000000E+00 -0.14360045455E+03  0.14360045455E+03  0.00000000000E+00 0. -1.
         25    2    1    2    0    0 -0.72786837990E+02 -0.99863711937E+02  0.27569348622E+02  0.17798600587E+03  0.12509302360E+03 0.  0.
          5    1    3    3  502    0 -0.94828603295E+02 -0.45770865070E+02 -0.13810268896E+02  0.10628091089E+03  0.41800000000E+01 0. -1.
         -5    1    3    3    0  502  0.22041765306E+02 -0.54092846867E+02  0.41379617518E+02  0.71705094978E+02  0.41800000000E+01 0. -1.
        -11    1    1    2    0    0  0.62109725644E+02  0.98452040915E+01  0.58260287873E+01  0.63154482617E+02  0.00000000000E+00 0.  1.
         11    1    1    2    0    0  0.10677112345E+02  0.90018507845E+02  0.11982188151E+02  0.91437986174E+02  0.00000000000E+00 0. -1.
</event>
<event>
 7    1  0.2856214E-009  0.1342455E+03  0.7561462E-02  0.1221289E+00
         -1   -1    0    0    0  501 -0.00000000000E+00  0.00000000000E+00  0.49965044693E+02  0.49965044693E+02  0.00000000000E+00 0.  1.
          1   -1    0    0  501    0  0.00000000000E+00 -0.00000000000E+00 -0.44023860004E+03  0.44023860004E+03  0.00000000000E+00 0. -1.
         25    2    1    2    0    0 -0.79586826637E+02 -0.58523680262E+02 -0.23744962037E+03  0.28598093758E+03  0.12507473894E+03 0.  0.
          5    1    3    3  502    0  0.73606516071E+01  0.31253194757E+02 -0.68703832598E+02  0.75951500237E+02  0.41800000000E+01 0. -1.
         -5    1    3    3    0  502 -0.86947478244E+02 -0.89776875020E+02 -0.16874578777E+03  0.21002943735E+03  0.41800000000E+01 0. -1.
        -11    1    1    2    0    0  0.81529095457E+02  0.37137842371E+02 -0.15845036710E+03  0.18202398626E+03  0.00000000000E+00 0. -1.
         11    1    1    2    0    0 -0.19422688202E+01  0.21385837892E+02  0.56264321218E+01  0.22198720885E+02  0.00000000000E+00 0.  1.
</event>
<event>
 7    1  0.2856214E-009  0.1014761E+03  0.7561462E-02  0.1277222E+00
         -2   -1    0    0    0  501 -0.00000000000E+00  0.00000000000E+00  0.13027312528E+03  0.13027312528E+03  0.00000000000E+00 0.  1.
          2   -1    0    0  501    0  0.00000000000E+00 -0.00000000000E+00 -0.11846543959E+03  0.11846543959E+03  0.00000000000E+00 0. -1.
         25    2    1    2    0    0 -0.44990819302E+01 -0.47251862532E+02 -0.32504064092E+02  0.13768556699E+03  0.12509125039E+03 0.  0.
          5    1    3    3  502    0 -0.18281833369E+02  0.25111529270E+02  0.28184407767E+02  0.42150297446E+02  0.41800000000E+01 0. -1.
         -5    1    3    3    0  502  0.13782751439E+02 -0.72363391802E+02 -0.60688471859E+02  0.95535269544E+02  0.41800000000E+01 0. -1.
        -11    1    1    2    0    0 -0.35369995171E+02  0.45885635671E+02  0.41096145212E+02  0.71031128885E+02  0.00000000000E+00 0.  1.
         11    1    1    2    0    0  0.39869077101E+02  0.13662268608E+01  0.32156045725E+01  0.40021868990E+02  0.00000000000E+00 0. -1.
</event>
<event>
 7    1  0.2856214E-009  0.9562095E+02  0.7561462E-02  0.1289784E+00
          2   -1    0    0  501    0  0.00000000000E+00  0.00000000000E+00  0.85660665364E+03  0.85660665364E+03  0.00000000000E+00 0. -1.
         -2   -1    0    0    0  501 -0.00000000000E+00 -0.00000000000E+00 -0.18955325281E+02  0.18955325281E+02  0.00000000000E+00 0.  1.
         25    2    1    2    0    0 -0.85876642261E+01 -0.30967380747E+02  0.66380289798E+03  0.67625051459E+03  0.12509094482E+03 0.  0.
          5    1    3    3  502    0  0.52895888602E+02  0.98563820455E+01  0.23451183223E+03  0.24064163221E+03  0.41800000000E+01 0.  1.
         -5    1    3    3    0  502 -0.61483552828E+02 -0.40823762793E+02  0.42929106575E+03  0.43560888238E+03  0.41800000000E+01 0.  1.
        -11    1    1    2    0    0  0.27834833886E+02  0.11446979064E+01  0.69931414807E+01  0.28722679863E+02  0.00000000000E+00 0.  1.
         11    1    1    2    0    0 -0.19247169660E+02  0.29822682841E+02  0.16685528890E+03  0.17058878447E+03  0.00000000000E+00 0. -1.
</event>
<event>
 7    1  0.2856214E-009  0.8265491E+02  0.7561462E-02  0.1321682E+00
          4   -1    0    0  501    0  0.00000000000E+00  0.00000000000E+00  0.14204617778E+03  0.14204617778E+03  0.00000000000E+00 0. -1.
         -4   -1    0    0    0  501 -0.00000000000E+00 -0.00000000000E+00 -0.11535605104E+03  0.11535605104E+03  0.00000000000E+00 0.  1.
         25    2    1    2    0    0  0.97135603608E+01 -0.48842104183E+02 -0.35847756065E+02  0.13932771354E+03  0.12508895135E+03 0.  0.
          5    1    3    3  502    0 -0.52901225329E+01  0.13841540365E+02  0.38130039275E+02  0.41121112961E+02  0.41800000000E+01 0. -1.
         -5    1    3    3    0  502  0.15003682894E+02 -0.62683644548E+02 -0.73977795339E+02  0.98206600580E+02  0.41800000000E+01 0. -1.
        -11    1    1    2    0    0  0.21731432961E+02 -0.56105411606E+01  0.48796566516E+02  0.53710690318E+02  0.00000000000E+00 0. -1.
         11    1    1    2    0    0 -0.31444993322E+02  0.54452645344E+02  0.13741316291E+02  0.64363824959E+02  0.00000000000E+00 0.  1.
</event>
<event>
 7    1  0.2856214E-009  0.7600411E+02  0.7561462E-02  0.1340790E+00
         -2   -1    0    0    0  501 -0.00000000000E+00  0.00000000000E+00  0.19631054338E+02  0.19631054338E+02  0.00000000000E+00 0.  1.
          2   -1    0    0  501    0  0.00000000000E+00 -0.00000000000E+00 -0.78758703970E+03  0.78758703970E+03  0.00000000000E+00 0. -1.
         25    2    1    2    0    0 -0.10569322452E+02  0.50772120950E+02 -0.33470869809E+03  0.36106371154E+03  0.12509025690E+03 0.  0.
          5    1    3    3  502    0 -0.11310403337E+02  0.42637945363E+02 -0.34467817533E+03  0.34751465660E+03  0.41800000000E+01 0. -1.
         -5    1    3    3    0  502  0.74108088507E+00  0.81341755865E+01  0.99694772345E+01  0.13549054937E+02  0.41800000000E+01 0. -1.
        -11    1    1    2    0    0  0.22258555418E+02 -0.71413162099E+02 -0.38716929747E+03  0.39432898437E+03  0.00000000000E+00 0. -1.
         11    1    1    2    0    0 -0.11689232966E+02  0.20641041150E+02 -0.46077989803E+02  0.51825398130E+02  0.00000000000E+00 0.  1.
</event>
<event>
 7    1  0.2856214E-009  0.1655530E+03  0.7561462E-02  0.1182566E+00
         -2   -1    0    0    0  501 -0.00000000000E+00  0.00000000000E+00  0.78506681730E+02  0.78506681730E+02  0.00000000000E+00 0.  1.
          2   -1    0    0  501    0  0.00000000000E+00 -0.00000000000E+00 -0.54007303601E+03  0.54007303601E+03  0.00000000000E+00 0. -1.
         25    2    1    2    0    0  0.12363472294E+03 -0.96508149682E+02 -0.12611475590E+03  0.23696525217E+03  0.12509289112E+03 0.  0.
          5    1    3    3  502    0  0.11818350093E+03 -0.65915851730E+02 -0.14656850048E+03  0.19952953950E+03  0.41800000000E+01 0. -1.
         -5    1    3    3    0  502  0.54512220110E+01 -0.30592297952E+02  0.20453744585E+02  0.37435712668E+02  0.41800000000E+01 0. -1.
        -11    1    1    2    0    0 -0.45910767280E+02  0.67015159168E+02 -0.24795617718E+03  0.26092354419E+03  0.00000000000E+00 0. -1.
         11    1    1    2    0    0 -0.77723955657E+02  0.29492990514E+02 -0.87495421204E+02  0.12069092138E+03  0.00000000000E+00 0.  1.
</event>
<event>
 7    1  0.2856214E-009  0.9416918E+02  0.7561462E-02  0.1293058E+00
          4   -1    0    0  501    0  0.00000000000E+00  0.00000000000E+00  0.10124919273E+03  0.10124919273E+03  0.00000000000E+00 0. -1.
         -4   -1    0    0    0  501 -0.00000000000E+00 -0.00000000000E+00 -0.16207056112E+03  0.16207056112E+03  0.00000000000E+00 0.  1.
         25    2    1    2    0    0  0.36976656053E+02  0.49100896971E+02  0.22839632061E+01  0.13939780212E+03  0.12509340339E+03 0.  0.
          5    1    3    3  502    0  0.64066228730E+02  0.16001971805E+02 -0.41454228172E+02  0.78079896252E+02  0.41800000000E+01 0. -1.
         -5    1    3    3    0  502 -0.27089572677E+02  0.33098925166E+02  0.43738191378E+02  0.61317905868E+02  0.41800000000E+01 0. -1.
        -11    1    1    2    0    0  0.12565406497E+02 -0.10957945584E+02 -0.58947019735E+02  0.61259424969E+02  0.00000000000E+00 0.  1.
         11    1    1    2    0    0 -0.49542062550E+02 -0.38142951386E+02 -0.41583118638E+01  0.62662526758E+02  0.00000000000E+00 0. -1.
</event>
<event>
 7    1  0.2856214E-009  0.1086169E+03  0.7561462E-02  0.1263153E+00
          1   -1    0    0  501    0  0.00000000000E+00  0.00000000000E+00  0.71082275802E+03  0.71082275802E+03  0.00000000000E+00 0.  1.
         -1   -1    0    0    0  501 -0.00000000000E+00 -0.00000000000E+00 -0.19314749691E+02  0.19314749691E+02  0.00000000000E+00 0. -1.
         25    2    1    2    0    0  0.27308761643E+02 -0.32774685691E+02  0.33400782533E+03  0.35920524301E+03  0.12508889134E+03 0.  0.
          5    1    3    3  502    0 -0.33932678054E+02  0.20218060834E+02  0.18836986483E+03  0.19251201262E+03  0.41800000000E+01 0. -1.
         -5    1    3    3    0  502  0.61241439697E+02 -0.52992746525E+02  0.14563796050E+03  0.16669323039E+03  0.41800000000E+01 0. -1.
        -11    1    1    2    0    0 -0.37416125337E+02  0.58126416191E+02  0.28995815295E+03  0.29808451345E+03  0.00000000000E+00 0.  1.
         11    1    1    2    0    0  0.10107363694E+02 -0.25351730499E+02  0.67542030041E+02  0.72847751250E+02  0.00000000000E+00 0. -1.
</event>
<event>
 7    1  0.2856214E-009  0.1206966E+03  0.7561462E-02  0.1241952E+00
         -2   -1    0    0    0  501 -0.00000000000E+00  0.00000000000E+00  0.49479904954E+02  0.49479904954E+02  0.00000000000E+00 0.  1.
          2   -1    0    0  501    0  0.00000000000E+00 -0.00000000000E+00 -0.43914307896E+03  0.43914307896E+03  0.00000000000E+00 0. -1.
         25    2    1    2    0    0  0.13688955208E+02  0.77091561364E+02 -0.12629798907E+03  0.19424132846E+03  0.12509202737E+03 0.  0.
          5    1    3    3  502    0 -0.14426438213E+02  0.80387200202E+02 -0.20040177246E+02  0.84198011734E+02  0.41800000000E+01 0.  1.
         -5    1    3    3    0  502  0.28115393422E+02 -0.32956388380E+01 -0.10625781183E+03  0.11004331673E+03  0.41800000000E+01 0.  1.
        -11    1    1    2    0    0 -0.59791987786E+02 -0.42276542426E+02 -0.13402515931E+03  0.15272567293E+03  0.00000000000E+00 0. -1.
         11    1    1    2    0    0  0.46103032578E+02 -0.34815018938E+02 -0.12934002563E+03  0.14165598253E+03  0.00000000000E+00 0.  1.
</event>
<event>
 7    1  0.2856214E-009  0.4219404E+03  0.7561462E-02  0.1036437E+00
         -1   -1    0    0    0  501 -0.00000000000E+00  0.00000000000E+00  0.37423063376E+03  0.37423063376E+03  0.00000000000E+00 0.  1.
          1   -1    0    0  501    0  0.00000000000E+00 -0.00000000000E+00 -0.61963605988E+03  0.61963605988E+03  0.00000000000E+00 0. -1.
         25    2    1    2    0    0 -0.36676965761E+03 -0.19141788532E+03 -0.35165042740E+03  0.55719555139E+03  0.12509224929E+03 0.  0.
          5    1    3    3  502    0 -0.37427782064E+03 -0.19305141296E+03 -0.35130911881E+03  0.54844170559E+03  0.41800000000E+01 0.  1.
         -5    1    3    3    0  502  0.75081630325E+01  0.16335276457E+01 -0.34130859236E+00  0.87538457975E+01  0.41800000000E+01 0.  1.
        -11    1    1    2    0    0  0.16193465698E+03  0.92817440765E+02  0.94069310888E+02  0.20901422366E+03  0.00000000000E+00 0.  1.
         11    1    1    2    0    0  0.20483500063E+03  0.98600444554E+02  0.12175690390E+02  0.22765691859E+03  0.00000000000E+00 0. -1.
</event>
<event>
 7    1  0.2856214E-009  0.1392480E+03  0.7561462E-02  0.1214344E+00
          1   -1    0    0  501    0  0.00000000000E+00  0.00000000000E+00  0.16458048336E+03  0.16458048336E+03  0.00000000000E+00 0. -1.
         -1   -1    0    0    0  501 -0.00000000000E+00 -0.00000000000E+00 -0.20139762319E+03  0.20139762319E+03  0.00000000000E+00 0.  1.
         25    2    1    2    0    0  0.10190258167E+03  0.51964978341E+01 -0.12456067938E+03  0.20389858446E+03  0.12509248641E+03 0.  0.
          5    1    3    3  502    0 -0.19504814981E+02  0.22441406763E+02 -0.55498869884E+02  0.63100328868E+02  0.41800000000E+01 0. -1.
         -5    1    3    3    0  502  0.12140739666E+03 -0.17244908929E+02 -0.69061809493E+02  0.14079825559E+03  0.41800000000E+01 0. -1.
        -11    1    1    2    0    0 -0.93896781083E+02 -0.30901193878E+02  0.91740135041E+02  0.13486193554E+03  0.00000000000E+00 0.  1.
         11    1    1    2    0    0 -0.80058005914E+01  0.25704696044E+02 -0.39965954917E+01  0.27217586545E+02  0.00000000000E+00 0. -1.
</event>
<event>
 7    1  0.2856214E-009  0.1139703E+03  0.7561462E-02  0.1253389E+00
         -3   -1    0    0    0  501 -0.00000000000E+00  0.00000000000E+00  0.95067199874E+02  0.95067199874E+02  0.00000000000E+00 0.  1.
          3   -1    0    0  501    0  0.00000000000E+00 -0.00000000000E+00 -0.16918845195E+03  0.16918845195E+03  0.00000000000E+00 0. -1.
         25    2    1    2    0    0  0.54964517521E+02  0.35782981927E+02 -0.45689755221E+02  0.14844666625E+03  0.12508932411E+03 0.  0.
          5    1    3    3  502    0  0.45928900096E+02 -0.41307908712E+02 -0.31371517518E+02  0.69407864810E+02  0.41800000000E+01 0.  1.
         -5    1    3    3    0  502  0.90356174245E+01  0.77090890638E+02 -0.14318237704E+02  0.79038801437E+02  0.41800000000E+01 0.  1.
        -11    1    1    2    0    0  0.86822089430E+01  0.73790726944E+01  0.21350333813E+02  0.24200583049E+02  0.00000000000E+00 0.  1.
         11    1    1    2    0    0 -0.63646726464E+02 -0.43162054621E+02 -0.49781830664E+02  0.91608402523E+02  0.00000000000E+00 0. -1.
</event>
<event>
 7    1  0.2856214E-009  0.1222691E+03  0.7561462E-02  0.1239400E+00
         -3   -1    0    0    0  501 -0.00000000000E+00  0.00000000000E+00  0.50742428209E+02  0.50742428209E+02  0.00000000000E+00 0.  1.
          3   -1    0    0  501    0  0.00000000000E+00 -0.00000000000E+00 -0.47097744031E+03  0.47097744031E+03  0.00000000000E+00 0. -1.
         25    2    1    2    0    0  0.35798298697E+02  0.71181210093E+02 -0.34383137390E+03  0.37445344645E+03  0.12508831688E+03 0.  0.
          5    1    3    3  502    0  0.63186890370E+02 -0.65331518450E+01 -0.18183538482E+03  0.19265732470E+03  0.41800000000E+01 0.  1.
         -5    1    3    3    0  502 -0.27388591673E+02  0.77714361938E+02 -0.16199598907E+03  0.18179612174E+03  0.41800000000E+01 0.  1.
        -11    1    1    2    0    0  0.12918911828E+02 -0.10251544244E+01 -0.58603293646E+02  0.60019124040E+02  0.00000000000E+00 0. -1.
         11    1    1    2    0    0 -0.48717210526E+02 -0.70156055668E+02 -0.17800344564E+02  0.87247298038E+02  0.00000000000E+00 0.  1.
</event>
<event>
 7    1  0.2856214E-009  0.1034413E+03  0.7561462E-02  0.1273221E+00
         -2   -1    0    0    0  501 -0.00000000000E+00  0.00000000000E+00  0.16725330303E+02  0.16725330303E+02  0.00000000000E+00 0.  1.
          2   -1    0    0  501    0  0.00000000000E+00 -0.00000000000E+00 -0.11226333202E+04  0.11226333202E+04  0.00000000000E+00 0. -1.
         25    2    1    2    0    0 -0.46429336162E+02 -0.69562121014E+02 -0.63429771982E+03  0.65190127746E+03  0.12508839371E+03 0.  0.
          5    1    3    3  502    0 -0.37286834714E+02 -0.84377788650E+02 -0.23931958159E+03  0.25651755065E+03  0.41800000000E+01 0.  1.
         -5    1    3    3    0  502 -0.91425014481E+01  0.14815667636E+02 -0.39497813823E+03  0.39538372680E+03  0.41800000000E+01 0.  1.
        -11    1    1    2    0    0 -0.10275003476E+02  0.88598287442E+01 -0.66026948946E+01  0.15088666001E+02  0.00000000000E+00 0.  1.
         11    1    1    2    0    0  0.56704339639E+02  0.60702292270E+02 -0.46500757522E+03  0.47236870709E+03  0.00000000000E+00 0. -1.
</event>
<event>
 7    1  0.2856214E-009  0.1053445E+03  0.7561462E-02  0.1269442E+00
         -1   -1    0    0    0  501 -0.00000000000E+00  0.00000000000E+00  0.24687903684E+02  0.24687903684E+02  0.00000000000E+00 0.  1.
          1   -1    0    0  501    0  0.00000000000E+00 -0.00000000000E+00 -0.80264104979E+03  0.80264104979E+03  0.00000000000E+00 0. -1.
         25    2    1    2    0    0 -0.46815858437E+02 -0.56670965998E+02 -0.56412112009E+03  0.58248060052E+03  0.12509072252E+03 0.  0.
          5    1    3    3  502    0 -0.27142120015E+02  0.52876431153E+01 -0.45158911818E+03  0.45245426057E+03  0.41800000000E+01 0.  1.
         -5    1    3    3    0  502 -0.19673738422E+02 -0.61958609114E+02 -0.11253200191E+03  0.13002633995E+03  0.41800000000E+01 0.  1.
        -11    1    1    2    0    0  0.15764955399E+01 -0.24555589745E+02 -0.63349139516E+02  0.67960104498E+02  0.00000000000E+00 0. -1.
         11    1    1    2    0    0  0.45239362897E+02  0.81226555743E+02 -0.15048288650E+03  0.17688824846E+03  0.00000000000E+00 0.  1.
</event>
<event>
 7    1  0.2856214E-009  0.1032613E+03  0.7561462E-02  0.1273584E+00
         -3   -1    0    0    0  501 -0.00000000000E+00  0.00000000000E+00  0.46428994497E+02  0.46428994497E+02  0.00000000000E+00 0.  1.
          3   -1    0    0  501    0  0.00000000000E+00 -0.00000000000E+00 -0.25080435046E+03  0.25080435046E+03  0.00000000000E+00 0. -1.
         25    2    1    2    0    0  0.40947023727E+01 -0.77438074852E+01 -0.13184036558E+03  0.18194902043E+03  0.12508729311E+03 0.  0.
          5    1    3    3  502    0 -0.53505361462E+02 -0.26771630733E+02 -0.41051258680E+02  0.72678897601E+02  0.41800000000E+01 0.  1.
         -5    1    3    3    0  502  0.57600063835E+02  0.19027823248E+02 -0.90789106902E+02  0.10927012283E+03  0.41800000000E+01 0.  1.
        -11    1    1    2    0    0  0.11567339098E+02  0.44398914610E+02 -0.55304795815E+02  0.71858801774E+02  0.00000000000E+00 0. -1.
         11    1    1    2    0    0 -0.15662041471E+02 -0.36655107125E+02 -0.17230194564E+02  0.43425522750E+02  0.00000000000E+00 0.  1.
</event>
<event>
 7    1  0.2856214E-009  0.4157039E+03  0.7561462E-02  0.1038474E+00
         -1   -1    0    0    0  501 -0.00000000000E+00  0.00000000000E+00  0.13942733690E+03  0.13942733690E+03  0.00000000000E+00 0.  1.
          1   -1    0    0  501    0  0.00000000000E+00 -0.00000000000E+00 -0.12982235635E+04  0.12982235635E+04  0.00000000000E+00 0. -1.
         25    2    1    2    0    0  0.11770251997E+03  0.39385681331E+03 -0.57680045145E+03  0.71925206959E+03  0.12509079190E+03 0.  0.
          5    1    3    3  502    0 -0.13834878865E+02  0.34562805400E+02 -0.10685509590E+03  0.11323195358E+03  0.41800000000E+01 0.  1.
         -5    1    3    3    0  502  0.13153739884E+03  0.35929400791E+03 -0.46994535555E+03  0.60602011601E+03  0.41800000000E+01 0.  1.
        -11    1    1    2    0    0 -0.11240542340E+03 -0.38404357162E+03 -0.52387997771E+03  0.65922278113E+03  0.00000000000E+00 0.  1.
         11    1    1    2    0    0 -0.52970965693E+01 -0.98132416882E+01 -0.58115797457E+02  0.59176049704E+02  0.00000000000E+00 0. -1.
</event>
<event>
 7    1  0.2856214E-009  0.8421586E+02  0.7561462E-02  0.1317496E+00
          1   -1    0    0  501    0  0.00000000000E+00  0.00000000000E+00  0.20403042836E+03  0.20403042836E+03  0.00000000000E+00 0. -1.
         -1   -1    0    0    0  501 -0.00000000000E+00 -0.00000000000E+00 -0.68230540528E+02  0.68230540528E+02  0.00000000000E+00 0.  1.
         25    2    1    2    0    0  0.25296745001E+02 -0.44324865516E+01  0.12470062837E+03  0.17848800417E+03  0.12509256042E+03 0.  0.
          5    1    3    3  502    0  0.51457606787E+02 -0.42193989523E+02  0.11249895441E+03  0.13077348811E+03  0.41800000000E+01 0.  1.
         -5    1    3    3    0  502 -0.26160861786E+02  0.37761502972E+02  0.12201673962E+02  0.47714516067E+02  0.41800000000E+01 0.  1.
        -11    1    1    2    0    0 -0.40348872805E+02  0.21774332730E+01 -0.29751529550E+02  0.50178942424E+02  0.00000000000E+00 0.  1.
         11    1    1    2    0    0  0.15052127804E+02  0.22550532786E+01  0.40850789012E+02  0.43594022293E+02  0.00000000000E+00 0. -1.
</event>
<event>
 7    1  0.2856214E-009  0.2295681E+03  0.7561462E-02  0.1126944E+00
         -1   -1    0    0    0  501 -0.00000000000E+00  0.00000000000E+00  0.78824626313E+02  0.78824626313E+02  0.00000000000E+00 0.  1.
          1   -1    0    0  501    0  0.00000000000E+00 -0.00000000000E+00 -0.78976274819E+03  0.78976274819E+03  0.00000000000E+00 0. -1.
         25    2    1    2    0    0  0.19278019643E+03  0.89199389471E+02 -0.49778960913E+03  0.55548439154E+03  0.12509068336E+03 0.  0.
          5    1    3    3  502    0  0.29168247000E+02  0.62284685927E+02 -0.23354532430E+03  0.24349755571E+03  0.41800000000E+01 0.  1.
         -5    1    3    3    0  502  0.16361194943E+03  0.26914703544E+02 -0.26424428483E+03  0.31198683583E+03  0.41800000000E+01 0.  1.
        -11    1    1    2    0    0 -0.10872879608E+03 -0.10516330533E+02 -0.71457531185E+02  0.13053245983E+03  0.00000000000E+00 0. -1.
         11    1    1    2    0    0 -0.84051400343E+02 -0.78683058938E+02 -0.14169098155E+03  0.18257052313E+03  0.00000000000E+00 0.  1.
</event>
<event>
 7    1  0.2856214E-009  0.1109912E+03  0.7561462E-02  0.1258745E+00
         -2   -1    0    0    0  501 -0.00000000000E+00  0.00000000000E+00  0.49071840047E+03  0.49071840047E+03  0.00000000000E+00 0.  1.
          2   -1    0    0  501    0  0.00000000000E+00 -0.00000000000E+00 -0.37557916331E+02  0.37557916331E+02  0.00000000000E+00 0. -1.
         25    2    1    2    0    0  0.45576904084E+02  0.56270695444E+02  0.17936009113E+03  0.23035104939E+03  0.12509163965E+03 0.  0.
          5    1    3    3  502    0  0.62084537510E+02  0.61007663027E+02  0.19048112265E+03  0.20946826784E+03  0.41800000000E+01 0. -1.
         -5    1    3    3    0  502 -0.16507633427E+02 -0.47369675826E+01 -0.11121031515E+02  0.20882781548E+02  0.41800000000E+01 0. -1.
        -11    1    1    2    0    0 -0.71461912532E+02 -0.23128788461E+02  0.16550402308E+03  0.18175072889E+03  0.00000000000E+00 0.  1.
         11    1    1    2    0    0  0.25885008448E+02 -0.33141906983E+02  0.10829636993E+03  0.11617453852E+03  0.00000000000E+00 0. -1.
</event>
<event>
 7    1  0.2856214E-009  0.1235213E+03  0.7561462E-02  0.1237399E+00
         -2   -1    0    0    0  501 -0.00000000000E+00  0.00000000000E+00  0.16834811893E+02  0.16834811893E+02  0.00000000000E+00 0.  1.
          2   -1    0    0  501    0  0.00000000000E+00 -0.00000000000E+00 -0.10666711213E+04  0.10666711213E+04  0.00000000000E+00 0. -1.
         25    2    1    2    0    0 -0.19749183288E+02 -0.69399208025E+02 -0.46435467506E+03  0.48629163555E+03  0.12509200712E+03 0.  0.
          5    1    3    3  502    0 -0.62000204110E+02 -0.21518632827E+02 -0.12801245924E+03  0.14391573572E+03  0.41800000000E+01 0. -1.
         -5    1    3    3    0  502  0.42251020822E+02 -0.47880575198E+02 -0.33634221582E+03  0.34237589983E+03  0.41800000000E+01 0. -1.
        -11    1    1    2    0    0 -0.18522956556E+02 -0.15505216595E+02 -0.14455722443E+03  0.14656160068E+03  0.00000000000E+00 0.  1.
         11    1    1    2    0    0  0.38272139844E+02  0.84904424620E+02 -0.44092440990E+03  0.45065269693E+03  0.00000000000E+00 0. -1.
</event>
<event>
 7    1  0.2856214E-009  0.9663175E+02  0.7561462E-02  0.1287543E+00
          1   -1    0    0  501    0  0.00000000000E+00  0.00000000000E+00  0.17019858937E+03  0.17019858937E+03  0.00000000000E+00 0. -1.
         -1   -1    0    0    0  501 -0.00000000000E+00 -0.00000000000E+00 -0.92817988934E+02  0.92817988934E+02  0.00000000000E+00 0.  1.
         25    2    1    2    0    0 -0.27549648062E+02 -0.61178620492E+02  0.43740670968E+02  0.14853632172E+03  0.12509190965E+03 0.  0.
          5    1    3    3  502    0  0.21201691668E+02  0.13329584148E+02  0.53149594616E+02  0.58902812759E+02  0.41800000000E+01 0. -1.
         -5    1    3    3    0  502 -0.48751339730E+02 -0.74508204640E+02 -0.94089236475E+01  0.89633508959E+02  0.41800000000E+01 0. -1.
        -11    1    1    2    0    0  0.26491894757E+02  0.11227781883E+02 -0.24522425941E+02  0.37805197366E+02  0.00000000000E+00 0.  1.
         11    1    1    2    0    0  0.10577533047E+01  0.49950838610E+02  0.58162355410E+02  0.76675059222E+02  0.00000000000E+00 0. -1.
</event>
<event>
 7    1  0.2856214E-009  0.1100114E+03  0.7561462E-02  0.1260549E+00
          1   -1    0    0  501    0  0.00000000000E+00  0.00000000000E+00  0.14001577195E+03  0.14001577195E+03  0.00000000000E+00 0. -1.
         -1   -1    0    0    0  501 -0.00000000000E+00 -0.00000000000E+00 -0.11490057100E+03  0.11490057100E+03  0.00000000000E+00 0.  1.
         25    2    1    2    0    0 -0.69118165651E+01 -0.62286355587E+02 -0.52608401819E+01  0.14000559670E+03  0.12508607983E+03 0.  0.
          5    1    3    3  502    0  0.16783700791E+02  0.31650009954E+02  0.17964375037E+02  0.40294005916E+02  0.41800000000E+01 0.  1.
         -5    1    3    3    0  502 -0.23695517357E+02 -0.93936365541E+02 -0.23225215218E+02  0.99711590779E+02  0.41800000000E+01 0.  1.
        -11    1    1    2    0    0  0.32144851274E+02  0.48631716819E+02  0.52678948557E+02  0.78571031337E+02  0.00000000000E+00 0. -1.
         11    1    1    2    0    0 -0.25233034709E+02  0.13654638768E+02 -0.22302907423E+02  0.36339714914E+02  0.00000000000E+00 0.  1.
</event>
<event>
 7    1  0.2856214E-009  0.3616982E+03  0.7561462E-02  0.1057913E+00
          2   -1    0    0  501    0  0.00000000000E+00  0.00000000000E+00  0.11164762021E+04  0.11164762021E+04  0.00000000000E+00 0. -1.
         -2   -1    0    0    0  501 -0.00000000000E+00 -0.00000000000E+00 -0.15002404954E+03  0.15002404954E+03  0.00000000000E+00 0.  1.
         25    2    1    2    0    0 -0.34861929935E+03 -0.62128701854E+02  0.22012165571E+03  0.43531231354E+03  0.12509146866E+03 0.  0.
          5    1    3    3  502    0 -0.19397121065E+03 -0.95156801869E+01  0.18484245187E+03  0.26814097624E+03  0.41800000000E+01 0.  1.
         -5    1    3    3    0  502 -0.15464808871E+03 -0.52613021667E+02  0.35279203839E+02  0.16717133729E+03  0.41800000000E+01 0.  1.
        -11    1    1    2    0    0  0.24962919378E+03  0.85794265272E+02  0.54859596579E+03  0.60879629107E+03  0.00000000000E+00 0.  1.
         11    1    1    2    0    0  0.98990105572E+02 -0.23665563417E+02  0.19773453106E+03  0.22239164702E+03  0.00000000000E+00 0. -1.
</event>
<event>
 7    1  0.2856214E-009  0.1326081E+03  0.7561462E-02  0.1223636E+00
          1   -1    0    0  501    0  0.00000000000E+00  0.00000000000E+00  0.40842577044E+03  0.40842577044E+03  0.00000000000E+00 0. -1.
         -1   -1    0    0    0  501 -0.00000000000E+00 -0.00000000000E+00 -0.56185163004E+02  0.56185163004E+02  0.00000000000E+00 0.  1.
         25    2    1    2    0    0 -0.13987633040E+02 -0.94947081550E+02  0.25477673150E+03  0.29961396622E+03  0.12508694443E+03 0.  0.
          5    1    3    3  502    0  0.12829925623E+02 -0.11450286131E+03  0.14733269615E+03  0.18708262344E+03  0.41800000000E+01 0. -1.
         -5    1    3    3    0  502 -0.26817558663E+02  0.19555779759E+02  0.10744403535E+03  0.11253134277E+03  0.41800000000E+01 0. -1.
        -11    1    1    2    0    0  0.40252007771E+02  0.47719900762E+02  0.11531403742E+02  0.63485323742E+02  0.00000000000E+00 0.  1.
         11    1    1    2    0    0 -0.26264374731E+02  0.47227180788E+02  0.85932472198E+02  0.10151164349E+03  0.00000000000E+00 0. -1.
</event>
<event>
 7    1  0.2856214E-009  0.1318389E+03  0.7561462E-02  0.1224752E+00
          2   -1    0    0  501    0  0.00000000000E+00  0.00000000000E+00  0.37747107896E+03  0.37747107896E+03  0.00000000000E+00 0. -1.
         -2   -1    0    0    0  501 -0.00000000000E+00 -0.00000000000E+00 -0.47941714956E+02  0.47941714956E+02  0.00000000000E+00 0.  1.
         25    2    1    2    0    0  0.43622603609E+02  0.68807785052E+02  0.15631770871E+03  0.21614517445E+03  0.12508424182E+03 0.  0.
          5    1    3    3  502    0  0.85129257740E+02  0.25610772811E+02  0.87432705475E+02  0.12475917840E+03  0.41800000000E+01 0.  1.
         -5    1    3    3    0  502 -0.41506654131E+02  0.43197012240E+02  0.68885003239E+02  0.91385996054E+02  0.41800000000E+01 0.  1.
        -11    1    1    2    0    0 -0.34019689334E+02 -0.87353762295E+02  0.12122898434E+03  0.15324648673E+03  0.00000000000E+00 0.  1.
         11    1    1    2    0    0 -0.96029142743E+01  0.18545977243E+02  0.51982670947E+02  0.56021132738E+02  0.00000000000E+00 0. -1.
</event>
<event>
 7    1  0.2856214E-009  0.1074406E+03  0.7561462E-02  0.1265384E+00
          2   -1    0    0  501    0  0.00000000000E+00  0.00000000000E+00  0.52033244342E+02  0.52033244342E+02  0.00000000000E+00 0. -1.
         -2   -1    0    0    0  501 -0.00000000000E+00 -0.00000000000E+00 -0.36595280490E+03  0.36595280490E+03  0.00000000000E+00 0.  1.
         25    2    1    2    0    0 -0.12243397974E+02  0.43402569256E+02 -0.61480080215E+02  0.14649134024E+03  0.12508488593E+03 0.  0.
          5    1    3    3  502    0 -0.60745971898E+02 -0.76873046273E+01 -0.19584756191E+02  0.64422067875E+02  0.41800000000E+01 0.  1.
         -5    1    3    3    0  502  0.48502573924E+02  0.51089873883E+02 -0.41895324024E+02  0.82069272360E+02  0.41800000000E+01 0.  1.
        -11    1    1    2    0    0 -0.16617765689E+02 -0.50544725792E+02 -0.77250017954E+02  0.93800238357E+02  0.00000000000E+00 0. -1.
         11    1    1    2    0    0  0.28861163662E+02  0.71421565362E+01 -0.17518946239E+03  0.17769447065E+03  0.00000000000E+00 0.  1.
</event>
<event>
 7    1  0.2856214E-009  0.1455772E+03  0.7561462E-02  0.1206015E+00
         -1   -1    0    0    0  501 -0.00000000000E+00  0.00000000000E+00  0.93598347227E+02  0.93598347227E+02  0.00000000000E+00 0.  1.
          1   -1    0    0  501    0  0.00000000000E+00 -0.00000000000E+00 -0.33112868533E+03  0.33112868533E+03  0.00000000000E+00 0. -1.
         25    2    1    2    0    0  0.26583370003E+02 -0.11686618188E+03 -0.42694686014E+02  0.17841424279E+03  0.12507767901E+03 0.  0.
          5    1    3    3  502    0  0.41453232784E+02 -0.19957802455E+02 -0.63080363073E+02  0.78187524533E+02  0.41800000000E+01 0.  1.
         -5    1    3    3    0  502 -0.14869862781E+02 -0.96908379429E+02  0.20385677059E+02  0.10022671825E+03  0.41800000000E+01 0.  1.
        -11    1    1    2    0    0 -0.24946006013E+02  0.13061702125E+03 -0.18943447808E+03  0.23144876526E+03  0.00000000000E+00 0. -1.
         11    1    1    2    0    0 -0.16373639898E+01 -0.13750839362E+02 -0.54011740116E+01  0.14864024513E+02  0.00000000000E+00 0.  1.
</event>
<event>
 7    1  0.2856214E-009  0.8317913E+02  0.7561462E-02  0.1320264E+00
          1   -1    0    0  501    0  0.00000000000E+00  0.00000000000E+00  0.11097654985E+03  0.11097654985E+03  0.00000000000E+00 0. -1.
         -1   -1    0    0    0  501 -0.00000000000E+00 -0.00000000000E+00 -0.12756135796E+03  0.12756135796E+03  0.00000000000E+00 0.  1.
         25    2    1    2    0    0 -0.34126797732E+01 -0.19760962333E+00  0.37321333430E+02  0.13058154460E+03  0.12508785884E+03 0.  0.
          5    1    3    3  502    0  0.55262592180E+02  0.20684819726E+02  0.33643335714E+02  0.68052643590E+02  0.41800000000E+01 0.  1.
         -5    1    3    3    0  502 -0.58675271953E+02 -0.20882429349E+02  0.36779977156E+01  0.62528901010E+02  0.41800000000E+01 0.  1.
        -11    1    1    2    0    0  0.22205032330E+02 -0.88776164698E+01  0.19990906899E+02  0.31169085544E+02  0.00000000000E+00 0. -1.
         11    1    1    2    0    0 -0.18792352557E+02  0.90752260931E+01 -0.73897048439E+02  0.76787277666E+02  0.00000000000E+00 0.  1.
</event>
<event>
 7    1  0.2856214E-009  0.1503655E+03  0.7561462E-02  0.1200025E+00
          2   -1    0    0  501    0  0.00000000000E+00  0.00000000000E+00  0.67839011480E+03  0.67839011480E+03  0.00000000000E+00 0. -1.
         -2   -1    0    0    0  501 -0.00000000000E+00 -0.00000000000E+00 -0.42159163647E+02  0.42159163647E+02  0.00000000000E+00 0.  1.
         25    2    1    2    0    0  0.78358530902E+02 -0.80954174334E+02  0.20005436364E+03  0.26146318611E+03  0.12509041359E+03 0.  0.
          5    1    3    3  502    0  0.44040099670E+02  0.28624568431E+02  0.74714478744E+02  0.91425499893E+02  0.41800000000E+01 0.  1.
         -5    1    3    3    0  502  0.34318431231E+02 -0.10957874276E+03  0.12533988489E+03  0.17003768621E+03  0.41800000000E+01 0.  1.
        -11    1    1    2    0    0  0.38908063856E+01  0.41910575384E+02  0.22826834604E+03  0.23211650632E+03  0.00000000000E+00 0. -1.
         11    1    1    2    0    0 -0.82249337287E+02  0.39043598950E+02  0.20790824149E+03  0.22696958603E+03  0.00000000000E+00 0.  1.
</event>
<event>
 7    1  0.2856214E-009  0.1464617E+03  0.7561462E-02  0.1204889E+00
         -4   -1    0    0    0  501 -0.00000000000E+00  0.00000000000E+00  0.14474039079E+03  0.14474039079E+03  0.00000000000E+00 0.  1.
          4   -1    0    0  501    0  0.00000000000E+00 -0.00000000000E+00 -0.25652373578E+03  0.25652373578E+03  0.00000000000E+00 0. -1.
         25    2    1    2    0    0  0.12560688071E+03  0.65167054579E+02 -0.15357979160E+03  0.24342783436E+03  0.12508606905E+03 0.  0.
          5    1    3    3  502    0  0.96023911971E+02  0.38182224886E+02 -0.21877764288E+02  0.10570989990E+03  0.41800000000E+01 0. -1.
         -5    1    3    3    0  502  0.29582968734E+02  0.26984829693E+02 -0.13170202731E+03  0.13771793446E+03  0.41800000000E+01 0. -1.
        -11    1    1    2    0    0 -0.24157807281E+02 -0.36590638069E+02  0.26773381556E+02  0.51374005167E+02  0.00000000000E+00 0.  1.
         11    1    1    2    0    0 -0.10144907342E+03 -0.28576416510E+02  0.15023065048E+02  0.10646228704E+03  0.00000000000E+00 0. -1.
</event>
<event>
 7    1  0.2856214E-009  0.1154550E+03  0.7561462E-02  0.1250789E+00
         -1   -1    0    0    0  501 -0.00000000000E+00  0.00000000000E+00  0.79622225624E+02  0.79622225624E+02  0.00000000000E+00 0.  1.
          1   -1    0    0  501    0  0.00000000000E+00 -0.00000000000E+00 -0.25046122153E+03  0.25046122153E+03  0.00000000000E+00 0. -1.
         25    2    1    2    0    0 -0.53300416934E+02  0.59482011444E+02 -0.14075964364E+03  0.20454426002E+03  0.12508410330E+03 0.  0.
          5    1    3    3  502    0  0.14643827917E+02  0.75306402458E+02 -0.58261903669E+02  0.96423118423E+02  0.41800000000E+01 0.  1.
         -5    1    3    3    0  502 -0.67944244851E+02 -0.15824391014E+02 -0.82497739973E+02  0.10812114160E+03  0.41800000000E+01 0.  1.
        -11    1    1    2    0    0  0.23214931166E+02 -0.45361732141E+02  0.28355079838E+02  0.58314923686E+02  0.00000000000E+00 0.  1.
         11    1    1    2    0    0  0.30085485767E+02 -0.14120279303E+02 -0.58434432105E+02  0.67224263454E+02  0.00000000000E+00 0. -1.
</event>
<event>
 7    1  0.2856214E-009  0.8001484E+02  0.7561462E-02  0.1329009E+00
         -2   -1    0    0    0  501 -0.00000000000E+00  0.00000000000E+00  0.39440584736E+02  0.39440584736E+02  0.00000000000E+00 0.  1.
          2   -1    0    0  501    0  0.00000000000E+00 -0.00000000000E+00 -0.71855352437E+03  0.71855352437E+03  0.00000000000E+00 0. -1.
         25    2    1    2    0    0  0.34525470979E+02 -0.51873909681E+02 -0.61315348069E+03  0.62887810958E+03  0.12509026807E+03 0.  0.
          5    1    3    3  502    0  0.87786059033E+01 -0.49878279158E+02 -0.59469295432E+03  0.59686019215E+03  0.41800000000E+01 0. -1.
         -5    1    3    3    0  502  0.25746865075E+02 -0.19956305227E+01 -0.18460526373E+02  0.32017917427E+02  0.41800000000E+01 0. -1.
        -11    1    1    2    0    0 -0.39913602703E+02  0.10422126754E+02 -0.75686747665E+02  0.86198608915E+02  0.00000000000E+00 0. -1.
         11    1    1    2    0    0  0.53881317239E+01  0.41451782927E+02  0.97272887248E+01  0.42917390615E+02  0.00000000000E+00 0.  1.
</event>
<event>
 7    1  0.2856214E-009  0.2896015E+03  0.7561462E-02  0.1090557E+00
          2   -1    0    0  501    0  0.00000000000E+00  0.00000000000E+00  0.87867074496E+03  0.87867074496E+03  0.00000000000E+00 0. -1.
         -2   -1    0    0    0  501 -0.00000000000E+00 -0.00000000000E+00 -0.11261124428E+03  0.11261124428E+03  0.00000000000E+00 0.  1.
         25    2    1    2    0    0  0.19186295224E+03  0.19353852848E+03  0.56683484569E+03  0.64126236324E+03  0.12508845576E+03 0.  0.
          5    1    3    3  502    0  0.29851708878E+02 -0.16084521961E+02  0.80053143145E+02  0.87039154965E+02  0.41800000000E+01 0. -1.
         -5    1    3    3    0  502  0.16201124337E+03  0.20962305044E+03  0.48678170255E+03  0.55422320828E+03  0.41800000000E+01 0. -1.
        -11    1    1    2    0    0 -0.15613400195E+03 -0.18723151599E+03  0.14161323186E+03  0.28193576322E+03  0.00000000000E+00 0.  1.
         11    1    1    2    0    0 -0.35728950296E+02 -0.63070124875E+01  0.57611423127E+02  0.68083862776E+02  0.00000000000E+00 0. -1.
</event>
<event>
 7    1  0.2856214E-009  0.1511526E+03  0.7561462E-02  0.1199064E+00
          1   -1    0    0  501    0  0.00000000000E+00  0.00000000000E+00  0.72158582171E+02  0.72158582171E+02  0.00000000000E+00 0. -1.
         -1   -1    0    0    0  501 -0.00000000000E+00 -0.00000000000E+00 -0.36225724060E+03  0.36225724060E+03  0.00000000000E+00 0.  1.
         25    2    1    2    0    0  0.53619821696E+02  0.97763280093E+02 -0.97684566434E+02  0.19396514631E+03  0.12508980474E+03 0.  0.
          5    1    3    3  502    0 -0.26649550505E+02  0.74866758430E+02 -0.25592550183E+02  0.83592350635E+02  0.41800000000E+01 0. -1.
         -5    1    3    3    0  502  0.80269372201E+02  0.22896521663E+02 -0.72092016251E+02  0.11037279567E+03  0.41800000000E+01 0. -1.
        -11    1    1    2    0    0 -0.13587279508E+02  0.14555332452E+02 -0.93988368288E+01  0.22018401417E+02  0.00000000000E+00 0.  1.
         11    1    1    2    0    0 -0.40032542188E+02 -0.11231861255E+03 -0.18301525517E+03  0.21843227505E+03  0.00000000000E+00 0. -1.
</event>
<event>
 7    1  0.2856214E-009  0.1326101E+03  0.7561462E-02  0.1223633E+00
          1   -1    0    0  501    0  0.00000000000E+00  0.00000000000E+00  0.61376307379E+02  0.61376307379E+02  0.00000000000E+00 0. -1.
         -1   -1    0    0    0  501 -0.00000000000E+00 -0.00000000000E+00 -0.53964035557E+03  0.53964035557E+03  0.00000000000E+00 0.  1.
         25    2    1    2    0    0  0.11199181402E+03  0.33974213715E+02 -0.40081294955E+03  0.43588227137E+03  0.12508365346E+03 0.  0.
          5    1    3    3  502    0  0.82861099856E+02  0.12071928882E+02 -0.90340555907E+02  0.12325007821E+03  0.41800000000E+01 0.  1.
         -5    1    3    3    0  502  0.29130714168E+02  0.21902284833E+02 -0.31047239364E+03  0.31263219317E+03  0.41800000000E+01 0.  1.
        -11    1    1    2    0    0 -0.18169484453E+02  0.27186064250E+02 -0.91528584104E+01  0.33955663324E+02  0.00000000000E+00 0.  1.
         11    1    1    2    0    0 -0.93822329571E+02 -0.61160277966E+02 -0.68298240228E+02  0.13117872825E+03  0.00000000000E+00 0. -1.
</event>
<event>
 7    1  0.2856214E-009  0.1333886E+03  0.7561462E-02  0.1222513E+00
         -1   -1    0    0    0  501 -0.00000000000E+00  0.00000000000E+00  0.10854968290E+03  0.10854968290E+03  0.00000000000E+00 0.  1.
          1   -1    0    0  501    0  0.00000000000E+00 -0.00000000000E+00 -0.16617132779E+03  0.16617132779E+03  0.00000000000E+00 0. -1.
         25    2    1    2    0    0 -0.64014919714E+02  0.44789998762E+02 -0.41896883473E+02  0.15331932245E+03  0.12508961531E+03 0.  0.
          5    1    3    3  502    0  0.37535021008E+02  0.97722932735E+01 -0.34964333637E+01  0.39167243510E+02  0.41800000000E+01 0.  1.
         -5    1    3    3    0  502 -0.10154994072E+03  0.35017705489E+02 -0.38400450109E+02  0.11415207894E+03  0.41800000000E+01 0.  1.
        -11    1    1    2    0    0 -0.11815856048E+02 -0.42809724125E+02 -0.32843144136E+01  0.44531715158E+02  0.00000000000E+00 0.  1.
         11    1    1    2    0    0  0.75830775762E+02 -0.19802746376E+01 -0.12440447005E+02  0.76869973084E+02  0.00000000000E+00 0. -1.
</event>
<event>
 7    1  0.2856214E-009  0.2078440E+03  0.7561462E-02  0.1143285E+00
          1   -1    0    0  501    0  0.00000000000E+00  0.00000000000E+00  0.19817097340E+03  0.19817097340E+03  0.00000000000E+00 0. -1.
         -1   -1    0    0    0  501 -0.00000000000E+00 -0.00000000000E+00 -0.25129987039E+03  0.25129987039E+03  0.00000000000E+00 0.  1.
         25    2    1    2    0    0  0.11307945719E+03  0.15345613032E+03 -0.61096125149E+02  0.23604488604E+03  0.12509478066E+03 0.  0.
          5    1    3    3  502    0  0.88239849552E+02  0.16470438564E+03 -0.79265087943E+02  0.20301288695E+03  0.41800000000E+01 0.  1.
         -5    1    3    3    0  502  0.24839607636E+02 -0.11248255324E+02  0.18168962794E+02  0.33031999097E+02  0.41800000000E+01 0.  1.
        -11    1    1    2    0    0 -0.19765267708E+02 -0.80112425790E+02 -0.31537454292E+02  0.88336162452E+02  0.00000000000E+00 0.  1.
         11    1    1    2    0    0 -0.93314189480E+02 -0.73343704530E+02  0.39504682456E+02  0.12508979530E+03  0.00000000000E+00 0. -1.
</event>
<event>
 7    1  0.2856214E-009  0.2400681E+03  0.7561462E-02  0.1119747E+00
         -1   -1    0    0    0  501 -0.00000000000E+00  0.00000000000E+00  0.20398081150E+02  0.20398081150E+02  0.00000000000E+00 0.  1.
          1   -1    0    0  501    0  0.00000000000E+00 -0.00000000000E+00 -0.30332971584E+04  0.30332971584E+04  0.00000000000E+00 0. -1.
         25    2    1    2    0    0  0.13740130111E+03  0.16414785518E+03 -0.19428943759E+04  0.19586500105E+04  0.12509065371E+03 0.  0.
          5    1    3    3  502    0 -0.14697094341E+02 -0.87480873270E+01 -0.14330093487E+03  0.14437854393E+03  0.41800000000E+01 0.  1.
         -5    1    3    3    0  502  0.15209839545E+03  0.17289594251E+03 -0.17995934410E+04  0.18142714665E+04  0.41800000000E+01 0.  1.
        -11    1    1    2    0    0 -0.10588868414E+03 -0.16988655888E+03 -0.89264239153E+03  0.91481380372E+03  0.00000000000E+00 0. -1.
         11    1    1    2    0    0 -0.31512616977E+02  0.57387036936E+01 -0.17736230982E+03  0.18023142537E+03  0.00000000000E+00 0.  1.
</event>
<event>
 7    1  0.2856214E-009  0.1051893E+03  0.7561462E-02  0.1269747E+00
         -2   -1    0    0    0  501 -0.00000000000E+00  0.00000000000E+00  0.12354594175E+03  0.12354594175E+03  0.00000000000E+00 0.  1.
          2   -1    0    0  501    0  0.00000000000E+00 -0.00000000000E+00 -0.99205708714E+02  0.99205708714E+02  0.00000000000E+00 0. -1.
         25    2    1    2    0    0  0.52807536450E+01 -0.21424862248E+02  0.18021679827E+02  0.12829306883E+03  0.12508964580E+03 0.  0.
          5    1    3    3  502    0  0.23333620122E+02  0.48669747781E+02  0.12634820262E+02  0.55590586075E+02  0.41800000000E+01 0.  1.
         -5    1    3    3    0  502 -0.18052866477E+02 -0.70094610029E+02  0.53868595657E+01  0.72702482758E+02  0.41800000000E+01 0.  1.
        -11    1    1    2    0    0 -0.34414503637E+02 -0.14622034435E+02 -0.18680157626E+02  0.41798447825E+02  0.00000000000E+00 0. -1.
         11    1    1    2    0    0  0.29133749992E+02  0.36046896683E+02  0.24998710831E+02  0.52660133804E+02  0.00000000000E+00 0.  1.
</event>
<event>
 7    1  0.2856214E-009  0.1178510E+03  0.7561462E-02  0.1246685E+00
         -2   -1    0    0    0  501 -0.00000000000E+00  0.00000000000E+00  0.27792999994E+03  0.27792999994E+03  0.00000000000E+00 0.  1.
          2   -1    0    0  501    0  0.00000000000E+00 -0.00000000000E+00 -0.50553094511E+02  0.50553094511E+02  0.00000000000E+00 0. -1.
         25    2    1    2    0    0 -0.27331964149E+02 -0.39282269895E+02  0.11970596336E+03  0.17963136896E+03  0.12509107905E+03 0.  0.
          5    1    3    3  502    0 -0.53975697692E+02  0.27737345511E+02  0.44657015328E+02  0.75461630617E+02  0.41800000000E+01 0.  1.
         -5    1    3    3    0  502  0.26643733543E+02 -0.67019615405E+02  0.75048948036E+02  0.10416973835E+03  0.41800000000E+01 0.  1.
        -11    1    1    2    0    0 -0.33239437366E+02  0.21171030822E+02  0.45293769227E+02  0.60038306715E+02  0.00000000000E+00 0.  1.
         11    1    1    2    0    0  0.60571401515E+02  0.18111239073E+02  0.62377172833E+02  0.88813418766E+02  0.00000000000E+00 0. -1.
</event>
<event>
 7    1  0.2856214E-009  0.1033924E+03  0.7561462E-02  0.1273320E+00
          2   -1    0    0  501    0  0.00000000000E+00  0.00000000000E+00  0.24159287094E+03  0.24159287094E+03  0.00000000000E+00 0. -1.
         -2   -1    0    0    0  501 -0.00000000000E+00 -0.00000000000E+00 -0.76541628276E+02  0.76541628276E+02  0.00000000000E+00 0.  1.
         25    2    1    2    0    0 -0.58378882972E+02 -0.48922773026E+02  0.12991327793E+03  0.19576670514E+03  0.12508241828E+03 0.  0.
          5    1    3    3  502    0  0.14116129314E+02 -0.20250777766E+02  0.11318843407E+03  0.11592434220E+03  0.41800000000E+01 0. -1.
         -5    1    3    3    0  502 -0.72495012287E+02 -0.28671995260E+02  0.16724843858E+02  0.79842362946E+02  0.41800000000E+01 0. -1.
        -11    1    1    2    0    0  0.73939440863E+02  0.47866477060E+02  0.49610299862E+02  0.10109115883E+03  0.00000000000E+00 0. -1.
         11    1    1    2    0    0 -0.15560557891E+02  0.10562959661E+01 -0.14472335129E+02  0.21276635239E+02  0.00000000000E+00 0.  1.
</event>
<event>
 7    1  0.2856214E-009  0.7272207E+02  0.7561462E-02  0.1351074E+00
          1   -1    0    0  501    0  0.00000000000E+00  0.00000000000E+00  0.21165400746E+03  0.21165400746E+03  0.00000000000E+00 0. -1.
         -1   -1    0    0    0  501 -0.00000000000E+00 -0.00000000000E+00 -0.69113381664E+02  0.69113381664E+02  0.00000000000E+00 0.  1.
         25    2    1    2    0    0  0.85547175875E+01 -0.35134276875E+01  0.14056062948E+03  0.18838529082E+03  0.12508477073E+03 0.  0.
          5    1    3    3  502    0  0.15568569321E+02 -0.53947689462E+02  0.12139682992E+03  0.13381851988E+03  0.41800000000E+01 0.  1.
         -5    1    3    3    0  502 -0.70138517338E+01  0.50434261774E+02  0.19163799564E+02  0.54566770938E+02  0.41800000000E+01 0.  1.
        -11    1    1    2    0    0 -0.13144190763E+01  0.19999550147E+02  0.43078207175E+02  0.47512541892E+02  0.00000000000E+00 0. -1.
         11    1    1    2    0    0 -0.72402985112E+01 -0.16486122459E+02 -0.41098210864E+02  0.44869556410E+02  0.00000000000E+00 0.  1.
</event>
<event>
 7    1  0.2856214E-009  0.1972459E+03  0.7561462E-02  0.1152084E+00
          1   -1    0    0  501    0  0.00000000000E+00  0.00000000000E+00  0.69615587924E+02  0.69615587924E+02  0.00000000000E+00 0. -1.
         -1   -1    0    0    0  501 -0.00000000000E+00 -0.00000000000E+00 -0.92824906334E+03  0.92824906334E+03  0.00000000000E+00 0.  1.
         25    2    1    2    0    0 -0.93649824046E+02  0.15472750073E+03 -0.70674019753E+03  0.74015933025E+03  0.12507293205E+03 0.  0.
          5    1    3    3  502    0  0.30918429291E+01  0.75280469839E+02 -0.13308636869E+03  0.15299072705E+03  0.41800000000E+01 0. -1.
         -5    1    3    3    0  502 -0.96741666976E+02  0.79447030889E+02 -0.57365382884E+03  0.58716860320E+03  0.41800000000E+01 0. -1.
        -11    1    1    2    0    0  0.10473885573E+03 -0.13213058510E+03 -0.90518846302E+02  0.19136974932E+03  0.00000000000E+00 0. -1.
         11    1    1    2    0    0 -0.11089031684E+02 -0.22596915632E+02 -0.61374431590E+02  0.66335571700E+02  0.00000000000E+00 0.  1.
</event>
<event>
 7    1  0.2856214E-009  0.9020952E+02  0.7561462E-02  0.1302345E+00
          3   -1    0    0  501    0  0.00000000000E+00  0.00000000000E+00  0.11125710988E+03  0.11125710988E+03  0.00000000000E+00 0. -1.
         -3   -1    0    0    0  501 -0.00000000000E+00 -0.00000000000E+00 -0.15929860060E+03  0.15929860060E+03  0.00000000000E+00 0.  1.
         25    2    1    2    0    0 -0.59728632608E+02  0.23343408270E+02 -0.67577951547E+02  0.15597552026E+03  0.12509659917E+03 0.  0.
          5    1    3    3  502    0 -0.59943351340E+02  0.16161954640E+02 -0.10259246194E+03  0.11998791520E+03  0.41800000000E+01 0.  1.
         -5    1    3    3    0  502  0.21471873190E+00  0.71814536307E+01  0.35014510390E+02  0.35987605063E+02  0.41800000000E+01 0.  1.
        -11    1    1    2    0    0 -0.19479348948E+02  0.12285659681E+02 -0.64631455844E+01  0.23919755854E+02  0.00000000000E+00 0.  1.
         11    1    1    2    0    0  0.79207981557E+02 -0.35629067951E+02  0.25999606418E+02  0.90660434365E+02  0.00000000000E+00 0. -1.
</event>
<event>
 7    1  0.2856214E-009  0.3067020E+03  0.7561462E-02  0.1081938E+00
          1   -1    0    0  501    0  0.00000000000E+00  0.00000000000E+00  0.14213898010E+03  0.14213898010E+03  0.00000000000E+00 0. -1.
         -1   -1    0    0    0  501 -0.00000000000E+00 -0.00000000000E+00 -0.77344737124E+03  0.77344737124E+03  0.00000000000E+00 0.  1.
         25    2    1    2    0    0 -0.75329423168E+02  0.28404484494E+03 -0.16188892571E+03  0.35806598957E+03  0.12508889913E+03 0.  0.
          5    1    3    3  502    0  0.21802944950E+00 -0.12579225483E+02 -0.66895581905E+01  0.14849479431E+02  0.41800000000E+01 0. -1.
         -5    1    3    3    0  502 -0.75547452617E+02  0.29662407043E+03 -0.15519936752E+03  0.34321651014E+03  0.41800000000E+01 0. -1.
        -11    1    1    2    0    0  0.21036677843E+02 -0.63437417708E+02 -0.16213374514E+03  0.17536875176E+03  0.00000000000E+00 0. -1.
         11    1    1    2    0    0  0.54292745324E+02 -0.22060742724E+03 -0.30728572029E+03  0.38215161002E+03  0.00000000000E+00 0.  1.
</event>
<event>
 7    1  0.2856214E-009  0.1072616E+03  0.7561462E-02  0.1265727E+00
         -2   -1    0    0    0  501 -0.00000000000E+00  0.00000000000E+00  0.21381721560E+02  0.21381721560E+02  0.00000000000E+00 0.  1.
          2   -1    0    0  501    0  0.00000000000E+00 -0.00000000000E+00 -0.81666880226E+03  0.81666880226E+03  0.00000000000E+00 0. -1.
         25    2    1    2    0    0  0.26997526268E+02  0.15343684548E+02 -0.65850791772E+03  0.67100201601E+03  0.12508690064E+03 0.  0.
          5    1    3    3  502    0  0.64243911097E+02  0.40069484866E+02 -0.28927916745E+03  0.29905309370E+03  0.41800000000E+01 0.  1.
         -5    1    3    3    0  502 -0.37246384829E+02 -0.24725800318E+02 -0.36922875026E+03  0.37194892231E+03  0.41800000000E+01 0.  1.
        -11    1    1    2    0    0  0.16197707392E+02 -0.40629362006E+02 -0.46607284197E+02  0.63916740546E+02  0.00000000000E+00 0.  1.
         11    1    1    2    0    0 -0.43195233660E+02  0.25285677458E+02 -0.90171878784E+02  0.10313176726E+03  0.00000000000E+00 0. -1.
</event>
<event>
 7    1  0.2856214E-009  0.2558833E+03  0.7561462E-02  0.1109642E+00
          1   -1    0    0  501    0  0.00000000000E+00  0.00000000000E+00  0.13837918684E+03  0.13837918684E+03  0.00000000000E+00 0. -1.
         -1   -1    0    0    0  501 -0.00000000000E+00 -0.00000000000E+00 -0.71293123586E+03  0.71293123586E+03  0.00000000000E+00 0.  1.
         25    2    1    2    0    0  0.14014738742E+03 -0.20825786285E+03 -0.49350209989E+03  0.56763265382E+03  0.12509947821E+03 0.  0.
          5    1    3    3  502    0  0.10037333039E+03 -0.93445997365E+02 -0.15016800403E+03  0.20340811614E+03  0.41800000000E+01 0. -1.
         -5    1    3    3    0  502  0.39774057031E+02 -0.11481186549E+03 -0.34333409586E+03  0.36422453768E+03  0.41800000000E+01 0. -1.
        -11    1    1    2    0    0 -0.85905665793E+02  0.99506424622E+02  0.99810848993E+01  0.13183677033E+03  0.00000000000E+00 0. -1.
         11    1    1    2    0    0 -0.54241721629E+02  0.10875143823E+03 -0.91031034037E+02  0.15184099855E+03  0.00000000000E+00 0.  1.
</event>
<event>
 7    1  0.2856214E-009  0.9082420E+02  0.7561462E-02  0.1300868E+00
         -2   -1    0    0    0  501 -0.00000000000E+00  0.00000000000E+00  0.21150390297E+02  0.21150390297E+02  0.00000000000E+00 0.  1.
          2   -1    0    0  501    0  0.00000000000E+00 -0.00000000000E+00 -0.10422858120E+04  0.10422858120E+04  0.00000000000E+00 0. -1.
         25    2    1    2    0    0 -0.64387796397E+02 -0.17135776306E+02 -0.81743612008E+03  0.82963161467E+03  0.12508949794E+03 0.  0.
          5    1    3    3  502    0 -0.87700072342E+01 -0.30461506126E+02 -0.45736229290E+02  0.55804045122E+02  0.41800000000E+01 0.  1.
         -5    1    3    3    0  502 -0.55617789162E+02  0.13325729820E+02 -0.77169989079E+03  0.77382756955E+03  0.41800000000E+01 0.  1.
        -11    1    1    2    0    0  0.61636324467E+02 -0.12228607042E+02 -0.19209374315E+03  0.20211032007E+03  0.00000000000E+00 0. -1.
         11    1    1    2    0    0  0.27514719295E+01  0.29364383348E+02 -0.11605558450E+02  0.31694267528E+02  0.00000000000E+00 0.  1.
</event>
<event>
 7    1  0.2856214E-009  0.6050985E+02  0.7561462E-02  0.1395705E+00
          2   -1    0    0  501    0  0.00000000000E+00  0.00000000000E+00  0.30186769323E+03  0.30186769323E+03  0.00000000000E+00 0. -1.
         -2   -1    0    0    0  501 -0.00000000000E+00 -0.00000000000E+00 -0.40577701671E+02  0.40577701671E+02  0.00000000000E+00 0.  1.
         25    2    1    2    0    0 -0.19976055531E+02 -0.66740796557E+01  0.13299599111E+03  0.18379153371E+03  0.12509119904E+03 0.  0.
          5    1    3    3  502    0  0.65280692692E+01  0.24985618753E+02  0.13937052387E+03  0.14180448568E+03  0.41800000000E+01 0. -1.
         -5    1    3    3    0  502 -0.26504124801E+02 -0.31659698408E+02 -0.63745327597E+01  0.41987048035E+02  0.41800000000E+01 0. -1.
        -11    1    1    2    0    0  0.14473130063E+02 -0.20799573319E+02  0.12815299412E+03  0.13063415956E+03  0.00000000000E+00 0. -1.
         11    1    1    2    0    0  0.55029254682E+01  0.27473652975E+02  0.14100632798E+00  0.28019701627E+02  0.00000000000E+00 0.  1.
</event>
<event>
 7    1  0.2856214E-009  0.1055577E+03  0.7561462E-02  0.1269025E+00
         -1   -1    0    0    0  501 -0.00000000000E+00  0.00000000000E+00  0.42017696907E+02  0.42017696907E+02  0.00000000000E+00 0.  1.
          1   -1    0    0  501    0  0.00000000000E+00 -0.00000000000E+00 -0.32833305826E+03  0.32833305826E+03  0.00000000000E+00 0. -1.
         25    2    1    2    0    0 -0.23378759146E+02 -0.38308307385E+02 -0.16342755571E+03  0.21064261730E+03  0.12509058105E+03 0.  0.
          5    1    3    3  502    0 -0.68559213602E+02 -0.56149498128E+01 -0.12515783517E+03  0.14287704342E+03  0.41800000000E+01 0.  1.
         -5    1    3    3    0  502  0.45180454457E+02 -0.32693357572E+02 -0.38269720538E+02  0.67765573888E+02  0.41800000000E+01 0.  1.
        -11    1    1    2    0    0 -0.26647815077E+02  0.81737102486E+01 -0.86542825978E+02  0.90920714448E+02  0.00000000000E+00 0. -1.
         11    1    1    2    0    0  0.50026574223E+02  0.30134597136E+02 -0.36344979667E+02  0.68787423415E+02  0.00000000000E+00 0.  1.
</event>
<event>
 7    1  0.2856214E-009  0.1706308E+03  0.7561462E-02  0.1177192E+00
          2   -1    0    0  501    0  0.00000000000E+00  0.00000000000E+00  0.12479878683E+04  0.12479878683E+04  0.00000000000E+00 0.  1.
         -2   -1    0    0    0  501 -0.00000000000E+00 -0.00000000000E+00 -0.23969409317E+02  0.23969409317E+02  0.00000000000E+00 0. -1.
         25    2    1    2    0    0  0.11881066450E+03 -0.63531523411E+02  0.63467676282E+03  0.66076843838E+03  0.12509239557E+03 0.  0.
          5    1    3    3  502    0  0.96317786903E+02  0.17116675624E+02  0.39104573152E+03  0.40311826205E+03  0.41800000000E+01 0.  1.
         -5    1    3    3    0  502  0.22492877600E+02 -0.80648199035E+02  0.24363103130E+03  0.25765017633E+03  0.41800000000E+01 0.  1.
        -11    1    1    2    0    0 -0.24223246561E+02  0.60175582685E+02  0.18939815895E+03  0.20019872387E+03  0.00000000000E+00 0.  1.
         11    1    1    2    0    0 -0.94587417942E+02  0.33559407251E+01  0.39994353722E+03  0.41099011537E+03  0.00000000000E+00 0. -1.
</event>
<event>
 7    1  0.2856214E-009  0.1199717E+03  0.7561462E-02  0.1243144E+00
         -3   -1    0    0    0  501 -0.00000000000E+00  0.00000000000E+00  0.80351120450E+02  0.80351120450E+02  0.00000000000E+00 0.  1.
          3   -1    0    0  501    0  0.00000000000E+00 -0.00000000000E+00 -0.27989158219E+03  0.27989158219E+03  0.00000000000E+00 0. -1.
         25    2    1    2    0    0  0.78729963908E+02  0.76505467129E+02 -0.79256117788E+02  0.18433723180E+03  0.12508872493E+03 0.  0.
          5    1    3    3  502    0  0.76371754619E+02  0.72973792847E+02 -0.86178436012E+00  0.10571676508E+03  0.41800000000E+01 0. -1.
         -5    1    3    3    0  502  0.23582092885E+01  0.35316742812E+01 -0.78394333428E+02  0.78620466724E+02  0.41800000000E+01 0. -1.
        -11    1    1    2    0    0 -0.50966664137E+02 -0.45780283940E+01 -0.51063775760E+02  0.72291551319E+02  0.00000000000E+00 0.  1.
         11    1    1    2    0    0 -0.27763299770E+02 -0.71927438735E+02 -0.69220568188E+02  0.10361391952E+03  0.00000000000E+00 0. -1.
</event>
<event>
 7    1  0.2856214E-009  0.7062249E+02  0.7561462E-02  0.1357989E+00
          2   -1    0    0  501    0  0.00000000000E+00  0.00000000000E+00  0.49695408673E+02  0.49695408673E+02  0.00000000000E+00 0. -1.
         -2   -1    0    0    0  501 -0.00000000000E+00 -0.00000000000E+00 -0.25607376044E+03  0.25607376044E+03  0.00000000000E+00 0.  1.
         25    2    1    2    0    0  0.20366927437E+02  0.80897868065E+01 -0.14368404075E+03  0.19176293052E+03  0.12509061345E+03 0.  0.
          5    1    3    3  502    0  0.62260668746E+01 -0.39751004087E+02 -0.13502943719E+03  0.14095860223E+03  0.41800000000E+01 0.  1.
         -5    1    3    3    0  502  0.14140860562E+02  0.47840790894E+02 -0.86546035626E+01  0.50804328296E+02  0.41800000000E+01 0.  1.
        -11    1    1    2    0    0 -0.80239449644E+01 -0.26989989646E+02  0.15829644050E+02  0.32302025705E+02  0.00000000000E+00 0. -1.
         11    1    1    2    0    0 -0.12342982473E+02  0.18900202840E+02 -0.78523955067E+02  0.81704212884E+02  0.00000000000E+00 0.  1.
</event>
<event>
 7    1  0.2856214E-009  0.1525101E+03  0.7561462E-02  0.1197422E+00
         -1   -1    0    0    0  501 -0.00000000000E+00  0.00000000000E+00  0.42636274067E+03  0.42636274067E+03  0.00000000000E+00 0.  1.
          1   -1    0    0  501    0  0.00000000000E+00 -0.00000000000E+00 -0.99413610622E+02  0.99413610622E+02  0.00000000000E+00 0. -1.
         25    2    1    2    0    0  0.11566491141E+03  0.19838532067E+01  0.33998495784E+03  0.38028741926E+03  0.12508573973E+03 0.  0.
          5    1    3    3  502    0  0.13922817041E+03  0.40844843851E+01  0.32004672213E+03  0.34906810682E+03  0.41800000000E+01 0. -1.
         -5    1    3    3    0  502 -0.23563259002E+02 -0.21006311784E+01  0.19938235707E+02  0.31219312441E+02  0.41800000000E+01 0. -1.
        -11    1    1    2    0    0 -0.10131058506E+03  0.30774069620E+02  0.38214954606E+01  0.10595037439E+03  0.00000000000E+00 0.  1.
         11    1    1    2    0    0 -0.14354326350E+02 -0.32757922827E+02 -0.16857323257E+02  0.39538557640E+02  0.00000000000E+00 0. -1.
</event>
<event>
 7    1  0.2856214E-009  0.1311578E+03  0.7561462E-02  0.1225748E+00
          2   -1    0    0  501    0  0.00000000000E+00  0.00000000000E+00  0.35709623705E+03  0.35709623705E+03  0.00000000000E+00 0. -1.
         -2   -1    0    0    0  501 -0.00000000000E+00 -0.00000000000E+00 -0.91377737942E+02  0.91377737942E+02  0.00000000000E+00 0.  1.
         25    2    1    2    0    0  0.54578843013E+02 -0.10643867884E+03  0.24018998995E+03  0.29605226725E+03  0.12509065199E+03 0.  0.
          5    1    3    3  502    0  0.31971083815E+02 -0.10960948057E+03  0.24676387441E+03  0.27193063554E+03  0.41800000000E+01 0. -1.
         -5    1    3    3    0  502  0.22607759198E+02  0.31708017224E+01 -0.65738844623E+01  0.24121631712E+02  0.41800000000E+01 0. -1.
        -11    1    1    2    0    0 -0.92077859735E+01  0.57049435748E+02 -0.30218543644E+02  0.65211822713E+02  0.00000000000E+00 0.  1.
         11    1    1    2    0    0 -0.45371057039E+02  0.49389243097E+02  0.55747052805E+02  0.87209885030E+02  0.00000000000E+00 0. -1.
</event>
<event>
 7    1  0.2856214E-009  0.1792397E+03  0.7561462E-02  0.1168541E+00
          1   -1    0    0  501    0  0.00000000000E+00  0.00000000000E+00  0.71820392457E+03  0.71820392457E+03  0.00000000000E+00 0. -1.
         -1   -1    0    0    0  501 -0.00000000000E+00 -0.00000000000E+00 -0.55940884764E+02  0.55940884764E+02  0.00000000000E+00 0.  1.
         25    2    1    2    0    0 -0.61038497818E+01 -0.15217665799E+03  0.20992924655E+03  0.28794434578E+03  0.12508663193E+03 0.  0.
          5    1    3    3  502    0 -0.60569089376E+02 -0.11784213667E+03  0.14150847800E+03  0.19390076202E+03  0.41800000000E+01 0. -1.
         -5    1    3    3    0  502  0.54465239594E+02 -0.34334521320E+02  0.68420768541E+02  0.94043583758E+02  0.41800000000E+01 0. -1.
        -11    1    1    2    0    0 -0.22448415357E+02  0.93297374989E+02  0.15947379430E+03  0.18611884000E+03  0.00000000000E+00 0.  1.
         11    1    1    2    0    0  0.28552265138E+02  0.58879283005E+02  0.29285999896E+03  0.30008162357E+03  0.00000000000E+00 0. -1.
</event>
<event>
 7    1  0.2856214E-009  0.1259131E+03  0.7561462E-02  0.1233649E+00
          1   -1    0    0  501    0  0.00000000000E+00  0.00000000000E+00  0.79260328059E+03  0.79260328059E+03  0.00000000000E+00 0. -1.
         -1   -1    0    0    0  501 -0.00000000000E+00 -0.00000000000E+00 -0.26232793758E+02  0.26232793758E+02  0.00000000000E+00 0.  1.
         25    2    1    2    0    0  0.57061070920E+02  0.46320978603E+02  0.58994613178E+03  0.60752319260E+03  0.12508553977E+03 0.  0.
          5    1    3    3  502    0  0.28544540891E+02  0.86338346031E+02  0.45072459197E+03  0.45982521790E+03  0.41800000000E+01 0. -1.
         -5    1    3    3    0  502  0.28516530029E+02 -0.40017367428E+02  0.13922153981E+03  0.14769797469E+03  0.41800000000E+01 0. -1.
        -11    1    1    2    0    0 -0.70356312299E+02 -0.78701018574E+01  0.81001185431E+02  0.10757853515E+03  0.00000000000E+00 0.  1.
         11    1    1    2    0    0  0.13295241379E+02 -0.38450876746E+02  0.95423169617E+02  0.10373434661E+03  0.00000000000E+00 0. -1.
</event>
<event>
 7    1  0.2856214E-009  0.9448254E+02  0.7561462E-02  0.1292346E+00
         -2   -1    0    0    0  501 -0.00000000000E+00  0.00000000000E+00  0.41539791196E+02  0.41539791196E+02  0.00000000000E+00 0.  1.
          2   -1    0    0  501    0  0.00000000000E+00 -0.00000000000E+00 -0.45687126424E+03  0.45687126424E+03  0.00000000000E+00 0. -1.
         25    2    1    2    0    0 -0.41879073095E+02 -0.39053518840E+02 -0.11892437121E+03  0.18184794882E+03  0.12508651536E+03 0.  0.
          5    1    3    3  502    0 -0.68861687496E+02 -0.90047350167E+01 -0.12271984025E+03  0.14106965956E+03  0.41800000000E+01 0.  1.
         -5    1    3    3    0  502  0.26982614401E+02 -0.30048783824E+02  0.37954690468E+01  0.40778289254E+02  0.41800000000E+01 0.  1.
        -11    1    1    2    0    0  0.46068896741E+02  0.49448094711E+02 -0.29770613076E+03  0.30528085038E+03  0.00000000000E+00 0. -1.
         11    1    1    2    0    0 -0.41898236459E+01 -0.10394575870E+02  0.12990289200E+01  0.11282256239E+02  0.00000000000E+00 0.  1.
</event>
<event>
 7    1  0.2856214E-009  0.2724899E+03  0.7561462E-02  0.1099863E+00
          1   -1    0    0  501    0  0.00000000000E+00  0.00000000000E+00  0.67690312911E+03  0.67690312911E+03  0.00000000000E+00 0. -1.
         -1   -1    0    0    0  501 -0.00000000000E+00 -0.00000000000E+00 -0.13461238139E+03  0.13461238139E+03  0.00000000000E+00 0.  1.
         25    2    1    2    0    0 -0.19786686886E+03 -0.16911634332E+03  0.13368094857E+03  0.31822736041E+03  0.12508565678E+03 0.  0.
          5    1    3    3  502    0 -0.40650338005E+02  0.83328878051E+01 -0.73414386962E+01  0.42346854916E+02  0.41800000000E+01 0.  1.
         -5    1    3    3    0  502 -0.15721653085E+03 -0.17744923112E+03  0.14102238726E+03  0.27588050549E+03  0.41800000000E+01 0.  1.
        -11    1    1    2    0    0  0.13715787575E+03  0.81428058933E+02  0.30708116642E+03  0.34603707089E+03  0.00000000000E+00 0. -1.
         11    1    1    2    0    0  0.60708993112E+02  0.87688284384E+02  0.10152863273E+03  0.14725107921E+03  0.00000000000E+00 0.  1.
</event>
<event>
 7    1  0.2856214E-009  0.2587603E+03  0.7561462E-02  0.1107890E+00
         -1   -1    0    0    0  501 -0.00000000000E+00  0.00000000000E+00  0.80773178304E+02  0.80773178304E+02  0.00000000000E+00 0.  1.
          1   -1    0    0  501    0  0.00000000000E+00 -0.00000000000E+00 -0.11085934714E+04  0.11085934714E+04  0.00000000000E+00 0. -1.
         25    2    1    2    0    0 -0.18014402291E+03  0.16466135386E+03 -0.25899646936E+03  0.37721600807E+03  0.12509002821E+03 0.  0.
          5    1    3    3  502    0 -0.48933515353E+02  0.52596468347E+01 -0.11588532840E+03  0.12597235628E+03  0.41800000000E+01 0.  1.
         -5    1    3    3    0  502 -0.13121050756E+03  0.15940170702E+03 -0.14311114097E+03  0.25124365179E+03  0.41800000000E+01 0.  1.
        -11    1    1    2    0    0 -0.69872706149E+01 -0.30709121870E+02 -0.99887744090E+02  0.10473506355E+03  0.00000000000E+00 0.  1.
         11    1    1    2    0    0  0.18713129353E+03 -0.13395223199E+03 -0.66893607968E+03  0.70741557812E+03  0.00000000000E+00 0. -1.
</event>
<event>
 7    1  0.2856214E-009  0.1320991E+03  0.7561462E-02  0.1224374E+00
          2   -1    0    0  501    0  0.00000000000E+00  0.00000000000E+00  0.10878672988E+04  0.10878672988E+04  0.00000000000E+00 0. -1.
         -2   -1    0    0    0  501 -0.00000000000E+00 -0.00000000000E+00 -0.20627443272E+02  0.20627443272E+02  0.00000000000E+00 0.  1.
         25    2    1    2    0    0  0.41716087689E+02  0.74500621839E+02  0.80286034938E+03  0.81702053639E+03  0.12508893494E+03 0.  0.
          5    1    3    3  502    0 -0.43060885422E+02  0.13076458881E+02  0.29748139191E+03  0.30089513881E+03  0.41800000000E+01 0. -1.
         -5    1    3    3    0  502  0.84776973111E+02  0.61424162958E+02  0.50537895747E+03  0.51612539758E+03  0.41800000000E+01 0. -1.
        -11    1    1    2    0    0 -0.12874151005E+02 -0.83131606854E+02  0.23418398992E+03  0.24883478245E+03  0.00000000000E+00 0. -1.
         11    1    1    2    0    0 -0.28841936685E+02  0.86309850153E+01  0.30195516254E+02  0.42639423259E+02  0.00000000000E+00 0.  1.
</event>
<event>
 7    1  0.2856214E-009  0.1164690E+03  0.7561462E-02  0.1249038E+00
         -1   -1    0    0    0  501 -0.00000000000E+00  0.00000000000E+00  0.44350887739E+02  0.44350887739E+02  0.00000000000E+00 0.  1.
          1   -1    0    0  501    0  0.00000000000E+00 -0.00000000000E+00 -0.34961582499E+03  0.34961582499E+03  0.00000000000E+00 0. -1.
         25    2    1    2    0    0  0.33906417481E+02  0.28231038068E+02 -0.10834818839E+03  0.17126211406E+03  0.12507895558E+03 0.  0.
          5    1    3    3  502    0  0.85907998812E+01  0.75010003961E+02 -0.43314447882E+02  0.87143079657E+02  0.41800000000E+01 0. -1.
         -5    1    3    3    0  502  0.25315617599E+02 -0.46778965894E+02 -0.65033740509E+02  0.84119034404E+02  0.41800000000E+01 0. -1.
        -11    1    1    2    0    0 -0.38999441483E+02  0.27681083112E+02 -0.86934269851E+02  0.99220794558E+02  0.00000000000E+00 0.  1.
         11    1    1    2    0    0  0.50930240021E+01 -0.55912121179E+02 -0.10998247901E+03  0.12348380411E+03  0.00000000000E+00 0. -1.
</event>
<event>
 7    1  0.2856214E-009  0.5991587E+02  0.7561462E-02  0.1398185E+00
         -2   -1    0    0    0  501 -0.00000000000E+00  0.00000000000E+00  0.74128108247E+02  0.74128108247E+02  0.00000000000E+00 0. -1.
          2   -1    0    0  501    0  0.00000000000E+00 -0.00000000000E+00 -0.12395024788E+03  0.12395024788E+03  0.00000000000E+00 0.  1.
         25    2    1    2    0    0  0.37982204376E+02 -0.16964082661E+02 -0.32931948976E+02  0.13586160537E+03  0.12507371667E+03 0.  0.
          5    1    3    3  502    0  0.45415265774E+02 -0.31373335885E+02 -0.73476890688E+02  0.91995426164E+02  0.41800000000E+01 0.  1.
         -5    1    3    3    0  502 -0.74330613978E+01  0.14409253224E+02  0.40544941711E+02  0.43866179211E+02  0.41800000000E+01 0.  1.
        -11    1    1    2    0    0 -0.23408343523E+02  0.22185160815E+02 -0.28362482780E+02  0.42948368262E+02  0.00000000000E+00 0.  1.
         11    1    1    2    0    0 -0.14573860853E+02 -0.52210781535E+01  0.11472292123E+02  0.19268382490E+02  0.00000000000E+00 0. -1.
</event>
<event>
 7    1  0.2856214E-009  0.1528767E+03  0.7561462E-02  0.1196982E+00
          1   -1    0    0  501    0  0.00000000000E+00  0.00000000000E+00  0.32786515096E+03  0.32786515096E+03  0.00000000000E+00 0. -1.
         -1   -1    0    0    0  501 -0.00000000000E+00 -0.00000000000E+00 -0.11488097120E+03  0.11488097120E+03  0.00000000000E+00 0.  1.
         25    2    1    2    0    0 -0.47731436191E+01  0.14998785232E+03  0.13886236326E+03  0.23968509385E+03  0.12508816707E+03 0.  0.
          5    1    3    3  502    0 -0.99663032789E+01  0.11845879610E+03  0.25263934292E+02  0.12160408032E+03  0.41800000000E+01 0.  1.
         -5    1    3    3    0  502  0.51931596598E+01  0.31529056227E+02  0.11359842896E+03  0.11808101353E+03  0.41800000000E+01 0.  1.
        -11    1    1    2    0    0 -0.15331324413E+02 -0.90337423335E+02  0.99434345043E+02  0.13521497157E+03  0.00000000000E+00 0. -1.
         11    1    1    2    0    0  0.20104468032E+02 -0.59650428988E+02 -0.25312528540E+02  0.67846056735E+02  0.00000000000E+00 0.  1.
</event>
<event>
 7    1  0.2856214E-009  0.6943276E+02  0.7561462E-02  0.1362033E+00
         -3   -1    0    0    0  501 -0.00000000000E+00  0.00000000000E+00  0.13575581356E+03  0.13575581356E+03  0.00000000000E+00 0.  1.
          3   -1    0    0  501    0  0.00000000000E+00 -0.00000000000E+00 -0.98070857521E+02  0.98070857521E+02  0.00000000000E+00 0. -1.
         25    2    1    2    0    0 -0.69760822376E+01 -0.16937102680E+01  0.65194730399E+02  0.14124239386E+03  0.12509007384E+03 0.  0.
          5    1    3    3  502    0 -0.48124149643E+02 -0.11830372404E+02  0.81638432963E+02  0.95593920449E+02  0.41800000000E+01 0.  1.
         -5    1    3    3    0  502  0.41148067406E+02  0.10136662136E+02 -0.16443702564E+02  0.45648473408E+02  0.41800000000E+01 0.  1.
        -11    1    1    2    0    0 -0.12920965070E+02 -0.15551143991E+02 -0.52514942359E+02  0.56272627349E+02  0.00000000000E+00 0. -1.
         11    1    1    2    0    0  0.19897047307E+02  0.17244854259E+02  0.25005167999E+02  0.36311649875E+02  0.00000000000E+00 0.  1.
</event>
<event>
 7    1  0.2856214E-009  0.1642659E+03  0.7561462E-02  0.1183963E+00
          2   -1    0    0  501    0  0.00000000000E+00  0.00000000000E+00  0.73948203845E+03  0.73948203845E+03  0.00000000000E+00 0. -1.
         -2   -1    0    0    0  501 -0.00000000000E+00 -0.00000000000E+00 -0.42012822922E+02  0.42012822922E+02  0.00000000000E+00 0.  1.
         25    2    1    2    0    0  0.68470428627E+01  0.12927734961E+03  0.48065179876E+03  0.51325733861E+03  0.12508968328E+03 0.  0.
          5    1    3    3  502    0  0.48829374954E+02  0.12011406027E+03  0.28865444193E+03  0.31646572418E+03  0.41800000000E+01 0.  1.
         -5    1    3    3    0  502 -0.41982332092E+02  0.91632893384E+01  0.19199735683E+03  0.19679161443E+03  0.41800000000E+01 0.  1.
        -11    1    1    2    0    0 -0.44223330504E+02 -0.43350648714E+02  0.10924391595E+03  0.12557553455E+03  0.00000000000E+00 0.  1.
         11    1    1    2    0    0  0.37376287642E+02 -0.85926700893E+02  0.10757350081E+03  0.14266198822E+03  0.00000000000E+00 0. -1.
</event>
<event>
 7    1  0.2856214E-009  0.1342576E+03  0.7561462E-02  0.1221271E+00
          1   -1    0    0  501    0  0.00000000000E+00  0.00000000000E+00  0.59388282357E+03  0.59388282357E+03  0.00000000000E+00 0. -1.
         -1   -1    0    0    0  501 -0.00000000000E+00 -0.00000000000E+00 -0.42847340795E+02  0.42847340795E+02  0.00000000000E+00 0.  1.
         25    2    1    2    0    0  0.69471930701E+02 -0.40294586202E+02  0.15284467009E+03  0.21321134728E+03  0.12509029779E+03 0.  0.
          5    1    3    3  502    0  0.52160840053E+02 -0.71374054760E+02  0.44420724913E+02  0.99023644296E+02  0.41800000000E+01 0. -1.
         -5    1    3    3    0  502  0.17311090648E+02  0.31079468558E+02  0.10842394517E+03  0.11418770298E+03  0.41800000000E+01 0. -1.
        -11    1    1    2    0    0 -0.55075889997E+02 -0.36492741608E+02  0.18907072109E+03  0.20028182999E+03  0.00000000000E+00 0. -1.
         11    1    1    2    0    0 -0.14396040704E+02  0.76787327810E+02  0.20912009159E+03  0.22323698710E+03  0.00000000000E+00 0.  1.
</event>
<event>
 7    1  0.2856214E-009  0.1070466E+03  0.7561462E-02  0.1266139E+00
         -2   -1    0    0    0  501 -0.00000000000E+00  0.00000000000E+00  0.76000716137E+02  0.76000716137E+02  0.00000000000E+00 0.  1.
          2   -1    0    0  501    0  0.00000000000E+00 -0.00000000000E+00 -0.25000352573E+03  0.25000352573E+03  0.00000000000E+00 0. -1.
         25    2    1    2    0    0  0.32978571420E+02  0.73842631741E+02 -0.12284808967E+03  0.19307678153E+03  0.12508664994E+03 0.  0.
          5    1    3    3  502    0  0.97190228053E+01 -0.25575233268E+02  0.63052117245E+01  0.28386265268E+02  0.41800000000E+01 0.  1.
         -5    1    3    3    0  502  0.23259548614E+02  0.99417865008E+02 -0.12915330139E+03  0.16469051626E+03  0.41800000000E+01 0.  1.
        -11    1    1    2    0    0 -0.86441058649E+01 -0.47840585871E+02 -0.75493231691E+02  0.89792373027E+02  0.00000000000E+00 0. -1.
         11    1    1    2    0    0 -0.24334465555E+02 -0.26002045870E+02  0.24338511761E+02  0.43135087319E+02  0.00000000000E+00 0.  1.
</event>
<event>
 7    1  0.2856214E-009  0.1182557E+03  0.7561462E-02  0.1246003E+00
         -2   -1    0    0    0  501 -0.00000000000E+00  0.00000000000E+00  0.24037271755E+02  0.24037271755E+02  0.00000000000E+00 0.  1.
          2   -1    0    0  501    0  0.00000000000E+00 -0.00000000000E+00 -0.68008239206E+03  0.68008239206E+03  0.00000000000E+00 0. -1.
         25    2    1    2    0    0 -0.26228734267E+02 -0.61922809755E+02 -0.40374970139E+03  0.42799951261E+03  0.12508949017E+03 0.  0.
          5    1    3    3  502    0 -0.55931061783E+02  0.15765656817E+02 -0.14909931070E+03  0.16007784499E+03  0.41800000000E+01 0.  1.
         -5    1    3    3    0  502  0.29702327516E+02 -0.77688466572E+02 -0.25465039069E+03  0.26792166762E+03  0.41800000000E+01 0.  1.
        -11    1    1    2    0    0  0.45962299524E+02  0.23140710250E+02 -0.60379068641E+02  0.79332574510E+02  0.00000000000E+00 0.  1.
         11    1    1    2    0    0 -0.19733565257E+02  0.38782099505E+02 -0.19191635027E+03  0.19678757669E+03  0.00000000000E+00 0. -1.
</event>
<event>
 7    1  0.2856214E-009  0.8621384E+02  0.7561462E-02  0.1312288E+00
         -1   -1    0    0    0  501 -0.00000000000E+00  0.00000000000E+00  0.18813533761E+02  0.18813533761E+02  0.00000000000E+00 0.  1.
          1   -1    0    0  501    0  0.00000000000E+00 -0.00000000000E+00 -0.67893234683E+03  0.67893234683E+03  0.00000000000E+00 0. -1.
         25    2    1    2    0    0 -0.72508223055E+00 -0.10402971678E+02 -0.48526944079E+03  0.50124050160E+03  0.12508742030E+03 0.  0.
          5    1    3    3  502    0 -0.28090252844E+02  0.34003457129E+02 -0.71064825060E+02  0.83743532063E+02  0.41800000000E+01 0.  1.
         -5    1    3    3    0  502  0.27365170613E+02 -0.44406428807E+02 -0.41420461573E+03  0.41749696954E+03  0.41800000000E+01 0.  1.
        -11    1    1    2    0    0 -0.83654728646E+01  0.42047610394E+02 -0.43435070244E+02  0.61029402776E+02  0.00000000000E+00 0.  1.
         11    1    1    2    0    0  0.90905550951E+01 -0.31644638716E+02 -0.13141430204E+03  0.13547597622E+03  0.00000000000E+00 0. -1.
</event>
<event>
 7    1  0.2856214E-009  0.1157025E+03  0.7561462E-02  0.1250360E+00
         -2   -1    0    0    0  501 -0.00000000000E+00  0.00000000000E+00  0.65902286889E+02  0.65902286889E+02  0.00000000000E+00 0.  1.
          2   -1    0    0  501    0  0.00000000000E+00 -0.00000000000E+00 -0.31993431834E+03  0.31993431834E+03  0.00000000000E+00 0. -1.
         25    2    1    2    0    0 -0.68303099349E+02  0.63651197489E+02 -0.16669146636E+03  0.22836369148E+03  0.12508853786E+03 0.  0.
          5    1    3    3  502    0 -0.52333213473E+01  0.31426744616E+02 -0.15270584725E+03  0.15604991546E+03  0.41800000000E+01 0.  1.
         -5    1    3    3    0  502 -0.63069778002E+02  0.32224452873E+02 -0.13985619107E+02  0.72313776018E+02  0.41800000000E+01 0.  1.
        -11    1    1    2    0    0 -0.11421121104E+02 -0.45027383483E+02 -0.16778545079E+02  0.49390554214E+02  0.00000000000E+00 0.  1.
         11    1    1    2    0    0  0.79724220453E+02 -0.18623814006E+02 -0.70562020010E+02  0.10808235954E+03  0.00000000000E+00 0. -1.
</event>
<event>
 7    1  0.2856214E-009  0.8454200E+02  0.7561462E-02  0.1316635E+00
          4   -1    0    0  501    0  0.00000000000E+00  0.00000000000E+00  0.23677083404E+03  0.23677083404E+03  0.00000000000E+00 0. -1.
         -4   -1    0    0    0  501 -0.00000000000E+00 -0.00000000000E+00 -0.72593407862E+02  0.72593407862E+02  0.00000000000E+00 0.  1.
         25    2    1    2    0    0 -0.65759697133E+02  0.26113982590E+02  0.83706040309E+02  0.16631217222E+03  0.12508700807E+03 0.  0.
          5    1    3    3  502    0 -0.11144175415E+02  0.25037211582E+02  0.10419541900E+03  0.10782027801E+03  0.41800000000E+01 0.  1.
         -5    1    3    3    0  502 -0.54615521718E+02  0.10767710081E+01 -0.20489378693E+02  0.58491894204E+02  0.41800000000E+01 0.  1.
        -11    1    1    2    0    0  0.33992853711E+02 -0.39492034422E+02  0.92813599647E+02  0.10644012009E+03  0.00000000000E+00 0. -1.
         11    1    1    2    0    0  0.31766843422E+02  0.13378051832E+02 -0.12342213781E+02  0.36611949591E+02  0.00000000000E+00 0.  1.
</event>
<event>
 7    1  0.2856214E-009  0.2132620E+03  0.7561462E-02  0.1139009E+00
         -1   -1    0    0    0  501 -0.00000000000E+00  0.00000000000E+00  0.62384002365E+02  0.62384002365E+02  0.00000000000E+00 0.  1.
          1   -1    0    0  501    0  0.00000000000E+00 -0.00000000000E+00 -0.89521653072E+03  0.89521653072E+03  0.00000000000E+00 0. -1.
         25    2    1    2    0    0 -0.19143439540E+03 -0.34163665900E+02 -0.27140997595E+03  0.35654676775E+03  0.12509172128E+03 0.  0.
          5    1    3    3  502    0 -0.47813406693E+02 -0.67515163148E+02 -0.82972536132E+02  0.11724475795E+03  0.41800000000E+01 0.  1.
         -5    1    3    3    0  502 -0.14362098871E+03  0.33351497248E+02 -0.18843743982E+03  0.23930200980E+03  0.41800000000E+01 0.  1.
        -11    1    1    2    0    0  0.10489433557E+03  0.31817498608E+02 -0.42946401242E+03  0.44323189508E+03  0.00000000000E+00 0.  1.
         11    1    1    2    0    0  0.86540059838E+02  0.23461672916E+01 -0.13195853998E+03  0.15782187026E+03  0.00000000000E+00 0. -1.
</event>
<event>
 7    1  0.2856214E-009  0.5796959E+02  0.7561462E-02  0.1406555E+00
         -3   -1    0    0    0  501 -0.00000000000E+00  0.00000000000E+00  0.14788761818E+02  0.14788761818E+02  0.00000000000E+00 0.  1.
          3   -1    0    0  501    0  0.00000000000E+00 -0.00000000000E+00 -0.10427023520E+04  0.10427023520E+04  0.00000000000E+00 0. -1.
         25    2    1    2    0    0 -0.28473499491E+02 -0.26179710729E+02 -0.78861809902E+03  0.79941399537E+03  0.12509241568E+03 0.  0.
          5    1    3    3  502    0 -0.17416492125E+01 -0.35336023640E+01  0.33572650214E+01  0.66530681696E+01  0.41800000000E+01 0.  1.
         -5    1    3    3    0  502 -0.26731850279E+02 -0.22646108365E+02 -0.79197536405E+03  0.79276092720E+03  0.41800000000E+01 0.  1.
        -11    1    1    2    0    0  0.15635102274E+02 -0.20906865628E+02 -0.18613431148E+02  0.32062646064E+02  0.00000000000E+00 0.  1.
         11    1    1    2    0    0  0.12838397217E+02  0.47086576358E+02 -0.22068206002E+03  0.22601447240E+03  0.00000000000E+00 0. -1.
</event>
<event>
 7    1  0.2856214E-009  0.1222062E+03  0.7561462E-02  0.1239501E+00
         -1   -1    0    0    0  501 -0.00000000000E+00  0.00000000000E+00  0.15736873637E+04  0.15736873637E+04  0.00000000000E+00 0.  1.
          1   -1    0    0  501    0  0.00000000000E+00 -0.00000000000E+00 -0.12297657007E+02  0.12297657007E+02  0.00000000000E+00 0. -1.
         25    2    1    2    0    0  0.84268272631E+02  0.16390478518E+02  0.87327911744E+03  0.88635943996E+03  0.12508737069E+03 0.  0.
          5    1    3    3  502    0 -0.15953815469E+02  0.39521810642E+01  0.16577350306E+02  0.23715499285E+02  0.41800000000E+01 0. -1.
         -5    1    3    3    0  502  0.10022208810E+03  0.12438297454E+02  0.85670176713E+03  0.86264394068E+03  0.41800000000E+01 0. -1.
        -11    1    1    2    0    0 -0.14487521922E+02 -0.47730122709E+02  0.26353818267E+03  0.26821712590E+03  0.00000000000E+00 0. -1.
         11    1    1    2    0    0 -0.69780750709E+02  0.31339644191E+02  0.42457240660E+03  0.43140845485E+03  0.00000000000E+00 0.  1.
</event>
<event>
 7    1  0.2856214E-009  0.1653892E+03  0.7561462E-02  0.1182743E+00
         -2   -1    0    0    0  501 -0.00000000000E+00  0.00000000000E+00  0.15411895245E+03  0.15411895245E+03  0.00000000000E+00 0.  1.
          2   -1    0    0  501    0  0.00000000000E+00 -0.00000000000E+00 -0.22249351139E+03  0.22249351139E+03  0.00000000000E+00 0. -1.
         25    2    1    2    0    0 -0.89218635312E+02 -0.10741245809E+03  0.18745246028E+02  0.18840320195E+03  0.12508789396E+03 0.  0.
          5    1    3    3  502    0 -0.50261737512E+02  0.22333685645E+01  0.46575473531E+02  0.68687534004E+02  0.41800000000E+01 0. -1.
         -5    1    3    3    0  502 -0.38956897800E+02 -0.10964582665E+03 -0.27830227503E+02  0.11971566794E+03  0.41800000000E+01 0. -1.
        -11    1    1    2    0    0  0.93811267391E+02  0.50079936645E+02 -0.72995861630E+02  0.12898430044E+03  0.00000000000E+00 0.  1.
         11    1    1    2    0    0 -0.45926320790E+01  0.57332521443E+02 -0.14123943336E+02  0.59224961458E+02  0.00000000000E+00 0. -1.
</event>
<event>
 7    1  0.2856214E-009  0.1522597E+03  0.7561462E-02  0.1197723E+00
         -1   -1    0    0    0  501 -0.00000000000E+00  0.00000000000E+00  0.66213182044E+02  0.66213182044E+02  0.00000000000E+00 0.  1.
          1   -1    0    0  501    0  0.00000000000E+00 -0.00000000000E+00 -0.43690353578E+03  0.43690353578E+03  0.00000000000E+00 0. -1.
         25    2    1    2    0    0  0.92479420602E+02  0.68582071066E+02 -0.10755479120E+03  0.20117472936E+03  0.12508914788E+03 0.  0.
          5    1    3    3  502    0  0.81923586859E+02  0.10252107253E+03 -0.98833333928E+02  0.16433972341E+03  0.41800000000E+01 0. -1.
         -5    1    3    3    0  502  0.10555833743E+02 -0.33939001464E+02 -0.87214572742E+01  0.36835005950E+02  0.41800000000E+01 0. -1.
        -11    1    1    2    0    0 -0.25298867798E+02 -0.65460794735E+02 -0.77771396313E+02  0.10475465834E+03  0.00000000000E+00 0.  1.
         11    1    1    2    0    0 -0.67180552804E+02 -0.31212763304E+01 -0.18536416622E+03  0.19718733012E+03  0.00000000000E+00 0. -1.
</event>
<event>
 7    1  0.2856214E-009  0.1372452E+03  0.7561462E-02  0.1217085E+00
         -2   -1    0    0    0  501 -0.00000000000E+00  0.00000000000E+00  0.48869033040E+02  0.48869033040E+02  0.00000000000E+00 0.  1.
          2   -1    0    0  501    0  0.00000000000E+00 -0.00000000000E+00 -0.61388896357E+03  0.61388896357E+03  0.00000000000E+00 0. -1.
         25    2    1    2    0    0 -0.78499841607E+02  0.66069645874E+02 -0.45284940783E+03  0.48088074746E+03  0.12508510647E+03 0.  0.
          5    1    3    3  502    0 -0.62401468350E+02 -0.26135725572E+02 -0.20483888307E+03  0.21576250792E+03  0.41800000000E+01 0. -1.
         -5    1    3    3    0  502 -0.16098373258E+02  0.92205371445E+02 -0.24801052476E+03  0.26511823954E+03  0.41800000000E+01 0. -1.
        -11    1    1    2    0    0  0.32529572386E+02 -0.51240374443E-02  0.11346691130E+02  0.34451712664E+02  0.00000000000E+00 0.  1.
         11    1    1    2    0    0  0.45970269221E+02 -0.66064521836E+02 -0.12351721382E+03  0.14742553649E+03  0.00000000000E+00 0. -1.
</event>
<event>
 7    1  0.2856214E-009  0.3283042E+03  0.7561462E-02  0.1071890E+00
          2   -1    0    0  501    0  0.00000000000E+00  0.00000000000E+00  0.10602646478E+04  0.10602646478E+04  0.00000000000E+00 0. -1.
         -2   -1    0    0    0  501 -0.00000000000E+00 -0.00000000000E+00 -0.11470347763E+03  0.11470347763E+03  0.00000000000E+00 0.  1.
         25    2    1    2    0    0 -0.29072047345E+03 -0.12473145876E+03  0.64522823652E+03  0.72941307978E+03  0.12509050030E+03 0.  0.
          5    1    3    3  502    0 -0.60205598410E+02  0.18455781057E+02  0.75930247103E+02  0.98732997318E+02  0.41800000000E+01 0. -1.
         -5    1    3    3    0  502 -0.23051487504E+03 -0.14318723981E+03  0.56929798941E+03  0.63068008246E+03  0.41800000000E+01 0. -1.
        -11    1    1    2    0    0  0.13251667500E+03  0.24343607567E+02  0.81490660636E+02  0.15746113220E+03  0.00000000000E+00 0. -1.
         11    1    1    2    0    0  0.15820379846E+03  0.10038785119E+03  0.21884227304E+03  0.28809391347E+03  0.00000000000E+00 0.  1.
</event>
<event>
 7    1  0.2856214E-009  0.1163105E+03  0.7561462E-02  0.1249311E+00
          1   -1    0    0  501    0  0.00000000000E+00  0.00000000000E+00  0.34144609044E+03  0.34144609044E+03  0.00000000000E+00 0.  1.
         -1   -1    0    0    0  501 -0.00000000000E+00 -0.00000000000E+00 -0.62552823670E+02  0.62552823670E+02  0.00000000000E+00 0. -1.
         25    2    1    2    0    0 -0.34357897466E+02  0.27631091758E+02  0.31359112909E+02  0.13628625288E+03  0.12508639579E+03 0.  0.
          5    1    3    3  502    0 -0.78790182579E+02  0.35843660060E+02  0.14434262495E+02  0.87854887008E+02  0.41800000000E+01 0.  1.
         -5    1    3    3    0  502  0.44432285113E+02 -0.82125683020E+01  0.16924850413E+02  0.48431365870E+02  0.41800000000E+01 0.  1.
        -11    1    1    2    0    0 -0.16270663099E+02 -0.44369244401E+02  0.94571702394E+02  0.10572214158E+03  0.00000000000E+00 0. -1.
         11    1    1    2    0    0  0.50628560565E+02  0.16738152643E+02  0.15296245147E+03  0.16199051966E+03  0.00000000000E+00 0.  1.
</event>
<event>
 7    1  0.2856214E-009  0.2146780E+03  0.7561462E-02  0.1137914E+00
         -1   -1    0    0    0  501 -0.00000000000E+00  0.00000000000E+00  0.29589224506E+03  0.29589224506E+03  0.00000000000E+00 0.  1.
          1   -1    0    0  501    0  0.00000000000E+00 -0.00000000000E+00 -0.18064812584E+03  0.18064812584E+03  0.00000000000E+00 0. -1.
         25    2    1    2    0    0 -0.19564803745E+03  0.44862024122E+02  0.22799489059E+02  0.23760884462E+03  0.12508953022E+03 0.  0.
          5    1    3    3  502    0 -0.75178286364E+02 -0.26544123540E+02  0.50943931533E+02  0.94705447547E+02  0.41800000000E+01 0. -1.
         -5    1    3    3    0  502 -0.12046975109E+03  0.71406147662E+02 -0.28144442474E+02  0.14290339707E+03  0.41800000000E+01 0. -1.
        -11    1    1    2    0    0  0.83726203125E+00 -0.11786933413E+02 -0.10780304088E+02  0.15995241894E+02  0.00000000000E+00 0. -1.
         11    1    1    2    0    0  0.19481077542E+03 -0.33075090709E+02  0.10322493425E+03  0.22293628439E+03  0.00000000000E+00 0.  1.
</event>
<event>
 7    1  0.2856214E-009  0.1192542E+03  0.7561462E-02  0.1244333E+00
         -1   -1    0    0    0  501 -0.00000000000E+00  0.00000000000E+00  0.12839491172E+03  0.12839491172E+03  0.00000000000E+00 0.  1.
          1   -1    0    0  501    0  0.00000000000E+00 -0.00000000000E+00 -0.20923060674E+03  0.20923060674E+03  0.00000000000E+00 0. -1.
         25    2    1    2    0    0  0.43321409385E+02  0.69695810765E+02 -0.13930995945E+03  0.20442109156E+03  0.12508583982E+03 0.  0.
          5    1    3    3  502    0 -0.34556757801E+02  0.29898000455E+02 -0.96723776413E+02  0.10705615940E+03  0.41800000000E+01 0.  1.
         -5    1    3    3    0  502  0.77878167187E+02  0.39797810310E+02 -0.42586183036E+02  0.97364932165E+02  0.41800000000E+01 0.  1.
        -11    1    1    2    0    0 -0.41551619365E+02 -0.82375549844E+02  0.22423403945E+02  0.94947761050E+02  0.00000000000E+00 0. -1.
         11    1    1    2    0    0 -0.17697900202E+01  0.12679739079E+02  0.36050860488E+02  0.38256665848E+02  0.00000000000E+00 0.  1.
</event>
<event>
 7    1  0.2856214E-009  0.1258186E+03  0.7561462E-02  0.1233796E+00
         -2   -1    0    0    0  501 -0.00000000000E+00  0.00000000000E+00  0.18498601326E+02  0.18498601326E+02  0.00000000000E+00 0.  1.
          2   -1    0    0  501    0  0.00000000000E+00 -0.00000000000E+00 -0.10233384504E+04  0.10233384504E+04  0.00000000000E+00 0. -1.
         25    2    1    2    0    0  0.76609363448E+02  0.14234959847E+02 -0.66185029463E+03  0.67806106794E+03  0.12509744483E+03 0.  0.
          5    1    3    3  502    0  0.72625410153E+02  0.54384143400E+02 -0.57592323110E+03  0.58304127278E+03  0.41800000000E+01 0. -1.
         -5    1    3    3    0  502  0.39839532951E+01 -0.40149183552E+02 -0.85927063530E+02  0.95019795151E+02  0.41800000000E+01 0. -1.
        -11    1    1    2    0    0 -0.21842480174E+02  0.38470821291E+02 -0.10486037601E+03  0.11381035316E+03  0.00000000000E+00 0. -1.
         11    1    1    2    0    0 -0.54766883275E+02 -0.52705781138E+02 -0.23812917841E+03  0.24996563060E+03  0.00000000000E+00 0.  1.
</event>
<event>
 7    1  0.2856214E-009  0.1702596E+03  0.7561462E-02  0.1177577E+00
         -2   -1    0    0    0  501 -0.00000000000E+00  0.00000000000E+00  0.10011973063E+03  0.10011973063E+03  0.00000000000E+00 0.  1.
          2   -1    0    0  501    0  0.00000000000E+00 -0.00000000000E+00 -0.35291454735E+03  0.35291454735E+03  0.00000000000E+00 0. -1.
         25    2    1    2    0    0 -0.41563149802E+02 -0.13130430408E+03 -0.53230993237E+02  0.19352165974E+03  0.12509507767E+03 0.  0.
          5    1    3    3  502    0 -0.32851743587E+02  0.17001343745E+02 -0.14387563062E+02  0.39909361266E+02  0.41800000000E+01 0. -1.
         -5    1    3    3    0  502 -0.87114062155E+01 -0.14830564783E+03 -0.38843430175E+02  0.15361229848E+03  0.41800000000E+01 0. -1.
        -11    1    1    2    0    0  0.51191541598E+02  0.45985454554E+02 -0.13688487119E+03  0.15320804131E+03  0.00000000000E+00 0. -1.
         11    1    1    2    0    0 -0.96283917960E+01  0.85318849528E+02 -0.62678952300E+02  0.10630457692E+03  0.00000000000E+00 0.  1.
</event>
<event>
 7    1  0.2856214E-009  0.1210977E+03  0.7561462E-02  0.1241297E+00
          1   -1    0    0  501    0  0.00000000000E+00  0.00000000000E+00  0.50826886083E+02  0.50826886083E+02  0.00000000000E+00 0. -1.
         -1   -1    0    0    0  501 -0.00000000000E+00 -0.00000000000E+00 -0.45525924448E+03  0.45525924448E+03  0.00000000000E+00 0.  1.
         25    2    1    2    0    0  0.10879569519E+02 -0.99835908931E+02 -0.15236088872E+03  0.22124072144E+03  0.12509213672E+03 0.  0.
          5    1    3    3  502    0  0.11143390728E+02  0.19176070802E+02 -0.77172611288E+02  0.80405106687E+02  0.41800000000E+01 0. -1.
         -5    1    3    3    0  502 -0.26382120821E+00 -0.11901197973E+03 -0.75188277428E+02  0.14083561476E+03  0.41800000000E+01 0. -1.
        -11    1    1    2    0    0 -0.32954094600E+01  0.14571490510E+02  0.34790092748E+01  0.15339216562E+02  0.00000000000E+00 0. -1.
         11    1    1    2    0    0 -0.75841600594E+01  0.85264418421E+02 -0.25555047896E+03  0.26950619256E+03  0.00000000000E+00 0.  1.
</event>
<event>
 7    1  0.2856214E-009  0.8292920E+02  0.7561462E-02  0.1320938E+00
          2   -1    0    0  501    0  0.00000000000E+00  0.00000000000E+00  0.37930184251E+03  0.37930184251E+03  0.00000000000E+00 0. -1.
         -2   -1    0    0    0  501 -0.00000000000E+00 -0.00000000000E+00 -0.35720078717E+02  0.35720078717E+02  0.00000000000E+00 0.  1.
         25    2    1    2    0    0  0.96914713315E+01 -0.40696256267E+02  0.17615856241E+03  0.22006687584E+03  0.12508989104E+03 0.  0.
          5    1    3    3  502    0  0.40127925299E+02 -0.44967119605E+02  0.24373049580E+02  0.65144533003E+02  0.41800000000E+01 0. -1.
         -5    1    3    3    0  502 -0.30436453968E+02  0.42708633387E+01  0.15178551283E+03  0.15492234284E+03  0.41800000000E+01 0. -1.
        -11    1    1    2    0    0  0.24452191964E+02  0.48613126661E+01  0.53582034532E+01  0.25500046998E+02  0.00000000000E+00 0.  1.
         11    1    1    2    0    0 -0.34143663295E+02  0.35834943601E+02  0.16206499792E+03  0.16945499839E+03  0.00000000000E+00 0. -1.
</event>
<event>
 7    1  0.2856214E-009  0.1111941E+03  0.7561462E-02  0.1258374E+00
          2   -1    0    0  501    0  0.00000000000E+00  0.00000000000E+00  0.35189665567E+03  0.35189665567E+03  0.00000000000E+00 0.  1.
         -2   -1    0    0    0  501 -0.00000000000E+00 -0.00000000000E+00 -0.47262082456E+02  0.47262082456E+02  0.00000000000E+00 0. -1.
         25    2    1    2    0    0 -0.64955476169E+02 -0.95310624617E+01  0.13150009450E+03  0.19300158825E+03  0.12508910095E+03 0.  0.
          5    1    3    3  502    0 -0.55952263744E+02  0.52333866016E+02  0.56566478376E+02  0.95324331763E+02  0.41800000000E+01 0.  1.
         -5    1    3    3    0  502 -0.90032124259E+01 -0.61864928478E+02  0.74933616122E+02  0.97677256486E+02  0.41800000000E+01 0.  1.
        -11    1    1    2    0    0  0.10558656123E+02 -0.18883136486E+02  0.12840713662E+03  0.13021693745E+03  0.00000000000E+00 0.  1.
         11    1    1    2    0    0  0.54396820046E+02  0.28414198948E+02  0.44727342095E+02  0.75940212429E+02  0.00000000000E+00 0. -1.
</event>
<event>
 7    1  0.2856214E-009  0.1071507E+03  0.7561462E-02  0.1265939E+00
          1   -1    0    0  501    0  0.00000000000E+00  0.00000000000E+00  0.41995886151E+03  0.41995886151E+03  0.00000000000E+00 0. -1.
         -1   -1    0    0    0  501 -0.00000000000E+00 -0.00000000000E+00 -0.47981399828E+02  0.47981399828E+02  0.00000000000E+00 0.  1.
         25    2    1    2    0    0  0.75570809332E+02  0.50053111283E+02  0.17806087298E+03  0.23573332407E+03  0.12509302308E+03 0.  0.
          5    1    3    3  502    0  0.31963928295E+02  0.68089720577E+02  0.31411006534E+02  0.81621237995E+02  0.41800000000E+01 0. -1.
         -5    1    3    3    0  502  0.43606881037E+02 -0.18036609295E+02  0.14664986644E+03  0.15411208608E+03  0.41800000000E+01 0. -1.
        -11    1    1    2    0    0 -0.60362962826E+02 -0.33197728680E+02  0.19754901693E+03  0.20921613360E+03  0.00000000000E+00 0. -1.
         11    1    1    2    0    0 -0.15207846505E+02 -0.16855382603E+02 -0.36324282238E+01  0.22990803658E+02  0.00000000000E+00 0.  1.
</event>
<event>
 7    1  0.2856214E-009  0.1166845E+03  0.7561462E-02  0.1248669E+00
          1   -1    0    0  501    0  0.00000000000E+00  0.00000000000E+00  0.46287678319E+03  0.46287678319E+03  0.00000000000E+00 0. -1.
         -1   -1    0    0    0  501 -0.00000000000E+00 -0.00000000000E+00 -0.37476194315E+02  0.37476194315E+02  0.00000000000E+00 0.  1.
         25    2    1    2    0    0 -0.37991690429E+02  0.63746798463E+02  0.26674056362E+03  0.30382170692E+03  0.12510027361E+03 0.  0.
          5    1    3    3  502    0 -0.63676645795E+02  0.74394001272E+02  0.12259327649E+03  0.15695784939E+03  0.41800000000E+01 0. -1.
         -5    1    3    3    0  502  0.25684955366E+02 -0.10647202809E+02  0.14414728713E+03  0.14686385752E+03  0.41800000000E+01 0. -1.
        -11    1    1    2    0    0 -0.23837778670E+02 -0.12409589660E+02  0.78710627573E+02  0.83172113719E+02  0.00000000000E+00 0. -1.
         11    1    1    2    0    0  0.61829469099E+02 -0.51337208802E+02  0.79949397677E+02  0.11335915687E+03  0.00000000000E+00 0.  1.
</event>
<event>
 7    1  0.2856214E-009  0.3250465E+03  0.7561462E-02  0.1073350E+00
         -2   -1    0    0    0  501 -0.00000000000E+00  0.00000000000E+00  0.43883854471E+02  0.43883854471E+02  0.00000000000E+00 0.  1.
          2   -1    0    0  501    0  0.00000000000E+00 -0.00000000000E+00 -0.25616205991E+04  0.25616205991E+04  0.00000000000E+00 0. -1.
         25    2    1    2    0    0 -0.24592924859E+03  0.19941852163E+03 -0.13624756719E+04  0.14043634767E+04  0.12509147074E+03 0.  0.
          5    1    3    3  502    0  0.92278783497E+01  0.15288166825E+02 -0.17286164053E+03  0.17383181800E+03  0.41800000000E+01 0. -1.
         -5    1    3    3    0  502 -0.25515712694E+03  0.18413035480E+03 -0.11896140314E+04  0.12305316587E+04  0.41800000000E+01 0. -1.
        -11    1    1    2    0    0  0.11717842418E+03 -0.10585104300E+03 -0.41649683770E+03  0.44542658454E+03  0.00000000000E+00 0.  1.
         11    1    1    2    0    0  0.12875082441E+03 -0.93567478632E+02 -0.73876423501E+03  0.75571439233E+03  0.00000000000E+00 0. -1.
</event>
<event>
 7    1  0.2856214E-009  0.1021482E+03  0.7561462E-02  0.1275842E+00
         -1   -1    0    0    0  501 -0.00000000000E+00  0.00000000000E+00  0.14292884666E+03  0.14292884666E+03  0.00000000000E+00 0.  1.
          1   -1    0    0  501    0  0.00000000000E+00 -0.00000000000E+00 -0.98892079144E+02  0.98892079144E+02  0.00000000000E+00 0. -1.
         25    2    1    2    0    0  0.35737946747E+02 -0.28126532602E+02  0.44405296998E+02  0.14031491542E+03  0.12509253541E+03 0.  0.
          5    1    3    3  502    0  0.57556557896E+01  0.34905968325E+02  0.58964729872E+02  0.68890245805E+02  0.41800000000E+01 0. -1.
         -5    1    3    3    0  502  0.29982290957E+02 -0.63032500927E+02 -0.14559432874E+02  0.71424669616E+02  0.41800000000E+01 0. -1.
        -11    1    1    2    0    0  0.12612105827E+02 -0.24331973955E+02 -0.10698287985E+02  0.29420461175E+02  0.00000000000E+00 0.  1.
         11    1    1    2    0    0 -0.48350052574E+02  0.52458506557E+02  0.10329758505E+02  0.72085549209E+02  0.00000000000E+00 0. -1.
</event>
<event>
 7    1  0.2856214E-009  0.2051818E+03  0.7561462E-02  0.1145439E+00
          2   -1    0    0  501    0  0.00000000000E+00  0.00000000000E+00  0.47974170216E+03  0.47974170216E+03  0.00000000000E+00 0. -1.
         -2   -1    0    0    0  501 -0.00000000000E+00 -0.00000000000E+00 -0.10363671487E+03  0.10363671487E+03  0.00000000000E+00 0.  1.
         25    2    1    2    0    0  0.18517143068E+03 -0.10739955155E+02  0.27290128418E+03  0.35288490683E+03  0.12509532838E+03 0.  0.
          5    1    3    3  502    0  0.15675145205E+03 -0.58630620627E+02  0.19444846439E+03  0.25658574609E+03  0.41800000000E+01 0. -1.
         -5    1    3    3    0  502  0.28419978626E+02  0.47890665472E+02  0.78452819791E+02  0.96299160732E+02  0.41800000000E+01 0. -1.
        -11    1    1    2    0    0 -0.16028114573E+03  0.17721375012E+02  0.11880779721E+03  0.20029824135E+03  0.00000000000E+00 0. -1.
         11    1    1    2    0    0 -0.24890284943E+02 -0.69814198573E+01 -0.15604094103E+02  0.30195268843E+02  0.00000000000E+00 0.  1.
</event>
<event>
 7    1  0.2856214E-009  0.1003924E+03  0.7561462E-02  0.1279473E+00
         -3   -1    0    0    0  501 -0.00000000000E+00  0.00000000000E+00  0.19773549747E+03  0.19773549747E+03  0.00000000000E+00 0.  1.
          3   -1    0    0  501    0  0.00000000000E+00 -0.00000000000E+00 -0.73816639581E+02  0.73816639581E+02  0.00000000000E+00 0. -1.
         25    2    1    2    0    0  0.21406937546E+02 -0.10716213986E+01  0.13886815061E+02  0.12768895577E+03  0.12510883440E+03 0.  0.
          5    1    3    3  502    0 -0.42493853066E+02  0.27982911529E+02 -0.12536491401E+02  0.52568116789E+02  0.41800000000E+01 0.  1.
         -5    1    3    3    0  502  0.63900790612E+02 -0.29054532928E+02  0.26423306462E+02  0.75120838979E+02  0.41800000000E+01 0.  1.
        -11    1    1    2    0    0  0.77561829330E+01 -0.33383638265E+02  0.86317461576E+02  0.92872653943E+02  0.00000000000E+00 0.  1.
         11    1    1    2    0    0 -0.29163120479E+02  0.34455259664E+02  0.23714581255E+02  0.50990527342E+02  0.00000000000E+00 0. -1.
</event>
<event>
 7    1  0.2856214E-009  0.6647221E+02  0.7561462E-02  0.1372518E+00
         -2   -1    0    0    0  501 -0.00000000000E+00  0.00000000000E+00  0.47352034810E+02  0.47352034810E+02  0.00000000000E+00 0.  1.
          2   -1    0    0  501    0  0.00000000000E+00 -0.00000000000E+00 -0.32080659946E+03  0.32080659946E+03  0.00000000000E+00 0. -1.
         25    2    1    2    0    0  0.23082811930E+02 -0.48495796653E+02 -0.12852375281E+03  0.18722138611E+03  0.12509529920E+03 0.  0.
          5    1    3    3  502    0  0.20675625794E+02 -0.42085796062E+02 -0.15372626046E+03  0.16077291839E+03  0.41800000000E+01 0.  1.
         -5    1    3    3    0  502  0.24071861355E+01 -0.64100005909E+01  0.25202507654E+02  0.26448467719E+02  0.41800000000E+01 0.  1.
        -11    1    1    2    0    0 -0.36344643991E+02  0.10845399843E+02 -0.86114590683E+01  0.38893612224E+02  0.00000000000E+00 0.  1.
         11    1    1    2    0    0  0.13261832061E+02  0.37650396809E+02 -0.13631935277E+03  0.14204363594E+03  0.00000000000E+00 0. -1.
</event>
<event>
 7    1  0.2856214E-009  0.2065366E+03  0.7561462E-02  0.1144338E+00
         -1   -1    0    0    0  501 -0.00000000000E+00  0.00000000000E+00  0.42053771931E+03  0.42053771931E+03  0.00000000000E+00 0.  1.
          1   -1    0    0  501    0  0.00000000000E+00 -0.00000000000E+00 -0.16056020582E+03  0.16056020582E+03  0.00000000000E+00 0. -1.
         25    2    1    2    0    0  0.19156818099E+03 -0.40119524104E+02  0.28001008260E+03  0.36381610584E+03  0.12509423777E+03 0.  0.
          5    1    3    3  502    0  0.45977786611E+02 -0.51449023047E+02  0.16160225646E+03  0.17576609606E+03  0.41800000000E+01 0.  1.
         -5    1    3    3    0  502  0.14559039438E+03  0.11329498942E+02  0.11840782614E+03  0.18805000977E+03  0.41800000000E+01 0.  1.
        -11    1    1    2    0    0 -0.57027577068E+02 -0.14327003135E+01  0.34057986062E+02  0.66439021598E+02  0.00000000000E+00 0.  1.
         11    1    1    2    0    0 -0.13454060393E+03  0.41552224418E+02 -0.54090555169E+02  0.15084279770E+03  0.00000000000E+00 0. -1.
</event>
<event>
 7    1  0.2856214E-009  0.1574280E+03  0.7561462E-02  0.1191632E+00
          2   -1    0    0  501    0  0.00000000000E+00  0.00000000000E+00  0.34165168414E+03  0.34165168414E+03  0.00000000000E+00 0. -1.
         -2   -1    0    0    0  501 -0.00000000000E+00 -0.00000000000E+00 -0.82983107423E+02  0.82983107423E+02  0.00000000000E+00 0.  1.
         25    2    1    2    0    0 -0.12394427850E+03  0.32017644666E+02  0.12842822054E+03  0.22029083961E+03  0.12508769901E+03 0.  0.
          5    1    3    3  502    0  0.10721440186E+02  0.34312760396E+02  0.57688796076E+02  0.68101280446E+02  0.41800000000E+01 0.  1.
         -5    1    3    3    0  502 -0.13466571869E+03 -0.22951157300E+01  0.70739424464E+02  0.15218955917E+03  0.41800000000E+01 0.  1.
        -11    1    1    2    0    0  0.10504159612E+03  0.19299461860E+01  0.12776075491E+03  0.16540940754E+03  0.00000000000E+00 0. -1.
         11    1    1    2    0    0  0.18902682378E+02 -0.33947590852E+02  0.24796012620E+01  0.38934544407E+02  0.00000000000E+00 0.  1.
</event>
<event>
 7    1  0.2856214E-009  0.8771512E+02  0.7561462E-02  0.1308481E+00
          1   -1    0    0  501    0  0.00000000000E+00  0.00000000000E+00  0.64782519584E+03  0.64782519584E+03  0.00000000000E+00 0. -1.
         -1   -1    0    0    0  501 -0.00000000000E+00 -0.00000000000E+00 -0.25836473257E+02  0.25836473257E+02  0.00000000000E+00 0.  1.
         25    2    1    2    0    0 -0.25423211592E+02  0.59645610824E+02  0.43115332062E+03  0.45359069927E+03  0.12508955994E+03 0.  0.
          5    1    3    3  502    0 -0.45498884423E+02  0.66078800481E+02  0.42306860592E+03  0.43062869630E+03  0.41800000000E+01 0. -1.
         -5    1    3    3    0  502  0.20075672831E+02 -0.64331896572E+01  0.80847146932E+01  0.22962002971E+02  0.41800000000E+01 0. -1.
        -11    1    1    2    0    0  0.24079451656E+02 -0.13834351839E+02  0.44394705678E+01  0.28123267623E+02  0.00000000000E+00 0.  1.
         11    1    1    2    0    0  0.13437599365E+01 -0.45811258985E+02  0.18639593140E+03  0.19194770221E+03  0.00000000000E+00 0. -1.
</event>
<event>
 7    1  0.2856214E-009  0.1193497E+03  0.7561462E-02  0.1244174E+00
          2   -1    0    0  501    0  0.00000000000E+00  0.00000000000E+00  0.31071979924E+03  0.31071979924E+03  0.00000000000E+00 0. -1.
         -2   -1    0    0    0  501 -0.00000000000E+00 -0.00000000000E+00 -0.13413545599E+03  0.13413545599E+03  0.00000000000E+00 0.  1.
         25    2    1    2    0    0 -0.11394851746E+03 -0.19445588544E+02  0.23139556555E+03  0.28732205261E+03  0.12509060163E+03 0.  0.
          5    1    3    3  502    0 -0.76848410647E+02  0.46664282867E+01  0.32758762323E+02  0.83773878273E+02  0.41800000000E+01 0. -1.
         -5    1    3    3    0  502 -0.37100106811E+02 -0.24112016831E+02  0.19863680323E+03  0.20354817434E+03  0.41800000000E+01 0. -1.
        -11    1    1    2    0    0  0.96862217500E+02  0.93655339339E+01 -0.79643210663E+02  0.12574992409E+03  0.00000000000E+00 0.  1.
         11    1    1    2    0    0  0.17086299958E+02  0.10080054610E+02  0.24831988371E+02  0.31783278523E+02  0.00000000000E+00 0. -1.
</event>
<event>
 7    1  0.2856214E-009  0.1153555E+03  0.7561462E-02  0.1250962E+00
         -1   -1    0    0    0  501 -0.00000000000E+00  0.00000000000E+00  0.22361805426E+02  0.22361805426E+02  0.00000000000E+00 0.  1.
          1   -1    0    0  501    0  0.00000000000E+00 -0.00000000000E+00 -0.65187942682E+03  0.65187942682E+03  0.00000000000E+00 0. -1.
         25    2    1    2    0    0 -0.25877360362E+02 -0.56287885486E+02 -0.34130360936E+03  0.36874631486E+03  0.12509087548E+03 0.  0.
          5    1    3    3  502    0  0.44735958697E+02 -0.14247214920E+02 -0.63954280364E+02  0.79447539360E+02  0.41800000000E+01 0. -1.
         -5    1    3    3    0  502 -0.70613319059E+02 -0.42040670566E+02 -0.27734932900E+03  0.28929877550E+03  0.41800000000E+01 0. -1.
        -11    1    1    2    0    0  0.49407706342E+02  0.59720555004E+02 -0.21968170457E+03  0.23295432483E+03  0.00000000000E+00 0.  1.
         11    1    1    2    0    0 -0.23530345979E+02 -0.34326695188E+01 -0.68532307473E+02  0.72540592563E+02  0.00000000000E+00 0. -1.
</event>
<event>
 7    1  0.2856214E-009  0.1166462E+03  0.7561462E-02  0.1248735E+00
          2   -1    0    0  501    0  0.00000000000E+00  0.00000000000E+00  0.92765592867E+03  0.92765592867E+03  0.00000000000E+00 0. -1.
         -2   -1    0    0    0  501 -0.00000000000E+00 -0.00000000000E+00 -0.23647914463E+02  0.23647914463E+02  0.00000000000E+00 0.  1.
         25    2    1    2    0    0 -0.27215257117E+02 -0.65649712265E+02  0.72739942107E+03  0.74148815103E+03  0.12507679802E+03 0.  0.
          5    1    3    3  502    0 -0.15605849817E+02 -0.90882444975E+02  0.31799959668E+03  0.33112592355E+03  0.41800000000E+01 0. -1.
         -5    1    3    3    0  502 -0.11609407300E+02  0.25232732710E+02  0.40939982439E+03  0.41036222749E+03  0.41800000000E+01 0. -1.
        -11    1    1    2    0    0  0.37747158383E+02  0.83801875980E+02  0.13669858050E+03  0.16472432818E+03  0.00000000000E+00 0.  1.
         11    1    1    2    0    0 -0.10531901266E+02 -0.18152163715E+02  0.39910012635E+02  0.45091363922E+02  0.00000000000E+00 0. -1.
</event>
<event>
 7    1  0.2856214E-009  0.2122025E+03  0.7561462E-02  0.1139834E+00
         -2   -1    0    0    0  501 -0.00000000000E+00  0.00000000000E+00  0.12891558833E+03  0.12891558833E+03  0.00000000000E+00 0. -1.
          2   -1    0    0  501    0  0.00000000000E+00 -0.00000000000E+00 -0.37960414424E+03  0.37960414424E+03  0.00000000000E+00 0.  1.
         25    2    1    2    0    0  0.14069089121E+03 -0.13075997729E+03 -0.11891774926E+03  0.25823606104E+03  0.12510928663E+03 0.  0.
          5    1    3    3  502    0  0.11505604881E+03 -0.21931224419E+02 -0.65320355054E+02  0.13417560940E+03  0.41800000000E+01 0.  1.
         -5    1    3    3    0  502  0.25634842399E+02 -0.10882875287E+03 -0.53597394210E+02  0.12406045164E+03  0.41800000000E+01 0.  1.
        -11    1    1    2    0    0 -0.73487570388E+02  0.44285331437E+02 -0.10849237798E+03  0.13831923099E+03  0.00000000000E+00 0.  1.
         11    1    1    2    0    0 -0.67203320825E+02  0.86474645849E+02 -0.23278428674E+02  0.11196444054E+03  0.00000000000E+00 0. -1.
</event>
<event>
 7    1  0.2856214E-009  0.1613180E+03  0.7561462E-02  0.1187217E+00
          3   -1    0    0  501    0  0.00000000000E+00  0.00000000000E+00  0.54166518636E+02  0.54166518636E+02  0.00000000000E+00 0. -1.
         -3   -1    0    0    0  501 -0.00000000000E+00 -0.00000000000E+00 -0.56512406050E+03  0.56512406050E+03  0.00000000000E+00 0.  1.
         25    2    1    2    0    0  0.10954226162E+03  0.71791033292E+02 -0.19874813665E+03  0.26888929314E+03  0.12508865098E+03 0.  0.
          5    1    3    3  502    0  0.23175594294E+02 -0.33859301141E+02 -0.69923648872E+02  0.81180967697E+02  0.41800000000E+01 0.  1.
         -5    1    3    3    0  502  0.86366667322E+02  0.10565033443E+03 -0.12882448778E+03  0.18770832545E+03  0.41800000000E+01 0.  1.
        -11    1    1    2    0    0 -0.68269422164E+02 -0.77879288375E+01 -0.77149386442E+02  0.10331211771E+03  0.00000000000E+00 0. -1.
         11    1    1    2    0    0 -0.41272839453E+02 -0.64003104455E+02 -0.23506001877E+03  0.24708916828E+03  0.00000000000E+00 0.  1.
</event>
<event>
 7    1  0.2856214E-009  0.1074002E+03  0.7561462E-02  0.1265462E+00
         -2   -1    0    0    0  501 -0.00000000000E+00  0.00000000000E+00  0.59133244100E+02  0.59133244100E+02  0.00000000000E+00 0.  1.
          2   -1    0    0  501    0  0.00000000000E+00 -0.00000000000E+00 -0.31005385362E+03  0.31005385362E+03  0.00000000000E+00 0. -1.
         25    2    1    2    0    0  0.62860555199E+02  0.73942013302E+01 -0.67954189220E+02  0.15578729720E+03  0.12508311845E+03 0.  0.
          5    1    3    3  502    0  0.85230798119E+02  0.13306034307E+02 -0.89155820315E+02  0.12412724195E+03  0.41800000000E+01 0. -1.
         -5    1    3    3    0  502 -0.22370242920E+02 -0.59118329769E+01  0.21201631095E+02  0.31660055251E+02  0.41800000000E+01 0. -1.
        -11    1    1    2    0    0 -0.78102778639E+02  0.13294220461E+02 -0.10653890121E+03  0.13276790952E+03  0.00000000000E+00 0.  1.
         11    1    1    2    0    0  0.15242223440E+02 -0.20688421791E+02 -0.76427519099E+02  0.80631891006E+02  0.00000000000E+00 0. -1.
</event>
<event>
 7    1  0.2856214E-009  0.1736726E+03  0.7561462E-02  0.1174071E+00
          2   -1    0    0  501    0  0.00000000000E+00  0.00000000000E+00  0.11424282778E+03  0.11424282778E+03  0.00000000000E+00 0. -1.
         -2   -1    0    0    0  501 -0.00000000000E+00 -0.00000000000E+00 -0.29695609288E+03  0.29695609288E+03  0.00000000000E+00 0.  1.
         25    2    1    2    0    0 -0.13202583652E+03 -0.61552028310E+02 -0.90997452719E+02  0.21248065731E+03  0.12509204463E+03 0.  0.
          5    1    3    3  502    0 -0.14081419350E+03 -0.13086673709E+02 -0.57250078696E+02  0.15262680640E+03  0.41800000000E+01 0. -1.
         -5    1    3    3    0  502  0.87883569817E+01 -0.48465354601E+02 -0.33747374024E+02  0.59853850908E+02  0.41800000000E+01 0. -1.
        -11    1    1    2    0    0  0.55883012453E+02  0.57495696982E+02 -0.96334643866E+00  0.80184750974E+02  0.00000000000E+00 0. -1.
         11    1    1    2    0    0  0.76142824068E+02  0.40563313275E+01 -0.90752465952E+02  0.11853351238E+03  0.00000000000E+00 0.  1.
</event>
<event>
 7    1  0.3053327E-009  0.8056955E+02  0.7561462E-02  0.1327443E+00
         -2   -1    0    0    0  501 -0.00000000000E+00  0.00000000000E+00  0.54008929195E+02  0.54008929195E+02  0.00000000000E+00 0. -1.
          2   -1    0    0  501    0  0.00000000000E+00 -0.00000000000E+00 -0.27468863607E+03  0.27468863607E+03  0.00000000000E+00 0.  1.
         25    2    1    2    0    0  0.34128637903E+02  0.24339899737E+02 -0.74200369610E+02  0.15135175911E+03  0.12507783773E+03 0.  0.
          5    1    3    3  502    0 -0.40283395752E+02  0.35643159476E+01 -0.60325324346E+02  0.72746638952E+02  0.41800000000E+01 0. -1.
         -5    1    3    3    0  502  0.74412033655E+02  0.20775583790E+02 -0.13875045264E+02  0.78605120161E+02  0.41800000000E+01 0. -1.
        -11    1    1    2    0    0 -0.27300754492E+02 -0.13894842299E+02 -0.15764936521E+03  0.16059800805E+03  0.00000000000E+00 0.  1.
         11    1    1    2    0    0 -0.68278834112E+01 -0.10445057438E+02  0.11170027949E+02  0.16747798099E+02  0.00000000000E+00 0. -1.
</event>
<event>
 7    1  0.2856214E-009  0.6715074E+02  0.7561462E-02  0.1370059E+00
         -1   -1    0    0    0  501 -0.00000000000E+00  0.00000000000E+00  0.32308458948E+03  0.32308458948E+03  0.00000000000E+00 0.  1.
          1   -1    0    0  501    0  0.00000000000E+00 -0.00000000000E+00 -0.37607379343E+02  0.37607379343E+02  0.00000000000E+00 0. -1.
         25    2    1    2    0    0 -0.60171967979E+01 -0.24785329928E+02  0.12958638954E+03  0.18190835008E+03  0.12508995259E+03 0.  0.
          5    1    3    3  502    0  0.16183649550E+02 -0.61147304204E+01 -0.21554027541E+02  0.27952619628E+02  0.41800000000E+01 0. -1.
         -5    1    3    3    0  502 -0.22200846348E+02 -0.18670599508E+02  0.15114041708E+03  0.15395573045E+03  0.41800000000E+01 0. -1.
        -11    1    1    2    0    0 -0.95943250776E+01 -0.29337391383E+02  0.47881212893E+02  0.56967922158E+02  0.00000000000E+00 0.  1.
         11    1    1    2    0    0  0.15611521875E+02  0.54122721312E+02  0.10800960771E+03  0.12181569658E+03  0.00000000000E+00 0. -1.
</event>
<event>
 7    1  0.2856214E-009  0.7383082E+02  0.7561462E-02  0.1347530E+00
         -2   -1    0    0    0  501 -0.00000000000E+00  0.00000000000E+00  0.51715885430E+02  0.51715885430E+02  0.00000000000E+00 0. -1.
          2   -1    0    0  501    0  0.00000000000E+00 -0.00000000000E+00 -0.30866240261E+03  0.30866240261E+03  0.00000000000E+00 0.  1.
         25    2    1    2    0    0 -0.30056113767E+02  0.15112131769E+02 -0.67542071494E+02  0.14608445565E+03  0.12508793012E+03 0.  0.
          5    1    3    3  502    0  0.16864076055E+02 -0.28433909356E+02 -0.74446665520E+02  0.81563856392E+02  0.41800000000E+01 0.  1.
         -5    1    3    3    0  502 -0.46920189821E+02  0.43546041126E+02  0.69045940264E+01  0.64520599263E+02  0.41800000000E+01 0.  1.
        -11    1    1    2    0    0  0.37510941209E+02 -0.53256684825E+01 -0.19648155373E+03  0.20010106049E+03  0.00000000000E+00 0.  1.
         11    1    1    2    0    0 -0.74548274420E+01 -0.97864632869E+01  0.70771080390E+01  0.14192771895E+02  0.00000000000E+00 0. -1.
</event>
<event>
 7    1  0.2856214E-009  0.1018360E+03  0.7561462E-02  0.1276482E+00
          1   -1    0    0  501    0  0.00000000000E+00  0.00000000000E+00  0.22134728896E+03  0.22134728896E+03  0.00000000000E+00 0. -1.
         -1   -1    0    0    0  501 -0.00000000000E+00 -0.00000000000E+00 -0.83890737471E+02  0.83890737471E+02  0.00000000000E+00 0.  1.
         25    2    1    2    0    0  0.32930660606E+02  0.64109478476E+02  0.23183433020E+02  0.14621797051E+03  0.12509104563E+03 0.  0.
          5    1    3    3  502    0 -0.34188338752E+02  0.30166039937E+02  0.48548031297E+02  0.66732422517E+02  0.41800000000E+01 0. -1.
         -5    1    3    3    0  502  0.67118999358E+02  0.33943438539E+02 -0.25364598278E+02  0.79485547998E+02  0.41800000000E+01 0. -1.
        -11    1    1    2    0    0 -0.14984425975E+02 -0.62799826796E+02  0.12308056266E+03  0.13898624454E+03  0.00000000000E+00 0. -1.
         11    1    1    2    0    0 -0.17946234631E+02 -0.13096516801E+01 -0.88074441911E+01  0.20033811373E+02  0.00000000000E+00 0.  1.
</event>
<event>
 7    1  0.2856214E-009  0.1105377E+03  0.7561462E-02  0.1259577E+00
         -2   -1    0    0    0  501 -0.00000000000E+00  0.00000000000E+00  0.52811917603E+02  0.52811917603E+02  0.00000000000E+00 0.  1.
          2   -1    0    0  501    0  0.00000000000E+00 -0.00000000000E+00 -0.39717967253E+03  0.39717967253E+03  0.00000000000E+00 0. -1.
         25    2    1    2    0    0  0.40112182977E+02 -0.61082556636E+02 -0.28319523509E+03  0.31809980832E+03  0.12509149022E+03 0.  0.
          5    1    3    3  502    0 -0.31867406407E+02 -0.16696244550E+02 -0.19476905016E+02  0.41123210018E+02  0.41800000000E+01 0. -1.
         -5    1    3    3    0  502  0.71979589384E+02 -0.44386312086E+02 -0.26371833008E+03  0.27697659830E+03  0.41800000000E+01 0. -1.
        -11    1    1    2    0    0 -0.39627631109E+02  0.52653854183E+00 -0.59276080206E+02  0.71304137851E+02  0.00000000000E+00 0. -1.
         11    1    1    2    0    0 -0.48455186820E+00  0.60556018094E+02 -0.18964396328E+01  0.60587643965E+02  0.00000000000E+00 0.  1.
</event>
<event>
 7    1  0.2856214E-009  0.9944954E+02  0.7561462E-02  0.1281458E+00
         -1   -1    0    0    0  501 -0.00000000000E+00  0.00000000000E+00  0.25520898943E+03  0.25520898943E+03  0.00000000000E+00 0.  1.
          1   -1    0    0  501    0  0.00000000000E+00 -0.00000000000E+00 -0.74507093375E+02  0.74507093375E+02  0.00000000000E+00 0. -1.
         25    2    1    2    0    0  0.49299589498E+02 -0.67489772332E+02  0.11486067280E+03  0.18927729734E+03  0.12509037629E+03 0.  0.
          5    1    3    3  502    0  0.45732826646E+02 -0.74168625704E+02  0.13873643563E+03  0.16388333486E+03  0.41800000000E+01 0.  1.
         -5    1    3    3    0  502  0.35667628521E+01  0.66788533727E+01 -0.23875762837E+02  0.25393962484E+02  0.41800000000E+01 0.  1.
        -11    1    1    2    0    0 -0.26565548922E+02  0.74605126902E+02  0.10118284542E+02  0.79837541493E+02  0.00000000000E+00 0. -1.
         11    1    1    2    0    0 -0.22734040576E+02 -0.71153545702E+01  0.55722938713E+02  0.60601243967E+02  0.00000000000E+00 0.  1.
</event>
<event>
 7    1  0.2856214E-009  0.1243648E+03  0.7561462E-02  0.1236065E+00
          1   -1    0    0  501    0  0.00000000000E+00  0.00000000000E+00  0.44496757550E+03  0.44496757550E+03  0.00000000000E+00 0. -1.
         -1   -1    0    0    0  501 -0.00000000000E+00 -0.00000000000E+00 -0.44811530357E+02  0.44811530357E+02  0.00000000000E+00 0.  1.
         25    2    1    2    0    0  0.17984669826E+02 -0.88331266565E+02  0.22627518270E+03  0.27381550365E+03  0.12509440728E+03 0.  0.
          5    1    3    3  502    0  0.28289168350E+02  0.25064497411E+02  0.78405514426E+02  0.87140135235E+02  0.41800000000E+01 0. -1.
         -5    1    3    3    0  502 -0.10304498523E+02 -0.11339576398E+03  0.14786966827E+03  0.18667536842E+03  0.41800000000E+01 0. -1.
        -11    1    1    2    0    0  0.91240257292E+01  0.42898960704E+02  0.15287285141E+03  0.15903986095E+03  0.00000000000E+00 0. -1.
         11    1    1    2    0    0 -0.27108695556E+02  0.45432305861E+02  0.21008011036E+02  0.56923741253E+02  0.00000000000E+00 0.  1.
</event>
<event>
 7    1  0.2856214E-009  0.1171197E+03  0.7561462E-02  0.1247926E+00
         -2   -1    0    0    0  501 -0.00000000000E+00  0.00000000000E+00  0.18557884034E+02  0.18557884034E+02  0.00000000000E+00 0.  1.
          2   -1    0    0  501    0  0.00000000000E+00 -0.00000000000E+00 -0.93116424330E+03  0.93116424330E+03  0.00000000000E+00 0. -1.
         25    2    1    2    0    0  0.22154090583E+01  0.72962368455E+02 -0.43336915690E+03  0.45693042666E+03  0.12509265931E+03 0.  0.
          5    1    3    3  502    0 -0.47719816985E+00 -0.28652001375E+02 -0.20355217655E+03  0.20560186254E+03  0.41800000000E+01 0. -1.
         -5    1    3    3    0  502  0.26926072281E+01  0.10161436983E+03 -0.22981698034E+03  0.25132856412E+03  0.41800000000E+01 0. -1.
        -11    1    1    2    0    0  0.30855370141E+02 -0.10017873313E+02 -0.66688048307E+02  0.74160012400E+02  0.00000000000E+00 0.  1.
         11    1    1    2    0    0 -0.33070779199E+02 -0.62944495142E+02 -0.41254915406E+03  0.41863168827E+03  0.00000000000E+00 0. -1.
</event>
<event>
 7    1  0.2856214E-009  0.1115665E+03  0.7561462E-02  0.1257696E+00
          2   -1    0    0  501    0  0.00000000000E+00  0.00000000000E+00  0.30907907063E+03  0.30907907063E+03  0.00000000000E+00 0. -1.
         -2   -1    0    0    0  501 -0.00000000000E+00 -0.00000000000E+00 -0.47370611170E+02  0.47370611170E+02  0.00000000000E+00 0.  1.
         25    2    1    2    0    0 -0.24602747823E+02  0.47487796066E+02  0.15189940206E+03  0.20391614122E+03  0.12509187955E+03 0.  0.
          5    1    3    3  502    0 -0.60539646957E+02 -0.62679862607E+01  0.35196971517E+02  0.70431780535E+02  0.41800000000E+01 0.  1.
         -5    1    3    3    0  502  0.35936899133E+02  0.53755782327E+02  0.11670243054E+03  0.13348436068E+03  0.41800000000E+01 0.  1.
        -11    1    1    2    0    0  0.30720858127E+02  0.15247640710E+02  0.12320991819E+02  0.36442674308E+02  0.00000000000E+00 0. -1.
         11    1    1    2    0    0 -0.61181103039E+01 -0.62735436777E+02  0.97488065586E+02  0.11609086628E+03  0.00000000000E+00 0.  1.
</event>
<event>
 7    1  0.2856214E-009  0.1548914E+03  0.7561462E-02  0.1194588E+00
         -2   -1    0    0    0  501 -0.00000000000E+00  0.00000000000E+00  0.17362867940E+03  0.17362867940E+03  0.00000000000E+00 0.  1.
          2   -1    0    0  501    0  0.00000000000E+00 -0.00000000000E+00 -0.19927211406E+03  0.19927211406E+03  0.00000000000E+00 0. -1.
         25    2    1    2    0    0  0.12409693843E+01 -0.12049497049E+03  0.77228024675E+02  0.19008617513E+03  0.12509199919E+03 0.  0.
          5    1    3    3  502    0 -0.46888342342E+02 -0.76826958807E+01  0.38810964964E+02  0.61492307364E+02  0.41800000000E+01 0. -1.
         -5    1    3    3    0  502  0.48129311726E+02 -0.11281227461E+03  0.38417059711E+02  0.12859386776E+03  0.41800000000E+01 0. -1.
        -11    1    1    2    0    0 -0.35207964295E+02  0.72120629414E+02 -0.23068623726E+02  0.83505373105E+02  0.00000000000E+00 0.  1.
         11    1    1    2    0    0  0.33966994910E+02  0.48374341075E+02 -0.79802835601E+02  0.99309245227E+02  0.00000000000E+00 0. -1.
</event>
<event>
 7    1  0.2856214E-009  0.1517261E+03  0.7561462E-02  0.1198368E+00
          2   -1    0    0  501    0  0.00000000000E+00  0.00000000000E+00  0.30478306977E+03  0.30478306977E+03  0.00000000000E+00 0. -1.
         -2   -1    0    0    0  501 -0.00000000000E+00 -0.00000000000E+00 -0.85335187616E+02  0.85335187616E+02  0.00000000000E+00 0.  1.
         25    2    1    2    0    0  0.83421718344E+02 -0.85036005837E+02  0.11594349615E+03  0.20803985466E+03  0.12508949376E+03 0.  0.
          5    1    3    3  502    0  0.30676930332E+02 -0.10993219818E+03  0.79094147600E+02  0.13892270814E+03  0.41800000000E+01 0. -1.
         -5    1    3    3    0  502  0.52744788012E+02  0.24896192344E+02  0.36849348546E+02  0.69117146526E+02  0.41800000000E+01 0. -1.
        -11    1    1    2    0    0 -0.14158171220E+02  0.52255661812E+02  0.88873271190E+02  0.10406520233E+03  0.00000000000E+00 0. -1.
         11    1    1    2    0    0 -0.69263547124E+02  0.32780344025E+02  0.14631114815E+02  0.78013200392E+02  0.00000000000E+00 0.  1.
</event>
<event>
 7    1  0.2856214E-009  0.1197228E+03  0.7561462E-02  0.1243555E+00
         -1   -1    0    0    0  501 -0.00000000000E+00  0.00000000000E+00  0.12247819690E+03  0.12247819690E+03  0.00000000000E+00 0.  1.
          1   -1    0    0  501    0  0.00000000000E+00 -0.00000000000E+00 -0.11985997528E+03  0.11985997528E+03  0.00000000000E+00 0. -1.
         25    2    1    2    0    0  0.17621427541E+02 -0.49653434840E+02  0.10588395819E+02  0.13615646978E+03  0.12510192579E+03 0.  0.
          5    1    3    3  502    0 -0.14061070997E+02 -0.85784654203E+02  0.13305050192E+01  0.87040009523E+02  0.41800000000E+01 0. -1.
         -5    1    3    3    0  502  0.31682498539E+02  0.36131219362E+02  0.92578907999E+01  0.49116460258E+02  0.41800000000E+01 0. -1.
        -11    1    1    2    0    0 -0.37120853265E+02 -0.12398098031E+02 -0.12219463415E+02  0.40999827659E+02  0.00000000000E+00 0. -1.
         11    1    1    2    0    0  0.19499425724E+02  0.62051532871E+02  0.42492892184E+01  0.65181874736E+02  0.00000000000E+00 0.  1.
</event>
<event>
 7    1  0.2856214E-009  0.1203478E+03  0.7561462E-02  0.1242524E+00
          2   -1    0    0  501    0  0.00000000000E+00  0.00000000000E+00  0.10605154738E+03  0.10605154738E+03  0.00000000000E+00 0. -1.
         -2   -1    0    0    0  501 -0.00000000000E+00 -0.00000000000E+00 -0.17416065442E+03  0.17416065442E+03  0.00000000000E+00 0.  1.
         25    2    1    2    0    0  0.80728802889E+02  0.14837755328E+02 -0.46127450298E+02  0.15656490847E+03  0.12509008871E+03 0.  0.
          5    1    3    3  502    0  0.73988366891E+02 -0.25830418488E+02  0.17716648800E+02  0.80453968200E+02  0.41800000000E+01 0.  1.
         -5    1    3    3    0  502  0.67404359979E+01  0.40668173816E+02 -0.63844099099E+02  0.76110940270E+02  0.41800000000E+01 0.  1.
        -11    1    1    2    0    0  0.17203305966E+02 -0.15038818494E+02 -0.10150009867E+02  0.25002849801E+02  0.00000000000E+00 0. -1.
         11    1    1    2    0    0 -0.97932108855E+02  0.20106316561E+00 -0.11831646880E+02  0.98644443529E+02  0.00000000000E+00 0.  1.
</event>
<event>
 7    1  0.2856214E-009  0.1301724E+03  0.7561462E-02  0.1227200E+00
         -2   -1    0    0    0  501 -0.00000000000E+00  0.00000000000E+00  0.41402778528E+03  0.41402778528E+03  0.00000000000E+00 0.  1.
          2   -1    0    0  501    0  0.00000000000E+00 -0.00000000000E+00 -0.59152786251E+02  0.59152786251E+02  0.00000000000E+00 0. -1.
         25    2    1    2    0    0 -0.87406175242E+02 -0.57942734243E+02  0.12346533169E+03  0.20466808982E+03  0.12509252151E+03 0.  0.
          5    1    3    3  502    0  0.12682629063E+02  0.56820402207E+00 -0.17552781863E+02  0.22062286529E+02  0.41800000000E+01 0.  1.
         -5    1    3    3    0  502 -0.10008880431E+03 -0.58510938265E+02  0.14101811356E+03  0.18260580329E+03  0.41800000000E+01 0.  1.
        -11    1    1    2    0    0 -0.12071014509E+02  0.22188803823E+02  0.20260736716E+02  0.32381319594E+02  0.00000000000E+00 0.  1.
         11    1    1    2    0    0  0.99477189751E+02  0.35753930420E+02  0.21114893062E+03  0.23613116212E+03  0.00000000000E+00 0. -1.
</event>
<event>
 7    1  0.2856214E-009  0.1887130E+03  0.7561462E-02  0.1159627E+00
         -2   -1    0    0    0  501 -0.00000000000E+00  0.00000000000E+00  0.11660457470E+03  0.11660457470E+03  0.00000000000E+00 0.  1.
          2   -1    0    0  501    0  0.00000000000E+00 -0.00000000000E+00 -0.37842214543E+03  0.37842214543E+03  0.00000000000E+00 0. -1.
         25    2    1    2    0    0  0.14367683760E+03  0.10631125305E+03 -0.14761428739E+03  0.26340434097E+03  0.12508698099E+03 0.  0.
          5    1    3    3  502    0  0.11064581243E+03  0.69015751373E+02 -0.27553761292E+02  0.13335048522E+03  0.41800000000E+01 0. -1.
         -5    1    3    3    0  502  0.33031025163E+02  0.37295501678E+02 -0.12006052610E+03  0.13005385575E+03  0.41800000000E+01 0. -1.
        -11    1    1    2    0    0 -0.61387255775E+02 -0.96106075478E+02 -0.89903932516E+02  0.14521532287E+03  0.00000000000E+00 0. -1.
         11    1    1    2    0    0 -0.82289581821E+02 -0.10205177573E+02 -0.24299350827E+02  0.86407056287E+02  0.00000000000E+00 0.  1.
</event>
<event>
 7    1  0.2856214E-009  0.1040984E+03  0.7561462E-02  0.1271906E+00
          2   -1    0    0  501    0  0.00000000000E+00  0.00000000000E+00  0.27225044813E+03  0.27225044813E+03  0.00000000000E+00 0. -1.
         -2   -1    0    0    0  501 -0.00000000000E+00 -0.00000000000E+00 -0.46298059333E+02  0.46298059333E+02  0.00000000000E+00 0.  1.
         25    2    1    2    0    0 -0.72604649881E+01  0.30851788828E+02  0.14135339625E+03  0.19139905317E+03  0.12509303617E+03 0.  0.
          5    1    3    3  502    0 -0.50636764291E+02 -0.26196634048E+02  0.59062793037E+02  0.82196298303E+02  0.41800000000E+01 0.  1.
         -5    1    3    3    0  502  0.43376299303E+02  0.57048422876E+02  0.82290603213E+02  0.10920275487E+03  0.41800000000E+01 0.  1.
        -11    1    1    2    0    0  0.39706258995E+02 -0.10979842868E+02  0.84929895593E+01  0.42062748656E+02  0.00000000000E+00 0.  1.
         11    1    1    2    0    0 -0.32445794007E+02 -0.19871945960E+02  0.76106002983E+02  0.85086705630E+02  0.00000000000E+00 0. -1.
</event>
<event>
 7    1  0.2856214E-009  0.1652735E+03  0.7561462E-02  0.1182868E+00
          2   -1    0    0  501    0  0.00000000000E+00  0.00000000000E+00  0.12166137824E+04  0.12166137824E+04  0.00000000000E+00 0. -1.
         -2   -1    0    0    0  501 -0.00000000000E+00 -0.00000000000E+00 -0.24743206167E+02  0.24743206167E+02  0.00000000000E+00 0.  1.
         25    2    1    2    0    0  0.28559417954E+02  0.13197992520E+03  0.62203428061E+03  0.64869788762E+03  0.12509181484E+03 0.  0.
          5    1    3    3  502    0  0.84830771894E+01 -0.15929929722E+02  0.20316233298E+03  0.20400522347E+03  0.41800000000E+01 0. -1.
         -5    1    3    3    0  502  0.20076340764E+02  0.14790985492E+03  0.41887194763E+03  0.44469266415E+03  0.41800000000E+01 0. -1.
        -11    1    1    2    0    0 -0.50344494121E+02 -0.30408563968E+02  0.19250456885E+03  0.20128899095E+03  0.00000000000E+00 0.  1.
         11    1    1    2    0    0  0.21785076168E+02 -0.10157136123E+03  0.37733172680E+03  0.39137011002E+03  0.00000000000E+00 0. -1.
</event>
<event>
 7    1  0.2856214E-009  0.1203841E+03  0.7561462E-02  0.1242465E+00
          1   -1    0    0  501    0  0.00000000000E+00  0.00000000000E+00  0.19554608889E+03  0.19554608889E+03  0.00000000000E+00 0. -1.
         -1   -1    0    0    0  501 -0.00000000000E+00 -0.00000000000E+00 -0.17479767648E+03  0.17479767648E+03  0.00000000000E+00 0.  1.
         25    2    1    2    0    0 -0.70340542062E+02  0.47902915574E+02  0.13309888876E+03  0.20150091936E+03  0.12507927540E+03 0.  0.
          5    1    3    3  502    0  0.11748736562E+02  0.30920072589E+02  0.10928316175E+03  0.11425570244E+03  0.41800000000E+01 0.  1.
         -5    1    3    3    0  502 -0.82089278624E+02  0.16982842985E+02  0.23815727016E+02  0.87245216913E+02  0.41800000000E+01 0.  1.
        -11    1    1    2    0    0 -0.20821171469E+02 -0.18094297049E+02 -0.12164180536E+02  0.30147836658E+02  0.00000000000E+00 0. -1.
         11    1    1    2    0    0  0.91161713531E+02 -0.29808618525E+02 -0.10018629581E+03  0.13869500936E+03  0.00000000000E+00 0.  1.
</event>
<event>
 7    1  0.2856214E-009  0.1037398E+03  0.7561462E-02  0.1272623E+00
          2   -1    0    0  501    0  0.00000000000E+00  0.00000000000E+00  0.31671968047E+03  0.31671968047E+03  0.00000000000E+00 0. -1.
         -2   -1    0    0    0  501 -0.00000000000E+00 -0.00000000000E+00 -0.44162787831E+02  0.44162787831E+02  0.00000000000E+00 0.  1.
         25    2    1    2    0    0 -0.16837559456E+02  0.25310088933E+02  0.21396123287E+03  0.24970194980E+03  0.12509016969E+03 0.  0.
          5    1    3    3  502    0 -0.22215705033E+02  0.75065569592E+02  0.13554325580E+03  0.15658168438E+03  0.41800000000E+01 0.  1.
         -5    1    3    3    0  502  0.53781455777E+01 -0.49755480659E+02  0.78417977069E+02  0.93120265426E+02  0.41800000000E+01 0.  1.
        -11    1    1    2    0    0  0.12759160872E+02 -0.51143532534E+02  0.67887718208E+01  0.53146444181E+02  0.00000000000E+00 0.  1.
         11    1    1    2    0    0  0.40783985834E+01  0.25833443601E+02  0.51806887943E+02  0.58034074315E+02  0.00000000000E+00 0. -1.
</event>
<event>
 7    1  0.2856214E-009  0.2047764E+03  0.7561462E-02  0.1145771E+00
         -2   -1    0    0    0  501 -0.00000000000E+00  0.00000000000E+00  0.30916945734E+03  0.30916945734E+03  0.00000000000E+00 0. -1.
          2   -1    0    0  501    0  0.00000000000E+00 -0.00000000000E+00 -0.16216235712E+03  0.16216235712E+03  0.00000000000E+00 0.  1.
         25    2    1    2    0    0 -0.67964725371E+00 -0.19534347154E+03  0.11185957294E+03  0.25752466987E+03  0.12508740040E+03 0.  0.
          5    1    3    3  502    0 -0.15507001041E+02 -0.39158726054E+02 -0.25114835466E+02  0.49214837884E+02  0.41800000000E+01 0. -1.
         -5    1    3    3    0  502  0.14827353787E+02 -0.15618474548E+03  0.13697440841E+03  0.20830983198E+03  0.41800000000E+01 0. -1.
        -11    1    1    2    0    0 -0.31060975017E+02  0.34846651802E+02  0.10827773337E+01  0.46693101391E+02  0.00000000000E+00 0.  1.
         11    1    1    2    0    0  0.31740622270E+02  0.16049681973E+03  0.34064749934E+02  0.16711404320E+03  0.00000000000E+00 0. -1.
</event>
<event>
 7    1  0.2856214E-009  0.3211796E+03  0.7561462E-02  0.1075108E+00
         -1   -1    0    0    0  501 -0.00000000000E+00  0.00000000000E+00  0.26415224921E+03  0.26415224921E+03  0.00000000000E+00 0.  1.
          1   -1    0    0  501    0  0.00000000000E+00 -0.00000000000E+00 -0.41105710679E+03  0.41105710679E+03  0.00000000000E+00 0. -1.
         25    2    1    2    0    0  0.23756194572E+03 -0.20186208116E+03 -0.54042883916E+02  0.34022334706E+03  0.12508922705E+03 0.  0.
          5    1    3    3  502    0 -0.15222297176E+01 -0.33471298053E+02  0.19045711930E+02  0.38766693431E+02  0.41800000000E+01 0. -1.
         -5    1    3    3    0  502  0.23908417543E+03 -0.16839078310E+03 -0.73088595846E+02  0.30145665363E+03  0.41800000000E+01 0. -1.
        -11    1    1    2    0    0 -0.11036796662E+03  0.60095232139E+02 -0.68059987965E+02  0.14291496403E+03  0.00000000000E+00 0.  1.
         11    1    1    2    0    0 -0.12719397910E+03  0.14176684902E+03 -0.24801985692E+02  0.19207104491E+03  0.00000000000E+00 0. -1.
</event>
<event>
 7    1  0.2856214E-009  0.1230623E+03  0.7561462E-02  0.1238129E+00
          1   -1    0    0  501    0  0.00000000000E+00  0.00000000000E+00  0.25759134636E+03  0.25759134636E+03  0.00000000000E+00 0. -1.
         -1   -1    0    0    0  501 -0.00000000000E+00 -0.00000000000E+00 -0.69712030014E+02  0.69712030014E+02  0.00000000000E+00 0.  1.
         25    2    1    2    0    0 -0.72105591113E+02 -0.23172115134E+02  0.76768968479E+02  0.16515864710E+03  0.12509093093E+03 0.  0.
          5    1    3    3  502    0 -0.50981885815E+02  0.42849128557E+02  0.67815033998E+02  0.95139643343E+02  0.41800000000E+01 0. -1.
         -5    1    3    3    0  502 -0.21123705297E+02 -0.66021243691E+02  0.89539344816E+01  0.70019003754E+02  0.41800000000E+01 0. -1.
        -11    1    1    2    0    0  0.89481969371E+02  0.23700991148E+02  0.65679553847E+02  0.11350138157E+03  0.00000000000E+00 0.  1.
         11    1    1    2    0    0 -0.17376378258E+02 -0.52887601419E+00  0.45430794018E+02  0.48643347709E+02  0.00000000000E+00 0. -1.
</event>
<event>
 7    1  0.2856214E-009  0.9716421E+02  0.7561462E-02  0.1286375E+00
         -1   -1    0    0    0  501 -0.00000000000E+00  0.00000000000E+00  0.37815524731E+02  0.37815524731E+02  0.00000000000E+00 0.  1.
          1   -1    0    0  501    0  0.00000000000E+00 -0.00000000000E+00 -0.37135633623E+03  0.37135633623E+03  0.00000000000E+00 0. -1.
         25    2    1    2    0    0 -0.45001950378E+01 -0.35549144877E+02 -0.13085624284E+03  0.18454071057E+03  0.12509166283E+03 0.  0.
          5    1    3    3  502    0  0.52981582114E+02  0.82517142873E+01 -0.78689439152E+02  0.95313372965E+02  0.41800000000E+01 0.  1.
         -5    1    3    3    0  502 -0.57481777151E+02 -0.43800859164E+02 -0.52166803690E+02  0.89227337601E+02  0.41800000000E+01 0.  1.
        -11    1    1    2    0    0 -0.22541904066E+02 -0.11490260548E+01 -0.68891368050E+01  0.23599108155E+02  0.00000000000E+00 0.  1.
         11    1    1    2    0    0  0.27042099103E+02  0.36698170932E+02 -0.19579543185E+03  0.20103204224E+03  0.00000000000E+00 0. -1.
</event>
<event>
 7    1  0.2856214E-009  0.8867570E+02  0.7561462E-02  0.1306091E+00
          1   -1    0    0  501    0  0.00000000000E+00  0.00000000000E+00  0.10762951824E+03  0.10762951824E+03  0.00000000000E+00 0. -1.
         -1   -1    0    0    0  501 -0.00000000000E+00 -0.00000000000E+00 -0.12898499301E+03  0.12898499301E+03  0.00000000000E+00 0.  1.
         25    2    1    2    0    0  0.32828453757E+02 -0.20110552986E+02  0.82273182493E+01  0.13114063336E+03  0.12509210701E+03 0.  0.
          5    1    3    3  502    0 -0.18651071609E+02  0.48740285083E+01 -0.47329666050E+02  0.51275611303E+02  0.41800000000E+01 0. -1.
         -5    1    3    3    0  502  0.51479525366E+02 -0.24984581494E+02  0.55556984299E+02  0.79865022061E+02  0.41800000000E+01 0. -1.
        -11    1    1    2    0    0  0.17354355072E+02 -0.26555827943E+02 -0.26169114430E+01  0.31831334612E+02  0.00000000000E+00 0. -1.
         11    1    1    2    0    0 -0.50182808829E+02  0.46666380929E+02 -0.26965881575E+02  0.73642543275E+02  0.00000000000E+00 0.  1.
</event>
<event>
 7    1  0.2856214E-009  0.1058976E+03  0.7561462E-02  0.1268361E+00
         -2   -1    0    0    0  501 -0.00000000000E+00  0.00000000000E+00  0.40680032186E+02  0.40680032186E+02  0.00000000000E+00 0.  1.
          2   -1    0    0  501    0  0.00000000000E+00 -0.00000000000E+00 -0.35209957902E+03  0.35209957902E+03  0.00000000000E+00 0. -1.
         25    2    1    2    0    0  0.15538680095E+02  0.15226061547E+02 -0.25943165818E+03  0.28883548082E+03  0.12509143129E+03 0.  0.
          5    1    3    3  502    0 -0.46797778500E+02 -0.18851070083E+02 -0.14987301878E+03  0.15819225352E+03  0.41800000000E+01 0.  1.
         -5    1    3    3    0  502  0.62336458595E+02  0.34077131629E+02 -0.10955863940E+03  0.13064322730E+03  0.41800000000E+01 0.  1.
        -11    1    1    2    0    0  0.29956290691E+02 -0.29778471474E+02 -0.23888142781E+02  0.48526076297E+02  0.00000000000E+00 0. -1.
         11    1    1    2    0    0 -0.45494970786E+02  0.14552409928E+02 -0.28099745872E+02  0.55418054094E+02  0.00000000000E+00 0.  1.
</event>
<event>
 7    1  0.2856214E-009  0.1160719E+03  0.7561462E-02  0.1249721E+00
          2   -1    0    0  501    0  0.00000000000E+00  0.00000000000E+00  0.19456306815E+03  0.19456306815E+03  0.00000000000E+00 0. -1.
         -2   -1    0    0    0  501 -0.00000000000E+00 -0.00000000000E+00 -0.11371728796E+03  0.11371728796E+03  0.00000000000E+00 0.  1.
         25    2    1    2    0    0  0.10017525510E+03 -0.87688893678E+01  0.56122705032E+02  0.17002359156E+03  0.12508512506E+03 0.  0.
          5    1    3    3  502    0  0.52413240016E+02 -0.32370067044E+02  0.88223951687E+02  0.10768429329E+03  0.41800000000E+01 0. -1.
         -5    1    3    3    0  502  0.47762015080E+02  0.23601177676E+02 -0.32101246655E+02  0.62339298272E+02  0.41800000000E+01 0. -1.
        -11    1    1    2    0    0  0.56623802074E+01  0.95697874672E+01 -0.20372532554E+02  0.23209555456E+02  0.00000000000E+00 0.  1.
         11    1    1    2    0    0 -0.10583763530E+03 -0.80089809941E+00  0.45095607717E+02  0.11504720909E+03  0.00000000000E+00 0. -1.
</event>
<event>
 7    1  0.2856214E-009  0.1318156E+03  0.7561462E-02  0.1224786E+00
          1   -1    0    0  501    0  0.00000000000E+00  0.00000000000E+00  0.38477907961E+03  0.38477907961E+03  0.00000000000E+00 0. -1.
         -1   -1    0    0    0  501 -0.00000000000E+00 -0.00000000000E+00 -0.47319919612E+02  0.47319919612E+02  0.00000000000E+00 0.  1.
         25    2    1    2    0    0  0.73555436952E+02  0.25507772013E+02  0.15477066930E+03  0.21368943856E+03  0.12509263504E+03 0.  0.
          5    1    3    3  502    0  0.23797597265E+02 -0.49438264522E+02  0.77364194384E+02  0.94937656424E+02  0.41800000000E+01 0. -1.
         -5    1    3    3    0  502  0.49757839687E+02  0.74946036535E+02  0.77406474912E+02  0.11875178214E+03  0.41800000000E+01 0. -1.
        -11    1    1    2    0    0 -0.32025839046E+02  0.33529394577E+02  0.57085347218E+02  0.73543263011E+02  0.00000000000E+00 0. -1.
         11    1    1    2    0    0 -0.41529597906E+02 -0.59037166590E+02  0.12560314348E+03  0.14486629765E+03  0.00000000000E+00 0.  1.
</event>
<event>
 7    1  0.2938465E-009  0.9017631E+02  0.7561462E-02  0.1302425E+00
         -2   -1    0    0    0  501 -0.00000000000E+00  0.00000000000E+00  0.14784371906E+02  0.14784371906E+02  0.00000000000E+00 0. -1.
          2   -1    0    0  501    0  0.00000000000E+00 -0.00000000000E+00 -0.13702872430E+04  0.13702872430E+04  0.00000000000E+00 0.  1.
         25    2    1    2    0    0  0.17521485794E+02  0.25872685067E+00 -0.11761887155E+04  0.11829514476E+04  0.12508862221E+03 0.  0.
          5    1    3    3  502    0  0.54207335685E+02 -0.31085749034E+02 -0.92614849295E+03  0.92826357379E+03  0.41800000000E+01 0.  1.
         -5    1    3    3    0  502 -0.36685849891E+02  0.31344475885E+02 -0.25004022255E+03  0.25468787377E+03  0.41800000000E+01 0.  1.
        -11    1    1    2    0    0 -0.43393933003E+02  0.73058463711E+00 -0.16860550570E+03  0.17410164769E+03  0.00000000000E+00 0.  1.
         11    1    1    2    0    0  0.25872447209E+02 -0.98931148777E+00 -0.10708649908E+02  0.28018519673E+02  0.00000000000E+00 0. -1.
</event>
<event>
 7    1  0.2856214E-009  0.7651425E+02  0.7561462E-02  0.1339245E+00
          1   -1    0    0  501    0  0.00000000000E+00  0.00000000000E+00  0.33297766627E+03  0.33297766627E+03  0.00000000000E+00 0. -1.
         -1   -1    0    0    0  501 -0.00000000000E+00 -0.00000000000E+00 -0.43455159067E+02  0.43455159067E+02  0.00000000000E+00 0.  1.
         25    2    1    2    0    0  0.39882996852E+02 -0.25777913012E+02  0.18957568173E+03  0.23203726222E+03  0.12508875937E+03 0.  0.
          5    1    3    3  502    0  0.35728624078E+02 -0.18820320688E+02 -0.16140358454E+01  0.40630241952E+02  0.41800000000E+01 0.  1.
         -5    1    3    3    0  502  0.41543727736E+01 -0.69575923239E+01  0.19118971757E+03  0.19140702027E+03  0.41800000000E+01 0.  1.
        -11    1    1    2    0    0 -0.65896940840E+02 -0.11013058012E+01  0.54402026004E+02  0.85458762686E+02  0.00000000000E+00 0.  1.
         11    1    1    2    0    0  0.26013943988E+02  0.26879218813E+02  0.45544799475E+02  0.58936800431E+02  0.00000000000E+00 0. -1.
</event>
<event>
 7    1  0.2856214E-009  0.1211763E+03  0.7561462E-02  0.1241169E+00
         -3   -1    0    0    0  501 -0.00000000000E+00  0.00000000000E+00  0.81472839153E+03  0.81472839153E+03  0.00000000000E+00 0.  1.
          3   -1    0    0  501    0  0.00000000000E+00 -0.00000000000E+00 -0.32025602782E+02  0.32025602782E+02  0.00000000000E+00 0. -1.
         25    2    1    2    0    0  0.51085113709E+02  0.30264244243E+02  0.68688419271E+03  0.70070251673E+03  0.12509400239E+03 0.  0.
          5    1    3    3  502    0 -0.41027734159E+02  0.18587392214E+02  0.20404129109E+03  0.20899542337E+03  0.41800000000E+01 0. -1.
         -5    1    3    3    0  502  0.92112847868E+02  0.11676852029E+02  0.48284290162E+03  0.49170709336E+03  0.41800000000E+01 0. -1.
        -11    1    1    2    0    0 -0.34208821278E+02  0.27564431017E+02  0.64814153521E+02  0.78300164797E+02  0.00000000000E+00 0.  1.
         11    1    1    2    0    0 -0.16876292431E+02 -0.57828675260E+02  0.31004442520E+02  0.67751312789E+02  0.00000000000E+00 0. -1.
</event>
<event>
 7    1  0.2856214E-009  0.7478447E+02  0.7561462E-02  0.1344540E+00
         -2   -1    0    0    0  501 -0.00000000000E+00  0.00000000000E+00  0.13904732924E+03  0.13904732924E+03  0.00000000000E+00 0.  1.
          2   -1    0    0  501    0  0.00000000000E+00 -0.00000000000E+00 -0.12430724384E+03  0.12430724384E+03  0.00000000000E+00 0. -1.
         25    2    1    2    0    0  0.80718547746E+01  0.35280005563E+02  0.72084799099E+02  0.14884328263E+03  0.12509304893E+03 0.  0.
          5    1    3    3  502    0  0.31338269292E+02  0.32498760621E+02  0.10140405261E+03  0.11107884970E+03  0.41800000000E+01 0. -1.
         -5    1    3    3    0  502 -0.23266414517E+02  0.27812449426E+01 -0.29319253512E+02  0.37764432929E+02  0.41800000000E+01 0. -1.
        -11    1    1    2    0    0  0.26643079348E+02  0.51517030305E+01 -0.54811098477E+02  0.61160855434E+02  0.00000000000E+00 0. -1.
         11    1    1    2    0    0 -0.34714934122E+02 -0.40431708594E+02 -0.25336152176E+01  0.53350435022E+02  0.00000000000E+00 0.  1.
</event>
<event>
 7    1  0.2856214E-009  0.1200825E+03  0.7561462E-02  0.1242961E+00
         -2   -1    0    0    0  501 -0.00000000000E+00  0.00000000000E+00  0.38919470773E+02  0.38919470773E+02  0.00000000000E+00 0.  1.
          2   -1    0    0  501    0  0.00000000000E+00 -0.00000000000E+00 -0.53296190369E+03  0.53296190369E+03  0.00000000000E+00 0. -1.
         25    2    1    2    0    0 -0.24448136482E+02  0.85545834710E+02 -0.33556242409E+03  0.36900782210E+03  0.12509528807E+03 0.  0.
          5    1    3    3  502    0  0.23089425452E+02  0.94953756290E+02 -0.27144223452E+03  0.28852676909E+03  0.41800000000E+01 0.  1.
         -5    1    3    3    0  502 -0.47537561934E+02 -0.94079215803E+01 -0.64120189570E+02  0.80481053010E+02  0.41800000000E+01 0.  1.
        -11    1    1    2    0    0 -0.40614106691E+01 -0.38440383724E+02 -0.39839896940E+01  0.38859108731E+02  0.00000000000E+00 0.  1.
         11    1    1    2    0    0  0.28509547151E+02 -0.47105450986E+02 -0.15449601913E+03  0.16401444363E+03  0.00000000000E+00 0. -1.
</event>
<event>
 7    1  0.2856214E-009  0.1226970E+03  0.7561462E-02  0.1238713E+00
         -3   -1    0    0    0  501 -0.00000000000E+00  0.00000000000E+00  0.19555567915E+03  0.19555567915E+03  0.00000000000E+00 0.  1.
          3   -1    0    0  501    0  0.00000000000E+00 -0.00000000000E+00 -0.87193581043E+02  0.87193581043E+02  0.00000000000E+00 0. -1.
         25    2    1    2    0    0  0.59245420911E+02 -0.10011014975E+02  0.13138762674E+02  0.13939408284E+03  0.12509133834E+03 0.  0.
          5    1    3    3  502    0  0.97701924667E+02  0.32887221363E+01  0.81474325156E+01  0.98185206796E+02  0.41800000000E+01 0.  1.
         -5    1    3    3    0  502 -0.38456503756E+02 -0.13299737111E+02  0.49913301583E+01  0.41208876048E+02  0.41800000000E+01 0.  1.
        -11    1    1    2    0    0  0.25740826366E+01 -0.31868606865E+02  0.35187617187E+02  0.47543689468E+02  0.00000000000E+00 0.  1.
         11    1    1    2    0    0 -0.61819503548E+02  0.41879621840E+02  0.60035718244E+02  0.95811487878E+02  0.00000000000E+00 0. -1.
</event>
<event>
 7    1  0.2856214E-009  0.1531104E+03  0.7561462E-02  0.1196702E+00
          2   -1    0    0  501    0  0.00000000000E+00  0.00000000000E+00  0.21523195237E+03  0.21523195237E+03  0.00000000000E+00 0. -1.
         -2   -1    0    0    0  501 -0.00000000000E+00 -0.00000000000E+00 -0.11561935530E+03  0.11561935530E+03  0.00000000000E+00 0.  1.
         25    2    1    2    0    0  0.11105591203E+03  0.17364160111E+02  0.26457329669E+02  0.17023658301E+03  0.12508226993E+03 0.  0.
          5    1    3    3  502    0 -0.26595134777E+02  0.10975739646E+02  0.12577575759E+02  0.31677055837E+02  0.41800000000E+01 0. -1.
         -5    1    3    3    0  502  0.13765104680E+03  0.63884204652E+01  0.13879753911E+02  0.13855952717E+03  0.41800000000E+01 0. -1.
        -11    1    1    2    0    0  0.59944990869E+01  0.16400885009E+02 -0.18391849445E+01  0.17558634618E+02  0.00000000000E+00 0.  1.
         11    1    1    2    0    0 -0.11705041111E+03 -0.33765045120E+02  0.74994452343E+02  0.14305609003E+03  0.00000000000E+00 0. -1.
</event>
<event>
 7    1  0.2856214E-009  0.1008838E+03  0.7561462E-02  0.1278448E+00
          1   -1    0    0  501    0  0.00000000000E+00  0.00000000000E+00  0.27858356903E+03  0.27858356903E+03  0.00000000000E+00 0. -1.
         -1   -1    0    0    0  501 -0.00000000000E+00 -0.00000000000E+00 -0.52558821733E+02  0.52558821733E+02  0.00000000000E+00 0.  1.
         25    2    1    2    0    0 -0.47938162200E+02 -0.23917309148E+02  0.15040607153E+03  0.20283225096E+03  0.12509528610E+03 0.  0.
          5    1    3    3  502    0 -0.41380473048E+02  0.47294933006E+02  0.55648230299E+02  0.84043751541E+02  0.41800000000E+01 0. -1.
         -5    1    3    3    0  502 -0.65576891522E+01 -0.71212242154E+02  0.94757841235E+02  0.11878849942E+03  0.41800000000E+01 0. -1.
        -11    1    1    2    0    0  0.63613524706E+01  0.24761392610E+02 -0.14262625732E+02  0.29274833253E+02  0.00000000000E+00 0.  1.
         11    1    1    2    0    0  0.41576809730E+02 -0.84408346177E+00  0.89881301491E+02  0.99035306542E+02  0.00000000000E+00 0. -1.
</event>
<event>
 7    1  0.2856214E-009  0.1440150E+03  0.7561462E-02  0.1208026E+00
          1   -1    0    0  501    0  0.00000000000E+00  0.00000000000E+00  0.33196916187E+03  0.33196916187E+03  0.00000000000E+00 0. -1.
         -1   -1    0    0    0  501 -0.00000000000E+00 -0.00000000000E+00 -0.84706043763E+02  0.84706043763E+02  0.00000000000E+00 0.  1.
         25    2    1    2    0    0  0.86483487580E+02 -0.47643514190E+02  0.23214093950E+03  0.28157748349E+03  0.12508862998E+03 0.  0.
          5    1    3    3  502    0  0.11300803009E+03 -0.56358352710E+02  0.21236167806E+03  0.24710733193E+03  0.41800000000E+01 0.  1.
         -5    1    3    3    0  502 -0.26524542508E+02  0.87148385204E+01  0.19779261443E+02  0.34470151565E+02  0.41800000000E+01 0.  1.
        -11    1    1    2    0    0  0.19024533468E+02  0.94286312385E+01  0.78831136423E+01  0.22648961155E+02  0.00000000000E+00 0.  1.
         11    1    1    2    0    0 -0.10550802105E+03  0.38214882951E+02  0.72390649573E+01  0.11244876098E+03  0.00000000000E+00 0. -1.
</event>
<event>
 7    1  0.2856214E-009  0.1358646E+03  0.7561462E-02  0.1219004E+00
         -4   -1    0    0    0  501 -0.00000000000E+00  0.00000000000E+00  0.26733085687E+03  0.26733085687E+03  0.00000000000E+00 0.  1.
          4   -1    0    0  501    0  0.00000000000E+00 -0.00000000000E+00 -0.80808866006E+02  0.80808866006E+02  0.00000000000E+00 0. -1.
         25    2    1    2    0    0  0.87047470474E+02 -0.43006537521E+02  0.12282021423E+03  0.20040016954E+03  0.12509435855E+03 0.  0.
          5    1    3    3  502    0  0.21115967901E+02 -0.75646413015E+02  0.35919240753E+02  0.86463449843E+02  0.41800000000E+01 0.  1.
         -5    1    3    3    0  502  0.65931502573E+02  0.32639875494E+02  0.86900973473E+02  0.11393671969E+03  0.41800000000E+01 0.  1.
        -11    1    1    2    0    0 -0.65711706327E+02  0.62356695487E+02  0.74183727029E+02  0.11708804882E+03  0.00000000000E+00 0.  1.
         11    1    1    2    0    0 -0.21335764147E+02 -0.19350157966E+02 -0.10481950395E+02  0.30651504516E+02  0.00000000000E+00 0. -1.
</event>
<event>
 7    1  0.2856214E-009  0.1343620E+03  0.7561462E-02  0.1221123E+00
          1   -1    0    0  501    0  0.00000000000E+00  0.00000000000E+00  0.17015173914E+03  0.17015173914E+03  0.00000000000E+00 0. -1.
         -1   -1    0    0    0  501 -0.00000000000E+00 -0.00000000000E+00 -0.14342067042E+03  0.14342067042E+03  0.00000000000E+00 0.  1.
         25    2    1    2    0    0  0.12197971789E+02  0.90924700792E+02 -0.50457811229E+02  0.16313087188E+03  0.12509835697E+03 0.  0.
          5    1    3    3  502    0 -0.50945734109E+02  0.95114716611E+01 -0.15624087496E+02  0.54291071339E+02  0.41800000000E+01 0.  1.
         -5    1    3    3    0  502  0.63143705898E+02  0.81413229131E+02 -0.34833723732E+02  0.10883980054E+03  0.41800000000E+01 0.  1.
        -11    1    1    2    0    0  0.20475232527E+02 -0.74074734764E+02  0.83119499619E+02  0.11320403126E+03  0.00000000000E+00 0. -1.
         11    1    1    2    0    0 -0.32673204315E+02 -0.16849966028E+02 -0.59306196709E+01  0.37237506429E+02  0.00000000000E+00 0.  1.
</event>
<event>
 7    1  0.2856214E-009  0.7934780E+02  0.7561462E-02  0.1330913E+00
         -1   -1    0    0    0  501 -0.00000000000E+00  0.00000000000E+00  0.28231500598E+03  0.28231500598E+03  0.00000000000E+00 0.  1.
          1   -1    0    0  501    0  0.00000000000E+00 -0.00000000000E+00 -0.59962209078E+02  0.59962209078E+02  0.00000000000E+00 0. -1.
         25    2    1    2    0    0 -0.28832488720E+02  0.20548096037E+01  0.20317748580E+03  0.24034180856E+03  0.12509020568E+03 0.  0.
          5    1    3    3  502    0 -0.30861869062E+02 -0.19362525932E+02  0.69685539640E+00  0.36678609297E+02  0.41800000000E+01 0.  1.
         -5    1    3    3    0  502  0.20293803420E+01  0.21417335536E+02  0.20248063040E+03  0.20366319926E+03  0.41800000000E+01 0.  1.
        -11    1    1    2    0    0  0.44894166868E+02 -0.39224920829E+02  0.12034853094E+02  0.60818733313E+02  0.00000000000E+00 0.  1.
         11    1    1    2    0    0 -0.16061678148E+02  0.37170111225E+02  0.71404580111E+01  0.41116673187E+02  0.00000000000E+00 0. -1.
</event>
<event>
 7    1  0.2856214E-009  0.5891131E+02  0.7561462E-02  0.1402458E+00
          1   -1    0    0  501    0  0.00000000000E+00  0.00000000000E+00  0.24412071671E+03  0.24412071671E+03  0.00000000000E+00 0. -1.
         -1   -1    0    0    0  501 -0.00000000000E+00 -0.00000000000E+00 -0.53793076675E+02  0.53793076675E+02  0.00000000000E+00 0.  1.
         25    2    1    2    0    0  0.54431008542E+01 -0.10505992110E+02  0.16068867584E+03  0.20398131581E+03  0.12509006132E+03 0.  0.
          5    1    3    3  502    0  0.18441285581E+02 -0.14309888132E+02 -0.14779195373E+02  0.27941920623E+02  0.41800000000E+01 0. -1.
         -5    1    3    3    0  502 -0.12998184726E+02  0.38038960223E+01  0.17546787121E+03  0.17603939519E+03  0.41800000000E+01 0. -1.
        -11    1    1    2    0    0 -0.42138493979E+02  0.15701496781E+01  0.36229519763E+02  0.55594029780E+02  0.00000000000E+00 0. -1.
         11    1    1    2    0    0  0.36695393125E+02  0.89358424315E+01 -0.65905555656E+01  0.38338447794E+02  0.00000000000E+00 0.  1.
</event>
<event>
 7    1  0.2856214E-009  0.9292695E+02  0.7561462E-02  0.1295915E+00
          2   -1    0    0  501    0  0.00000000000E+00  0.00000000000E+00  0.18408574735E+03  0.18408574735E+03  0.00000000000E+00 0. -1.
         -2   -1    0    0    0  501 -0.00000000000E+00 -0.00000000000E+00 -0.11948611401E+03  0.11948611401E+03  0.00000000000E+00 0.  1.
         25    2    1    2    0    0 -0.13127014499E+02 -0.23685289108E+02  0.13381161799E+03  0.18516661065E+03  0.12509121935E+03 0.  0.
          5    1    3    3  502    0 -0.66822528140E+02 -0.27861071675E+02  0.62713605572E+02  0.95874701073E+02  0.41800000000E+01 0.  1.
         -5    1    3    3    0  502  0.53695513641E+02  0.41757825665E+01  0.71098012422E+02  0.89291909575E+02  0.41800000000E+01 0.  1.
        -11    1    1    2    0    0  0.24391484824E+02  0.35447988313E+02  0.41764992080E+01  0.43231326061E+02  0.00000000000E+00 0. -1.
         11    1    1    2    0    0 -0.11264470325E+02 -0.11762699205E+02 -0.73388483858E+02  0.75173924650E+02  0.00000000000E+00 0.  1.
</event>
<event>
 7    1  0.2856214E-009  0.1053134E+03  0.7561462E-02  0.1269503E+00
         -2   -1    0    0    0  501 -0.00000000000E+00  0.00000000000E+00  0.11454586030E+03  0.11454586030E+03  0.00000000000E+00 0.  1.
          2   -1    0    0  501    0  0.00000000000E+00 -0.00000000000E+00 -0.10732844926E+03  0.10732844926E+03  0.00000000000E+00 0. -1.
         25    2    1    2    0    0  0.38646624525E+01 -0.17008997084E+02  0.11943259034E+02  0.12686179823E+03  0.12508810022E+03 0.  0.
          5    1    3    3  502    0  0.62935049540E+02 -0.15095755303E+00 -0.41880993259E+01  0.63212782131E+02  0.41800000000E+01 0. -1.
         -5    1    3    3    0  502 -0.59070387088E+02 -0.16858039531E+02  0.16131358360E+02  0.63649016097E+02  0.41800000000E+01 0. -1.
        -11    1    1    2    0    0  0.33653990169E+02 -0.14827958892E+02  0.17845036405E+02  0.40876701720E+02  0.00000000000E+00 0.  1.
         11    1    1    2    0    0 -0.37518652622E+02  0.31836955975E+02 -0.22570884396E+02  0.54135809616E+02  0.00000000000E+00 0. -1.
</event>
<event>
 7    1  0.2856214E-009  0.1858725E+03  0.7561462E-02  0.1162238E+00
          2   -1    0    0  501    0  0.00000000000E+00  0.00000000000E+00  0.93347411649E+03  0.93347411649E+03  0.00000000000E+00 0.  1.
         -2   -1    0    0    0  501 -0.00000000000E+00 -0.00000000000E+00 -0.55993267315E+02  0.55993267315E+02  0.00000000000E+00 0. -1.
         25    2    1    2    0    0 -0.13829419106E+03  0.10335476804E+03  0.68086289592E+03  0.71346282960E+03  0.12508970714E+03 0.  0.
          5    1    3    3  502    0 -0.78226034833E+02  0.90046670755E+02  0.60007267556E+03  0.61182710286E+03  0.41800000000E+01 0. -1.
         -5    1    3    3    0  502 -0.60068156225E+02  0.13308097285E+02  0.80790220356E+02  0.10163572674E+03  0.41800000000E+01 0. -1.
        -11    1    1    2    0    0  0.99602161275E+02 -0.11321957914E+03  0.13395435743E+03  0.20170035574E+03  0.00000000000E+00 0. -1.
         11    1    1    2    0    0  0.38692029782E+02  0.98648111015E+01  0.62663595832E+02  0.74304198464E+02  0.00000000000E+00 0.  1.
</event>
<event>
 7    1  0.2856214E-009  0.1233120E+03  0.7561462E-02  0.1237731E+00
          3   -1    0    0  501    0  0.00000000000E+00  0.00000000000E+00  0.85491446817E+02  0.85491446817E+02  0.00000000000E+00 0. -1.
         -3   -1    0    0    0  501 -0.00000000000E+00 -0.00000000000E+00 -0.22677153614E+03  0.22677153614E+03  0.00000000000E+00 0.  1.
         25    2    1    2    0    0 -0.78245516415E+02  0.17927680664E+02 -0.11564698489E+03  0.18832155003E+03  0.12508804307E+03 0.  0.
          5    1    3    3  502    0 -0.10676619553E+03  0.19742148022E+02 -0.11665744099E+03  0.15942146611E+03  0.41800000000E+01 0. -1.
         -5    1    3    3    0  502  0.28520679120E+02 -0.18144673575E+01  0.10104560994E+01  0.28900083923E+02  0.41800000000E+01 0. -1.
        -11    1    1    2    0    0  0.82755276058E+02  0.76544503542E+01 -0.42122042558E+02  0.93173455420E+02  0.00000000000E+00 0. -1.
         11    1    1    2    0    0 -0.45097596429E+01 -0.25582131019E+02  0.16488938125E+02  0.30767977509E+02  0.00000000000E+00 0.  1.
</event>
<event>
 7    1  0.2856214E-009  0.1138501E+03  0.7561462E-02  0.1253602E+00
         -2   -1    0    0    0  501 -0.00000000000E+00  0.00000000000E+00  0.30323288030E+02  0.30323288030E+02  0.00000000000E+00 0.  1.
          2   -1    0    0  501    0  0.00000000000E+00 -0.00000000000E+00 -0.58483695007E+03  0.58483695007E+03  0.00000000000E+00 0. -1.
         25    2    1    2    0    0 -0.76615810095E+02 -0.98701714863E+01 -0.33978920420E+03  0.37023190430E+03  0.12509019560E+03 0.  0.
          5    1    3    3  502    0 -0.89092971315E+02 -0.50635418694E+02 -0.21309582584E+03  0.23649271987E+03  0.41800000000E+01 0. -1.
         -5    1    3    3    0  502  0.12477161220E+02  0.40765247208E+02 -0.12669337836E+03  0.13373918443E+03  0.41800000000E+01 0. -1.
        -11    1    1    2    0    0  0.15261899921E+02 -0.94827234624E+01  0.27144315140E+01  0.18171840081E+02  0.00000000000E+00 0.  1.
         11    1    1    2    0    0  0.61353910174E+02  0.19352894949E+02 -0.21743888935E+03  0.22675649371E+03  0.00000000000E+00 0. -1.
</event>
<event>
 7    1  0.2856214E-009  0.1072143E+03  0.7561462E-02  0.1265817E+00
          1   -1    0    0  501    0  0.00000000000E+00  0.00000000000E+00  0.33723407998E+03  0.33723407998E+03  0.00000000000E+00 0. -1.
         -1   -1    0    0    0  501 -0.00000000000E+00 -0.00000000000E+00 -0.59190229469E+02  0.59190229469E+02  0.00000000000E+00 0.  1.
         25    2    1    2    0    0  0.63734067752E+02 -0.70952411213E+01  0.61433938422E+02  0.15339198826E+03  0.12507037793E+03 0.  0.
          5    1    3    3  502    0  0.91398974156E+02 -0.14030264362E+02  0.77204132488E+02  0.12053452314E+03  0.41800000000E+01 0.  1.
         -5    1    3    3    0  502 -0.27664906404E+02  0.69350232409E+01 -0.15770194065E+02  0.32857465127E+02  0.41800000000E+01 0.  1.
        -11    1    1    2    0    0  0.26899729277E+01 -0.20816039802E+02  0.82249783459E+01  0.22543152756E+02  0.00000000000E+00 0.  1.
         11    1    1    2    0    0 -0.66424040680E+02  0.27911280923E+02  0.20838493374E+03  0.22048916842E+03  0.00000000000E+00 0. -1.
</event>
<event>
 7    1  0.2856214E-009  0.1874946E+03  0.7561462E-02  0.1160741E+00
          1   -1    0    0  501    0  0.00000000000E+00  0.00000000000E+00  0.15300498211E+03  0.15300498211E+03  0.00000000000E+00 0. -1.
         -1   -1    0    0    0  501 -0.00000000000E+00 -0.00000000000E+00 -0.34930577831E+03  0.34930577831E+03  0.00000000000E+00 0.  1.
         25    2    1    2    0    0 -0.41609300645E+02  0.16005693238E+03  0.27236752239E+02  0.20913818910E+03  0.12508951181E+03 0.  0.
          5    1    3    3  502    0 -0.48015338083E+02  0.18076920083E+02  0.41661633195E+02  0.66222441902E+02  0.41800000000E+01 0. -1.
         -5    1    3    3    0  502  0.64060374385E+01  0.14198001230E+03 -0.14424880956E+02  0.14291574720E+03  0.41800000000E+01 0. -1.
        -11    1    1    2    0    0  0.29881964270E+02 -0.11049025072E+02 -0.11758685248E+02  0.33959967939E+02  0.00000000000E+00 0. -1.
         11    1    1    2    0    0  0.11727336375E+02 -0.14900790731E+03 -0.21177886319E+03  0.25921260338E+03  0.00000000000E+00 0.  1.
</event>
<event>
 7    1  0.2856214E-009  0.1697641E+03  0.7561462E-02  0.1178094E+00
         -1   -1    0    0    0  501 -0.00000000000E+00  0.00000000000E+00  0.41675052015E+03  0.41675052015E+03  0.00000000000E+00 0.  1.
          1   -1    0    0  501    0  0.00000000000E+00 -0.00000000000E+00 -0.81471142362E+02  0.81471142362E+02  0.00000000000E+00 0. -1.
         25    2    1    2    0    0  0.46637572206E+02  0.13315208815E+03  0.24474287571E+03  0.30894869733E+03  0.12508269525E+03 0.  0.
          5    1    3    3  502    0 -0.33857548604E+02  0.78941648176E+02  0.15203151157E+03  0.17466874455E+03  0.41800000000E+01 0. -1.
         -5    1    3    3    0  502  0.80495120810E+02  0.54210439978E+02  0.92711364144E+02  0.13427995278E+03  0.41800000000E+01 0. -1.
        -11    1    1    2    0    0 -0.55318926779E+02 -0.55865070670E+02  0.13435911168E+02  0.79759723482E+02  0.00000000000E+00 0.  1.
         11    1    1    2    0    0  0.86813545732E+01 -0.77287017484E+02  0.77100590907E+02  0.10951324170E+03  0.00000000000E+00 0. -1.
</event>
<event>
 7    1  0.2856214E-009  0.1185608E+03  0.7561462E-02  0.1245490E+00
         -2   -1    0    0    0  501 -0.00000000000E+00  0.00000000000E+00  0.14496798525E+02  0.14496798525E+02  0.00000000000E+00 0.  1.
          2   -1    0    0  501    0  0.00000000000E+00 -0.00000000000E+00 -0.12209895870E+04  0.12209895870E+04  0.00000000000E+00 0. -1.
         25    2    1    2    0    0 -0.65040536590E+02  0.12642506936E+02 -0.85868561147E+03  0.87027547698E+03  0.12509325363E+03 0.  0.
          5    1    3    3  502    0  0.34517561148E+02 -0.15194918112E+02 -0.21303029462E+03  0.21638328584E+03  0.41800000000E+01 0. -1.
         -5    1    3    3    0  502 -0.99558097738E+02  0.27837425048E+02 -0.64565531685E+03  0.65389219114E+03  0.41800000000E+01 0. -1.
        -11    1    1    2    0    0 -0.73250782185E+01  0.16227054915E+02 -0.14625040483E+02  0.23040527149E+02  0.00000000000E+00 0.  1.
         11    1    1    2    0    0  0.72365614808E+02 -0.28869561851E+02 -0.33318213650E+03  0.34217038137E+03  0.00000000000E+00 0. -1.
</event>
<event>
 7    1  0.2856214E-009  0.1535437E+03  0.7561462E-02  0.1196185E+00
          1   -1    0    0  501    0  0.00000000000E+00  0.00000000000E+00  0.36149102956E+03  0.36149102956E+03  0.00000000000E+00 0. -1.
         -1   -1    0    0    0  501 -0.00000000000E+00 -0.00000000000E+00 -0.87517813726E+02  0.87517813726E+02  0.00000000000E+00 0.  1.
         25    2    1    2    0    0 -0.13087771222E+03  0.10071735502E+02  0.20209325340E+03  0.27150995560E+03  0.12508220299E+03 0.  0.
          5    1    3    3  502    0 -0.14675266811E+03  0.10041783770E+02  0.12619044893E+03  0.19385222418E+03  0.41800000000E+01 0. -1.
         -5    1    3    3    0  502  0.15874955891E+02  0.29951732248E-01  0.75902804472E+02  0.77657731414E+02  0.41800000000E+01 0. -1.
        -11    1    1    2    0    0  0.97318163698E+02 -0.33125090313E+02  0.86384835043E+02  0.13427746020E+03  0.00000000000E+00 0.  1.
         11    1    1    2    0    0  0.33559548520E+02  0.23053354811E+02 -0.14504872608E+02  0.43221427490E+02  0.00000000000E+00 0. -1.
</event>
<event>
 7    1  0.2856214E-009  0.1077970E+03  0.7561462E-02  0.1264705E+00
         -2   -1    0    0    0  501 -0.00000000000E+00  0.00000000000E+00  0.58452471011E+03  0.58452471011E+03  0.00000000000E+00 0.  1.
          2   -1    0    0  501    0  0.00000000000E+00 -0.00000000000E+00 -0.31472686738E+02  0.31472686738E+02  0.00000000000E+00 0. -1.
         25    2    1    2    0    0 -0.14432765390E+02  0.46388689175E+02  0.45390060808E+03  0.47332179806E+03  0.12509015672E+03 0.  0.
          5    1    3    3  502    0  0.19554175938E+02 -0.26146983120E+02  0.40394747722E+02  0.52107951086E+02  0.41800000000E+01 0. -1.
         -5    1    3    3    0  502 -0.33986941328E+02  0.72535672294E+02  0.41350586035E+03  0.42121384698E+03  0.41800000000E+01 0. -1.
        -11    1    1    2    0    0 -0.19471514048E+02 -0.62111939943E+02  0.66380879957E+02  0.92970178910E+02  0.00000000000E+00 0.  1.
         11    1    1    2    0    0  0.33904279438E+02  0.15723250768E+02  0.32770535342E+02  0.49705419881E+02  0.00000000000E+00 0. -1.
</event>
<event>
 7    1  0.2856214E-009  0.1338553E+03  0.7561462E-02  0.1221845E+00
          4   -1    0    0  501    0  0.00000000000E+00  0.00000000000E+00  0.37024090197E+02  0.37024090197E+02  0.00000000000E+00 0. -1.
         -4   -1    0    0    0  501 -0.00000000000E+00 -0.00000000000E+00 -0.63383015250E+03  0.63383015250E+03  0.00000000000E+00 0.  1.
         25    2    1    2    0    0 -0.10323153367E+03  0.29235856216E+02 -0.33316786998E+03  0.37169743686E+03  0.12508665056E+03 0.  0.
          5    1    3    3  502    0  0.39602508346E+01  0.18636827271E+02  0.20125739338E+01  0.19609634653E+02  0.41800000000E+01 0. -1.
         -5    1    3    3    0  502 -0.10719178451E+03  0.10599028946E+02 -0.33518044391E+03  0.35208780221E+03  0.41800000000E+01 0. -1.
        -11    1    1    2    0    0 -0.12232158809E+02  0.12636610668E+02 -0.22664476526E+02  0.28687769773E+02  0.00000000000E+00 0.  1.
         11    1    1    2    0    0  0.11546369248E+03 -0.41872466885E+02 -0.24097371579E+03  0.27046903606E+03  0.00000000000E+00 0. -1.
</event>
<event>
 7    1  0.2856214E-009  0.1064203E+03  0.7561462E-02  0.1267346E+00
         -2   -1    0    0    0  501 -0.00000000000E+00  0.00000000000E+00  0.23530821910E+02  0.23530821910E+02  0.00000000000E+00 0.  1.
          2   -1    0    0  501    0  0.00000000000E+00 -0.00000000000E+00 -0.63169335894E+03  0.63169335894E+03  0.00000000000E+00 0. -1.
         25    2    1    2    0    0 -0.38017728406E+02 -0.18647856522E+02 -0.44807065105E+03  0.46712640575E+03  0.12508669149E+03 0.  0.
          5    1    3    3  502    0  0.21952352387E+01 -0.63295946055E+02 -0.31091515408E+03  0.31732775057E+03  0.41800000000E+01 0. -1.
         -5    1    3    3    0  502 -0.40212963645E+02  0.44648089534E+02 -0.13715549697E+03  0.14979865518E+03  0.41800000000E+01 0. -1.
        -11    1    1    2    0    0 -0.23985550628E+02  0.11873819506E+02 -0.16238634199E+02  0.31304751544E+02  0.00000000000E+00 0.  1.
         11    1    1    2    0    0  0.62003279035E+02  0.67740370157E+01 -0.14385325178E+03  0.15679302356E+03  0.00000000000E+00 0. -1.
</event>
<event>
 7    1  0.2856214E-009  0.1187525E+03  0.7561462E-02  0.1245169E+00
          1   -1    0    0  501    0  0.00000000000E+00  0.00000000000E+00  0.12053369683E+03  0.12053369683E+03  0.00000000000E+00 0. -1.
         -1   -1    0    0    0  501 -0.00000000000E+00 -0.00000000000E+00 -0.19201549068E+03  0.19201549068E+03  0.00000000000E+00 0.  1.
         25    2    1    2    0    0 -0.94724548044E+02 -0.11095099209E+02 -0.89248960874E+02  0.18085536806E+03  0.12508975141E+03 0.  0.
          5    1    3    3  502    0 -0.11155953790E+03 -0.16727269499E+02 -0.10690469688E+03  0.15547160081E+03  0.41800000000E+01 0.  1.
         -5    1    3    3    0  502  0.16834989860E+02  0.56321702900E+01  0.17655736007E+02  0.25383767248E+02  0.41800000000E+01 0.  1.
        -11    1    1    2    0    0  0.73127076072E+02  0.28662141955E+02  0.46832919725E+02  0.91446213734E+02  0.00000000000E+00 0. -1.
         11    1    1    2    0    0  0.21597471972E+02 -0.17567042746E+02 -0.29065752698E+02  0.40247605721E+02  0.00000000000E+00 0.  1.
</event>
<event>
 7    1  0.2856214E-009  0.1217941E+03  0.7561462E-02  0.1240166E+00
         -1   -1    0    0    0  501 -0.00000000000E+00  0.00000000000E+00  0.13966542540E+02  0.13966542540E+02  0.00000000000E+00 0.  1.
          1   -1    0    0  501    0  0.00000000000E+00 -0.00000000000E+00 -0.13709640837E+04  0.13709640837E+04  0.00000000000E+00 0. -1.
         25    2    1    2    0    0  0.76996925223E+02 -0.22271695266E+02 -0.86273407012E+03  0.87543218153E+03  0.12508746463E+03 0.  0.
          5    1    3    3  502    0  0.95561884573E+02 -0.51869614128E+02 -0.54504728949E+03  0.55580261859E+03  0.41800000000E+01 0.  1.
         -5    1    3    3    0  502 -0.18564959350E+02  0.29597918861E+02 -0.31768678063E+03  0.31962956293E+03  0.41800000000E+01 0.  1.
        -11    1    1    2    0    0  0.25224332931E+01 -0.12534401551E+02 -0.70255490087E+01  0.14588770710E+02  0.00000000000E+00 0.  1.
         11    1    1    2    0    0 -0.79519358516E+02  0.34806096818E+02 -0.48723792206E+03  0.49490967403E+03  0.00000000000E+00 0. -1.
</event>
<event>
 7    1  0.2856214E-009  0.1148418E+03  0.7561462E-02  0.1251857E+00
         -2   -1    0    0    0  501 -0.00000000000E+00  0.00000000000E+00  0.26357952092E+03  0.26357952092E+03  0.00000000000E+00 0.  1.
          2   -1    0    0  501    0  0.00000000000E+00 -0.00000000000E+00 -0.88759884557E+02  0.88759884557E+02  0.00000000000E+00 0. -1.
         25    2    1    2    0    0 -0.27686104072E+02 -0.10310810021E+03  0.67976382039E+02  0.17794869109E+03  0.12508855846E+03 0.  0.
          5    1    3    3  502    0  0.63688147752E+01 -0.55987926024E+02  0.97439471989E+02  0.11263717310E+03  0.41800000000E+01 0.  1.
         -5    1    3    3    0  502 -0.34054918847E+02 -0.47120174187E+02 -0.29463089950E+02  0.65311517993E+02  0.41800000000E+01 0.  1.
        -11    1    1    2    0    0  0.14637648697E+02  0.10053104991E+03  0.44961717918E+02  0.11109594427E+03  0.00000000000E+00 0. -1.
         11    1    1    2    0    0  0.13048455375E+02  0.25770503014E+01  0.61881536404E+02  0.63294770113E+02  0.00000000000E+00 0.  1.
</event>
<event>
 7    1  0.2856214E-009  0.1116794E+03  0.7561462E-02  0.1257491E+00
         -2   -1    0    0    0  501 -0.00000000000E+00  0.00000000000E+00  0.11630594652E+03  0.11630594652E+03  0.00000000000E+00 0.  1.
          2   -1    0    0  501    0  0.00000000000E+00 -0.00000000000E+00 -0.18417582233E+03  0.18417582233E+03  0.00000000000E+00 0. -1.
         25    2    1    2    0    0  0.73772625179E+02  0.61461244406E+02 -0.16744974505E+02  0.15857980428E+03  0.12508906972E+03 0.  0.
          5    1    3    3  502    0  0.89597439322E+02  0.46326041852E+02  0.31235168325E+02  0.10567360800E+03  0.41800000000E+01 0.  1.
         -5    1    3    3    0  502 -0.15824814143E+02  0.15135202554E+02 -0.47980142830E+02  0.52906196282E+02  0.41800000000E+01 0.  1.
        -11    1    1    2    0    0 -0.48051430523E+02 -0.21619339982E+02 -0.72712336967E+02  0.89796546614E+02  0.00000000000E+00 0. -1.
         11    1    1    2    0    0 -0.25721194656E+02 -0.39841904424E+02  0.21587435658E+02  0.52105417962E+02  0.00000000000E+00 0.  1.
</event>
<event>
 7    1  0.2856214E-009  0.1046523E+03  0.7561462E-02  0.1270806E+00
         -1   -1    0    0    0  501 -0.00000000000E+00  0.00000000000E+00  0.35693221019E+02  0.35693221019E+02  0.00000000000E+00 0.  1.
          1   -1    0    0  501    0  0.00000000000E+00 -0.00000000000E+00 -0.45416167203E+03  0.45416167203E+03  0.00000000000E+00 0. -1.
         25    2    1    2    0    0 -0.39550605644E+02  0.52632230845E+02 -0.27623034733E+03  0.31029897919E+03  0.12509136489E+03 0.  0.
          5    1    3    3  502    0 -0.45279279983E+02 -0.27237480175E+01 -0.23878751061E+03  0.24309376714E+03  0.41800000000E+01 0.  1.
         -5    1    3    3    0  502  0.57286743393E+01  0.55355978862E+02 -0.37442836723E+02  0.67205212055E+02  0.41800000000E+01 0.  1.
        -11    1    1    2    0    0  0.11992112258E+02  0.23823779912E+02 -0.22794196046E+02  0.35085019867E+02  0.00000000000E+00 0.  1.
         11    1    1    2    0    0  0.27558493386E+02 -0.76456010757E+02 -0.11944390763E+03  0.14447089399E+03  0.00000000000E+00 0. -1.
</event>
<event>
 7    1  0.2856214E-009  0.1063545E+03  0.7561462E-02  0.1267474E+00
          2   -1    0    0  501    0  0.00000000000E+00  0.00000000000E+00  0.20063821671E+03  0.20063821671E+03  0.00000000000E+00 0. -1.
         -2   -1    0    0    0  501 -0.00000000000E+00 -0.00000000000E+00 -0.65095004751E+02  0.65095004751E+02  0.00000000000E+00 0.  1.
         25    2    1    2    0    0  0.31819214926E+02  0.36207786527E+00  0.10110917024E+03  0.16396081632E+03  0.12508993342E+03 0.  0.
          5    1    3    3  502    0  0.79778689745E+02 -0.41058790883E+01  0.54425183273E+02  0.96752625571E+02  0.41800000000E+01 0.  1.
         -5    1    3    3    0  502 -0.47959474819E+02  0.44679569536E+01  0.46683986970E+02  0.67208190749E+02  0.41800000000E+01 0.  1.
        -11    1    1    2    0    0 -0.15297766138E+01  0.36570541246E+02  0.39366416749E+02  0.53753692629E+02  0.00000000000E+00 0.  1.
         11    1    1    2    0    0 -0.30289438312E+02 -0.36932619112E+02 -0.49323750348E+01  0.48018712511E+02  0.00000000000E+00 0. -1.
</event>
<event>
 7    1  0.2856214E-009  0.1538475E+03  0.7561462E-02  0.1195823E+00
          1   -1    0    0  501    0  0.00000000000E+00  0.00000000000E+00  0.13072870848E+04  0.13072870848E+04  0.00000000000E+00 0. -1.
         -1   -1    0    0    0  501 -0.00000000000E+00 -0.00000000000E+00 -0.30142546061E+02  0.30142546061E+02  0.00000000000E+00 0.  1.
         25    2    1    2    0    0 -0.44445071125E+02  0.13208241576E+03  0.96965934427E+03  0.98757659400E+03  0.12508859340E+03 0.  0.
          5    1    3    3  502    0  0.12223755684E+02  0.20900337522E+02  0.26306930155E+02  0.35996823273E+02  0.41800000000E+01 0. -1.
         -5    1    3    3    0  502 -0.56668826809E+02  0.11118207824E+03  0.94335241411E+03  0.95157977073E+03  0.41800000000E+01 0. -1.
        -11    1    1    2    0    0  0.48265155997E+02 -0.31558374700E+02  0.62611235080E+02  0.85121225646E+02  0.00000000000E+00 0.  1.
         11    1    1    2    0    0 -0.38200848717E+01 -0.10052404106E+03  0.24487395943E+03  0.26473181125E+03  0.00000000000E+00 0. -1.
</event>
<event>
 7    1  0.2856214E-009  0.1749414E+03  0.7561462E-02  0.1172791E+00
         -2   -1    0    0    0  501 -0.00000000000E+00  0.00000000000E+00  0.44123180827E+02  0.44123180827E+02  0.00000000000E+00 0.  1.
          2   -1    0    0  501    0  0.00000000000E+00 -0.00000000000E+00 -0.86640810910E+03  0.86640810910E+03  0.00000000000E+00 0. -1.
         25    2    1    2    0    0 -0.78616126969E+02  0.13027207088E+03 -0.56448021749E+03  0.59785868291E+03  0.12508309604E+03 0.  0.
          5    1    3    3  502    0 -0.93571184502E+02  0.36529405045E+02 -0.32582644573E+03  0.34098432389E+03  0.41800000000E+01 0.  1.
         -5    1    3    3    0  502  0.14955057533E+02  0.93742665833E+02 -0.23865377176E+03  0.25687435902E+03  0.41800000000E+01 0.  1.
        -11    1    1    2    0    0  0.41064929097E+02 -0.91801425936E+02 -0.23237210576E+03  0.25320076173E+03  0.00000000000E+00 0. -1.
         11    1    1    2    0    0  0.37551197872E+02 -0.38470644942E+02 -0.25432605015E+02  0.59471845286E+02  0.00000000000E+00 0.  1.
</event>
<event>
 7    1  0.2856214E-009  0.1074126E+03  0.7561462E-02  0.1265438E+00
          1   -1    0    0  501    0  0.00000000000E+00  0.00000000000E+00  0.46992862852E+03  0.46992862852E+03  0.00000000000E+00 0. -1.
         -1   -1    0    0    0  501 -0.00000000000E+00 -0.00000000000E+00 -0.27286063329E+02  0.27286063329E+02  0.00000000000E+00 0.  1.
         25    2    1    2    0    0  0.20885545800E+02 -0.23150421946E+02  0.23096627043E+03  0.26451059572E+03  0.12509312176E+03 0.  0.
          5    1    3    3  502    0 -0.78636133972E+00  0.50050844807E+02  0.11639314313E+03  0.12676963989E+03  0.41800000000E+01 0.  1.
         -5    1    3    3    0  502  0.21671907140E+02 -0.73201266753E+02  0.11457312730E+03  0.13774095583E+03  0.41800000000E+01 0.  1.
        -11    1    1    2    0    0 -0.85766955289E+01  0.54128433609E+02  0.80679514227E+02  0.97532717829E+02  0.00000000000E+00 0.  1.
         11    1    1    2    0    0 -0.12308850271E+02 -0.30978011663E+02  0.13099678053E+03  0.13517137830E+03  0.00000000000E+00 0. -1.
</event>
<event>
 7    1  0.2856214E-009  0.1036681E+03  0.7561462E-02  0.1272766E+00
         -2   -1    0    0    0  501 -0.00000000000E+00  0.00000000000E+00  0.24663466713E+03  0.24663466713E+03  0.00000000000E+00 0. -1.
          2   -1    0    0  501    0  0.00000000000E+00 -0.00000000000E+00 -0.91909528437E+02  0.91909528437E+02  0.00000000000E+00 0.  1.
         25    2    1    2    0    0 -0.83285096161E+01 -0.47889745130E+02  0.18511710829E+03  0.22864905306E+03  0.12509697807E+03 0.  0.
          5    1    3    3  502    0  0.36204904682E+02  0.51197613053E+00  0.14921013348E+03  0.15359750510E+03  0.41800000000E+01 0. -1.
         -5    1    3    3    0  502 -0.44533414298E+02 -0.48401721261E+02  0.35906974814E+02  0.75051547954E+02  0.41800000000E+01 0. -1.
        -11    1    1    2    0    0 -0.58566899281E+00  0.75739065823E+02 -0.27213020271E+02  0.80481659850E+02  0.00000000000E+00 0.  1.
         11    1    1    2    0    0  0.89141786089E+01 -0.27849320693E+02 -0.31789493254E+01  0.29413482659E+02  0.00000000000E+00 0. -1.
</event>
<event>
 7    1  0.2856214E-009  0.8449278E+02  0.7561462E-02  0.1316764E+00
         -1   -1    0    0    0  501 -0.00000000000E+00  0.00000000000E+00  0.21265198303E+03  0.21265198303E+03  0.00000000000E+00 0.  1.
          1   -1    0    0  501    0  0.00000000000E+00 -0.00000000000E+00 -0.97054219129E+02  0.97054219129E+02  0.00000000000E+00 0. -1.
         25    2    1    2    0    0 -0.41423483170E+02  0.46682777398E+02 -0.14451755301E+02  0.14053951772E+03  0.12508923273E+03 0.  0.
          5    1    3    3  502    0 -0.51686073072E+02 -0.62230068392E+01  0.38490263026E+02  0.64877952430E+02  0.41800000000E+01 0.  1.
         -5    1    3    3    0  502  0.10262589902E+02  0.52905784237E+02 -0.52942018326E+02  0.75661565287E+02  0.41800000000E+01 0.  1.
        -11    1    1    2    0    0  0.28028391043E+02 -0.27162812295E+02  0.21450821194E+01  0.39089774284E+02  0.00000000000E+00 0. -1.
         11    1    1    2    0    0  0.13395092127E+02 -0.19519965103E+02  0.12790443708E+03  0.13007691016E+03  0.00000000000E+00 0.  1.
</event>
<event>
 7    1  0.2856214E-009  0.1293587E+03  0.7561462E-02  0.1228410E+00
          2   -1    0    0  501    0  0.00000000000E+00  0.00000000000E+00  0.53470363504E+03  0.53470363504E+03  0.00000000000E+00 0. -1.
         -2   -1    0    0    0  501 -0.00000000000E+00 -0.00000000000E+00 -0.37841242471E+02  0.37841242471E+02  0.00000000000E+00 0.  1.
         25    2    1    2    0    0  0.92234525018E+02  0.10171149105E+02  0.27970500908E+03  0.32014697870E+03  0.12509410853E+03 0.  0.
          5    1    3    3  502    0 -0.18676385485E+02 -0.11895148824E+02  0.13286305052E+03  0.13476039675E+03  0.41800000000E+01 0. -1.
         -5    1    3    3    0  502  0.11091091050E+03  0.22066297929E+02  0.14684195856E+03  0.18538658195E+03  0.41800000000E+01 0. -1.
        -11    1    1    2    0    0 -0.25647773312E+02  0.34389323395E+02  0.11383340917E+03  0.12164899869E+03  0.00000000000E+00 0.  1.
         11    1    1    2    0    0 -0.66586751706E+02 -0.44560472501E+02  0.10332397432E+03  0.13074890012E+03  0.00000000000E+00 0. -1.
</event>
<event>
 7    1  0.2856214E-009  0.1827039E+03  0.7561462E-02  0.1165212E+00
          3   -1    0    0  501    0  0.00000000000E+00  0.00000000000E+00  0.42698858054E+02  0.42698858054E+02  0.00000000000E+00 0. -1.
         -3   -1    0    0    0  501 -0.00000000000E+00 -0.00000000000E+00 -0.97414678570E+03  0.97414678570E+03  0.00000000000E+00 0.  1.
         25    2    1    2    0    0  0.27377788988E+01  0.17088875742E+03 -0.52159695553E+03  0.56295751835E+03  0.12508925057E+03 0.  0.
          5    1    3    3  502    0  0.15380066785E+02  0.78524571681E+02 -0.40872299265E+03  0.41650283544E+03  0.41800000000E+01 0. -1.
         -5    1    3    3    0  502 -0.12642287886E+02  0.92364185737E+02 -0.11287396288E+03  0.14645468291E+03  0.41800000000E+01 0. -1.
        -11    1    1    2    0    0 -0.44178875960E+02 -0.10756675652E+03 -0.28613263750E+03  0.30885962253E+03  0.00000000000E+00 0.  1.
         11    1    1    2    0    0  0.41441097061E+02 -0.63322000901E+02 -0.12371833462E+03  0.14502850287E+03  0.00000000000E+00 0. -1.
</event>
<event>
 7    1  0.2856214E-009  0.9724933E+02  0.7561462E-02  0.1286189E+00
          2   -1    0    0  501    0  0.00000000000E+00  0.00000000000E+00  0.35066002741E+03  0.35066002741E+03  0.00000000000E+00 0. -1.
         -2   -1    0    0    0  501 -0.00000000000E+00 -0.00000000000E+00 -0.46811170950E+02  0.46811170950E+02  0.00000000000E+00 0.  1.
         25    2    1    2    0    0  0.45662459460E+02 -0.50042744437E+02  0.18021570602E+03  0.22960335514E+03  0.12510261196E+03 0.  0.
          5    1    3    3  502    0 -0.28653733586E+02 -0.25693675646E+02  0.13217488059E+03  0.13772753129E+03  0.41800000000E+01 0. -1.
         -5    1    3    3    0  502  0.74316193046E+02 -0.24349068790E+02  0.48040825433E+02  0.91875823850E+02  0.41800000000E+01 0. -1.
        -11    1    1    2    0    0 -0.47209410151E+02  0.27017376134E+02  0.14460779767E+02  0.56283045150E+02  0.00000000000E+00 0.  1.
         11    1    1    2    0    0  0.15469506907E+01  0.23025368303E+02  0.10917237067E+03  0.11158479806E+03  0.00000000000E+00 0. -1.
</event>
<event>
 7    1  0.2856214E-009  0.9143186E+02  0.7561462E-02  0.1299421E+00
          2   -1    0    0  501    0  0.00000000000E+00  0.00000000000E+00  0.16555905630E+03  0.16555905630E+03  0.00000000000E+00 0. -1.
         -2   -1    0    0    0  501 -0.00000000000E+00 -0.00000000000E+00 -0.90515808359E+02  0.90515808359E+02  0.00000000000E+00 0.  1.
         25    2    1    2    0    0 -0.30489007957E+02  0.44826385511E+02  0.21008388370E+02  0.13793735279E+03  0.12508547665E+03 0.  0.
          5    1    3    3  502    0 -0.68046057979E+02  0.56002648741E+02  0.36653817296E+02  0.95538146282E+02  0.41800000000E+01 0. -1.
         -5    1    3    3    0  502  0.37557050023E+02 -0.11176263231E+02 -0.15645428926E+02  0.42399206508E+02  0.41800000000E+01 0. -1.
        -11    1    1    2    0    0  0.27283714190E+02 -0.32210255481E+02 -0.17303415763E+02  0.45621374544E+02  0.00000000000E+00 0.  1.
         11    1    1    2    0    0  0.32052937672E+01 -0.12616130029E+02  0.71338275335E+02  0.72516137327E+02  0.00000000000E+00 0. -1.
</event>
<event>
 7    1  0.2856214E-009  0.9783432E+02  0.7561462E-02  0.1284917E+00
          1   -1    0    0  501    0  0.00000000000E+00  0.00000000000E+00  0.29711957370E+02  0.29711957370E+02  0.00000000000E+00 0.  1.
         -1   -1    0    0    0  501 -0.00000000000E+00 -0.00000000000E+00 -0.49167387404E+03  0.49167387404E+03  0.00000000000E+00 0. -1.
         25    2    1    2    0    0  0.22064006353E+02 -0.21564354484E+01 -0.16417747516E+03  0.20758675744E+03  0.12508616201E+03 0.  0.
          5    1    3    3  502    0  0.41372422772E+02  0.35440767235E+02 -0.15470781854E+03  0.16407226111E+03  0.41800000000E+01 0. -1.
         -5    1    3    3    0  502 -0.19308416419E+02 -0.37597202683E+02 -0.94696566137E+01  0.43514496327E+02  0.41800000000E+01 0. -1.
        -11    1    1    2    0    0  0.14277997606E+02  0.42160865138E+02 -0.12047553898E+03  0.12843580209E+03  0.00000000000E+00 0.  1.
         11    1    1    2    0    0 -0.36342003959E+02 -0.40004429689E+02 -0.17730890252E+03  0.18536327188E+03  0.00000000000E+00 0. -1.
</event>
<event>
 7    1  0.2856214E-009  0.9688722E+02  0.7561462E-02  0.1286981E+00
         -2   -1    0    0    0  501 -0.00000000000E+00  0.00000000000E+00  0.14725172086E+03  0.14725172086E+03  0.00000000000E+00 0.  1.
          2   -1    0    0  501    0  0.00000000000E+00 -0.00000000000E+00 -0.97795709848E+02  0.97795709848E+02  0.00000000000E+00 0. -1.
         25    2    1    2    0    0  0.29705007772E+02 -0.41892244692E+02  0.25868326424E+02  0.13767286857E+03  0.12508917130E+03 0.  0.
          5    1    3    3  502    0 -0.23126346703E+02 -0.56819444970E+02 -0.21402115745E+02  0.65106068818E+02  0.41800000000E+01 0.  1.
         -5    1    3    3    0  502  0.52831354475E+02  0.14927200278E+02  0.47270442169E+02  0.72566799755E+02  0.41800000000E+01 0.  1.
        -11    1    1    2    0    0  0.84491370141E+01  0.37940405761E+02 -0.24435532771E+02  0.45912499033E+02  0.00000000000E+00 0.  1.
         11    1    1    2    0    0 -0.38154144786E+02  0.39518389308E+01  0.48023217361E+02  0.61462063104E+02  0.00000000000E+00 0. -1.
</event>
<event>
 7    1  0.2856214E-009  0.1567483E+03  0.7561462E-02  0.1192418E+00
          1   -1    0    0  501    0  0.00000000000E+00  0.00000000000E+00  0.23579922194E+02  0.23579922194E+02  0.00000000000E+00 0. -1.
         -1   -1    0    0    0  501 -0.00000000000E+00 -0.00000000000E+00 -0.11328952375E+04  0.11328952375E+04  0.00000000000E+00 0.  1.
         25    2    1    2    0    0  0.54372181541E+02 -0.10380004638E+03 -0.47500907132E+03  0.50498755655E+03  0.12509208881E+03 0.  0.
          5    1    3    3  502    0  0.69901746670E+02 -0.12207496821E+03 -0.34294191224E+03  0.37069553494E+03  0.41800000000E+01 0. -1.
         -5    1    3    3    0  502 -0.15529565129E+02  0.18274921839E+02 -0.13206715908E+03  0.13429202162E+03  0.41800000000E+01 0. -1.
        -11    1    1    2    0    0 -0.51802565050E+02  0.12068853551E+03 -0.57176194366E+03  0.58665232341E+03  0.00000000000E+00 0. -1.
         11    1    1    2    0    0 -0.25696164907E+01 -0.16888489136E+02 -0.62544300328E+02  0.64835279731E+02  0.00000000000E+00 0.  1.
</event>
<event>
 7    1  0.2856214E-009  0.1043053E+03  0.7561462E-02  0.1271494E+00
         -1   -1    0    0    0  501 -0.00000000000E+00  0.00000000000E+00  0.13401478754E+02  0.13401478754E+02  0.00000000000E+00 0.  1.
          1   -1    0    0  501    0  0.00000000000E+00 -0.00000000000E+00 -0.11600247479E+04  0.11600247479E+04  0.00000000000E+00 0. -1.
         25    2    1    2    0    0  0.34583144307E+01 -0.47812953789E+02 -0.82541491920E+03  0.83621430364E+03  0.12508610749E+03 0.  0.
          5    1    3    3  502    0  0.42353112292E+02 -0.66256539369E+02 -0.34578659242E+03  0.35464003585E+03  0.41800000000E+01 0.  1.
         -5    1    3    3    0  502 -0.38894797862E+02  0.18443585579E+02 -0.47962832678E+03  0.48157426779E+03  0.41800000000E+01 0.  1.
        -11    1    1    2    0    0 -0.74196965369E+01  0.66803860660E+02 -0.30379999314E+03  0.31114665920E+03  0.00000000000E+00 0. -1.
         11    1    1    2    0    0  0.39613821062E+01 -0.18990906871E+02 -0.17408356850E+02  0.26065263862E+02  0.00000000000E+00 0.  1.
</event>
<event>
 7    1  0.2856214E-009  0.1937998E+03  0.7561462E-02  0.1155078E+00
          1   -1    0    0  501    0  0.00000000000E+00  0.00000000000E+00  0.53193671680E+03  0.53193671680E+03  0.00000000000E+00 0. -1.
         -1   -1    0    0    0  501 -0.00000000000E+00 -0.00000000000E+00 -0.75870236068E+02  0.75870236068E+02  0.00000000000E+00 0.  1.
         25    2    1    2    0    0 -0.65882288944E+02  0.14731622335E+03  0.31585053670E+03  0.37609858232E+03  0.12508411744E+03 0.  0.
          5    1    3    3  502    0 -0.97978169693E+02  0.71801141419E+02  0.17572425183E+03  0.21366237555E+03  0.41800000000E+01 0. -1.
         -5    1    3    3    0  502  0.32095880749E+02  0.75515081930E+02  0.14012628487E+03  0.16243620677E+03  0.41800000000E+01 0. -1.
        -11    1    1    2    0    0 -0.19255917891E+02 -0.55203050219E+02  0.53213004033E+02  0.79055619190E+02  0.00000000000E+00 0.  1.
         11    1    1    2    0    0  0.85138206835E+02 -0.92113173130E+02  0.87002940001E+02  0.15265275135E+03  0.00000000000E+00 0. -1.
</event>
<event>
 7    1  0.2856214E-009  0.1999728E+03  0.7561462E-02  0.1149762E+00
         -2   -1    0    0    0  501 -0.00000000000E+00  0.00000000000E+00  0.17961259687E+03  0.17961259687E+03  0.00000000000E+00 0.  1.
          2   -1    0    0  501    0  0.00000000000E+00 -0.00000000000E+00 -0.22601749245E+03  0.22601749245E+03  0.00000000000E+00 0. -1.
         25    2    1    2    0    0  0.22876510668E+02 -0.16640906564E+03 -0.44454186121E+01  0.20948067050E+03  0.12508827963E+03 0.  0.
          5    1    3    3  502    0  0.45540082673E+02 -0.17755685761E+03  0.77563809191E+00  0.18335324057E+03  0.41800000000E+01 0. -1.
         -5    1    3    3    0  502 -0.22663572005E+02  0.11147791967E+02 -0.52210567040E+01  0.26127429933E+02  0.41800000000E+01 0. -1.
        -11    1    1    2    0    0 -0.51423696701E+02  0.52216688926E+02 -0.23771937957E+02  0.77045987689E+02  0.00000000000E+00 0.  1.
         11    1    1    2    0    0  0.28547186033E+02  0.11419237672E+03 -0.18187539014E+02  0.11910343113E+03  0.00000000000E+00 0. -1.
</event>
<event>
 7    1  0.2856214E-009  0.1615291E+03  0.7561462E-02  0.1186981E+00
         -2   -1    0    0    0  501 -0.00000000000E+00  0.00000000000E+00  0.27202853766E+02  0.27202853766E+02  0.00000000000E+00 0.  1.
          2   -1    0    0  501    0  0.00000000000E+00 -0.00000000000E+00 -0.10474186468E+04  0.10474186468E+04  0.00000000000E+00 0. -1.
         25    2    1    2    0    0 -0.61229437444E+02  0.10375728273E+03 -0.44515840734E+03  0.47783677824E+03  0.12508941315E+03 0.  0.
          5    1    3    3  502    0  0.28192432374E+02  0.73534017196E+02 -0.18806574601E+03  0.20393200374E+03  0.41800000000E+01 0.  1.
         -5    1    3    3    0  502 -0.89421869818E+02  0.30223265536E+02 -0.25709266133E+03  0.27390477449E+03  0.41800000000E+01 0.  1.
        -11    1    1    2    0    0  0.60509806547E+02 -0.16866460122E+02 -0.14476481876E+03  0.15780610545E+03  0.00000000000E+00 0.  1.
         11    1    1    2    0    0  0.71963089700E+00 -0.86890822609E+02 -0.43029256696E+03  0.43897861691E+03  0.00000000000E+00 0. -1.
</event>
<event>
 7    1  0.2856214E-009  0.1185874E+03  0.7561462E-02  0.1245446E+00
         -1   -1    0    0    0  501 -0.00000000000E+00  0.00000000000E+00  0.37008670007E+03  0.37008670007E+03  0.00000000000E+00 0.  1.
          1   -1    0    0  501    0  0.00000000000E+00 -0.00000000000E+00 -0.55763210067E+02  0.55763210067E+02  0.00000000000E+00 0. -1.
         25    2    1    2    0    0  0.80609314672E+02  0.22356170087E+02  0.10892428408E+03  0.18576113229E+03  0.12508012893E+03 0.  0.
          5    1    3    3  502    0  0.51393615108E+02  0.56869752508E+02  0.10648458684E+02  0.77500545137E+02  0.41800000000E+01 0.  1.
         -5    1    3    3    0  502  0.29215699564E+02 -0.34513582421E+02  0.98275825397E+02  0.10826058715E+03  0.41800000000E+01 0.  1.
        -11    1    1    2    0    0 -0.82270835568E+02 -0.43994702901E+02  0.19468718645E+03  0.21588683340E+03  0.00000000000E+00 0.  1.
         11    1    1    2    0    0  0.16615208965E+01  0.21638532814E+02  0.10712019477E+02  0.24201944453E+02  0.00000000000E+00 0. -1.
</event>
<event>
 7    1  0.2856214E-009  0.1117474E+03  0.7561462E-02  0.1257368E+00
         -1   -1    0    0    0  501 -0.00000000000E+00  0.00000000000E+00  0.27951638179E+03  0.27951638179E+03  0.00000000000E+00 0. -1.
          1   -1    0    0  501    0  0.00000000000E+00 -0.00000000000E+00 -0.56052014746E+02  0.56052014746E+02  0.00000000000E+00 0.  1.
         25    2    1    2    0    0  0.31504270297E+02 -0.42138689603E+02  0.11749291838E+03  0.17949888436E+03  0.12508827047E+03 0.  0.
          5    1    3    3  502    0  0.79719604847E+02 -0.33348794912E+02  0.74890618158E+02  0.11442654678E+03  0.41800000000E+01 0.  1.
         -5    1    3    3    0  502 -0.48215334550E+02 -0.87898946905E+01  0.42602300223E+02  0.65072337584E+02  0.41800000000E+01 0.  1.
        -11    1    1    2    0    0 -0.45297612291E+02  0.19915445737E+01  0.38835723407E+01  0.45507384711E+02  0.00000000000E+00 0.  1.
         11    1    1    2    0    0  0.13793341994E+02  0.40147145029E+02  0.10208787633E+03  0.11056212747E+03  0.00000000000E+00 0. -1.
</event>
<event>
 7    1  0.2856214E-009  0.1229282E+03  0.7561462E-02  0.1238343E+00
         -2   -1    0    0    0  501 -0.00000000000E+00  0.00000000000E+00  0.14591766486E+02  0.14591766486E+02  0.00000000000E+00 0.  1.
          2   -1    0    0  501    0  0.00000000000E+00 -0.00000000000E+00 -0.15182492181E+04  0.15182492181E+04  0.00000000000E+00 0. -1.
         25    2    1    2    0    0 -0.52721574171E+02 -0.69891527809E+02 -0.10764690291E+04  0.10872430966E+04  0.12509032943E+03 0.  0.
          5    1    3    3  502    0 -0.76243109449E+02 -0.40766211227E+02 -0.97786481501E+03  0.98168832353E+03  0.41800000000E+01 0. -1.
         -5    1    3    3    0  502  0.23521535278E+02 -0.29125316583E+02 -0.98604214045E+02  0.10555477306E+03  0.41800000000E+01 0. -1.
        -11    1    1    2    0    0  0.57371633794E+02  0.61310996154E+01 -0.26618330485E+03  0.27236491428E+03  0.00000000000E+00 0.  1.
         11    1    1    2    0    0 -0.46500596238E+01  0.63760428194E+02 -0.16100511771E+03  0.17323297373E+03  0.00000000000E+00 0. -1.
</event>
<event>
 7    1  0.2856214E-009  0.1163715E+03  0.7561462E-02  0.1249206E+00
         -2   -1    0    0    0  501 -0.00000000000E+00  0.00000000000E+00  0.13795741533E+02  0.13795741533E+02  0.00000000000E+00 0. -1.
          2   -1    0    0  501    0  0.00000000000E+00 -0.00000000000E+00 -0.10332507099E+04  0.10332507099E+04  0.00000000000E+00 0.  1.
         25    2    1    2    0    0  0.28525878805E+02 -0.42860580652E+02 -0.62481342453E+03  0.63928904004E+03  0.12509159087E+03 0.  0.
          5    1    3    3  502    0 -0.27956990255E+02 -0.63816117790E+02 -0.24669799565E+03  0.25638148071E+03  0.41800000000E+01 0.  1.
         -5    1    3    3    0  502  0.56482869060E+02  0.20955537138E+02 -0.37811542888E+03  0.38290755933E+03  0.41800000000E+01 0.  1.
        -11    1    1    2    0    0 -0.11146965363E+01 -0.27252784967E+02 -0.10061444604E+03  0.10424597637E+03  0.00000000000E+00 0.  1.
         11    1    1    2    0    0 -0.27411182268E+02  0.70113365619E+02 -0.29402709775E+03  0.30351143498E+03  0.00000000000E+00 0. -1.
</event>
<event>
 7    1  0.2856214E-009  0.1583746E+03  0.7561462E-02  0.1190544E+00
         -2   -1    0    0    0  501 -0.00000000000E+00  0.00000000000E+00  0.47400105285E+02  0.47400105285E+02  0.00000000000E+00 0.  1.
          2   -1    0    0  501    0  0.00000000000E+00 -0.00000000000E+00 -0.66900477051E+03  0.66900477051E+03  0.00000000000E+00 0. -1.
         25    2    1    2    0    0 -0.53512975293E+02  0.10809650524E+03 -0.47771483660E+03  0.50833709805E+03  0.12508655874E+03 0.  0.
          5    1    3    3  502    0 -0.49316473299E+01  0.12253214749E+03 -0.32606844088E+03  0.34839137310E+03  0.41800000000E+01 0.  1.
         -5    1    3    3    0  502 -0.48581327963E+02 -0.14435642254E+02 -0.15164639572E+03  0.15994572495E+03  0.41800000000E+01 0.  1.
        -11    1    1    2    0    0  0.71869127731E+02 -0.99961822667E+02 -0.95937803258E+02  0.15608202845E+03  0.00000000000E+00 0.  1.
         11    1    1    2    0    0 -0.18356152438E+02 -0.81346825715E+01 -0.47952025368E+02  0.51985749295E+02  0.00000000000E+00 0. -1.
</event>
<event>
 7    1  0.2856214E-009  0.1166460E+03  0.7561462E-02  0.1248735E+00
          2   -1    0    0  501    0  0.00000000000E+00  0.00000000000E+00  0.62125152311E+02  0.62125152311E+02  0.00000000000E+00 0. -1.
         -2   -1    0    0    0  501 -0.00000000000E+00 -0.00000000000E+00 -0.29947395770E+03  0.29947395770E+03  0.00000000000E+00 0.  1.
         25    2    1    2    0    0 -0.19501999360E+01  0.48801304279E+02 -0.42414322052E+02  0.14082846039E+03  0.12509320509E+03 0.  0.
          5    1    3    3  502    0 -0.29448159385E+02 -0.34886882943E+02 -0.10413266528E+02  0.47012734577E+02  0.41800000000E+01 0. -1.
         -5    1    3    3    0  502  0.27497959449E+02  0.83688187222E+02 -0.32001055524E+02  0.93815725809E+02  0.41800000000E+01 0. -1.
        -11    1    1    2    0    0  0.12253260069E+02  0.23352585891E+02 -0.27203926368E+02  0.37888510923E+02  0.00000000000E+00 0.  1.
         11    1    1    2    0    0 -0.10303060133E+02 -0.72153890170E+02 -0.16773055696E+03  0.18288213870E+03  0.00000000000E+00 0. -1.
</event>
<event>
 7    1  0.2856214E-009  0.2055750E+03  0.7561462E-02  0.1145119E+00
          2   -1    0    0  501    0  0.00000000000E+00  0.00000000000E+00  0.90378714314E+03  0.90378714314E+03  0.00000000000E+00 0. -1.
         -2   -1    0    0    0  501 -0.00000000000E+00 -0.00000000000E+00 -0.53579813458E+02  0.53579813458E+02  0.00000000000E+00 0.  1.
         25    2    1    2    0    0 -0.64819586485E+02 -0.17712097955E+03  0.42610842744E+03  0.48248319229E+03  0.12509284040E+03 0.  0.
          5    1    3    3  502    0 -0.82144059557E+02 -0.18516635390E+03  0.35515513333E+03  0.40888490590E+03  0.41800000000E+01 0. -1.
         -5    1    3    3    0  502  0.17324473072E+02  0.80453743489E+01  0.70953294111E+02  0.73598286398E+02  0.41800000000E+01 0. -1.
        -11    1    1    2    0    0  0.58529964978E+02  0.14720196904E+03  0.41303407749E+03  0.44237012293E+03  0.00000000000E+00 0. -1.
         11    1    1    2    0    0  0.62896215069E+01  0.29919010511E+02  0.11064824746E+02  0.32513641373E+02  0.00000000000E+00 0.  1.
</event>
<event>
 7    1  0.2856214E-009  0.1105657E+03  0.7561462E-02  0.1259526E+00
         -1   -1    0    0    0  501 -0.00000000000E+00  0.00000000000E+00  0.39784667292E+03  0.39784667292E+03  0.00000000000E+00 0.  1.
          1   -1    0    0  501    0  0.00000000000E+00 -0.00000000000E+00 -0.39351367610E+02  0.39351367610E+02  0.00000000000E+00 0. -1.
         25    2    1    2    0    0  0.32718004490E+02 -0.28999477822E+02  0.12176930816E+03  0.17997649543E+03  0.12510930008E+03 0.  0.
          5    1    3    3  502    0 -0.26782303193E+02  0.27604932254E+02  0.78457374140E+01  0.39475967938E+02  0.41800000000E+01 0. -1.
         -5    1    3    3    0  502  0.59500307682E+02 -0.56604410076E+02  0.11392357075E+03  0.14050052749E+03  0.41800000000E+01 0. -1.
        -11    1    1    2    0    0 -0.49245092568E+02 -0.16395461008E+02  0.11106426802E+03  0.12259348235E+03  0.00000000000E+00 0. -1.
         11    1    1    2    0    0  0.16527088079E+02  0.45394938830E+02  0.12566172913E+03  0.13462806275E+03  0.00000000000E+00 0.  1.
</event>
<event>
 7    1  0.2856214E-009  0.1189402E+03  0.7561462E-02  0.1244856E+00
         -2   -1    0    0    0  501 -0.00000000000E+00  0.00000000000E+00  0.25216020429E+02  0.25216020429E+02  0.00000000000E+00 0.  1.
          2   -1    0    0  501    0  0.00000000000E+00 -0.00000000000E+00 -0.11285374511E+04  0.11285374511E+04  0.00000000000E+00 0. -1.
         25    2    1    2    0    0 -0.78104017722E+02 -0.13539997013E-01 -0.93721509975E+03  0.94874690857E+03  0.12509322745E+03 0.  0.
          5    1    3    3  502    0 -0.64984512695E+02 -0.43440090657E+02 -0.80709470568E+03  0.81088184386E+03  0.41800000000E+01 0.  1.
         -5    1    3    3    0  502 -0.13119505027E+02  0.43426550660E+02 -0.13012039407E+03  0.13786506471E+03  0.41800000000E+01 0.  1.
        -11    1    1    2    0    0  0.91644775071E+02 -0.16045646868E+02 -0.10449245072E+03  0.13991032785E+03  0.00000000000E+00 0.  1.
         11    1    1    2    0    0 -0.13540757349E+02  0.16059186865E+02 -0.61613880225E+02  0.65096235135E+02  0.00000000000E+00 0. -1.
</event>
<event>
 7    1  0.2856214E-009  0.9321706E+02  0.7561462E-02  0.1295243E+00
         -1   -1    0    0    0  501 -0.00000000000E+00  0.00000000000E+00  0.39952246348E+02  0.39952246348E+02  0.00000000000E+00 0.  1.
          1   -1    0    0  501    0  0.00000000000E+00 -0.00000000000E+00 -0.30727599055E+03  0.30727599055E+03  0.00000000000E+00 0. -1.
         25    2    1    2    0    0 -0.20134740979E+02  0.16527863680E+02 -0.14723170179E+03  0.19494252900E+03  0.12508731961E+03 0.  0.
          5    1    3    3  502    0  0.33380334100E+02 -0.10381405881E+02 -0.12667407482E+03  0.13147552595E+03  0.41800000000E+01 0.  1.
         -5    1    3    3    0  502 -0.53515075079E+02  0.26909269562E+02 -0.20557626969E+02  0.63467003046E+02  0.41800000000E+01 0.  1.
        -11    1    1    2    0    0 -0.33532108305E+02  0.39020099552E+01 -0.62044133099E+02  0.70633578566E+02  0.00000000000E+00 0. -1.
         11    1    1    2    0    0  0.53666849285E+02 -0.20429873635E+02 -0.58047909312E+02  0.81652129331E+02  0.00000000000E+00 0.  1.
</event>
<event>
 7    1  0.2856214E-009  0.1297414E+03  0.7561462E-02  0.1227840E+00
          3   -1    0    0  501    0  0.00000000000E+00  0.00000000000E+00  0.23093205515E+03  0.23093205515E+03  0.00000000000E+00 0. -1.
         -3   -1    0    0    0  501 -0.00000000000E+00 -0.00000000000E+00 -0.98051027096E+02  0.98051027096E+02  0.00000000000E+00 0.  1.
         25    2    1    2    0    0 -0.90479985398E+02  0.49736030975E+02  0.79431884490E+02  0.18060153447E+03  0.12508872629E+03 0.  0.
          5    1    3    3  502    0 -0.76895897505E+01  0.49931236008E+02  0.83414338503E+02  0.97609847801E+02  0.41800000000E+01 0. -1.
         -5    1    3    3    0  502 -0.82790395647E+02 -0.19520503281E+00 -0.39824540127E+01  0.82991686671E+02  0.41800000000E+01 0. -1.
        -11    1    1    2    0    0  0.74534907352E+02 -0.68527362985E+02  0.14488737320E+02  0.10228086527E+03  0.00000000000E+00 0.  1.
         11    1    1    2    0    0  0.15945078045E+02  0.18791332010E+02  0.38960406242E+02  0.46100682502E+02  0.00000000000E+00 0. -1.
</event>
<event>
 7    1  0.2856214E-009  0.7280597E+02  0.7561462E-02  0.1350803E+00
          1   -1    0    0  501    0  0.00000000000E+00  0.00000000000E+00  0.33455609776E+03  0.33455609776E+03  0.00000000000E+00 0. -1.
         -1   -1    0    0    0  501 -0.00000000000E+00 -0.00000000000E+00 -0.56586413376E+02  0.56586413376E+02  0.00000000000E+00 0.  1.
         25    2    1    2    0    0  0.26150513400E+02 -0.52274511214E+02  0.24204844662E+03  0.27865968145E+03  0.12508914292E+03 0.  0.
          5    1    3    3  502    0  0.89336212125E+01 -0.47227470582E+02  0.14516193985E+02  0.50382892467E+02  0.41800000000E+01 0. -1.
         -5    1    3    3    0  502  0.17216892188E+02 -0.50470406328E+01  0.22753225264E+03  0.22827678898E+03  0.41800000000E+01 0. -1.
        -11    1    1    2    0    0 -0.34488257182E+02  0.10076996133E+02 -0.20630422364E+02  0.41431872532E+02  0.00000000000E+00 0.  1.
         11    1    1    2    0    0  0.83377437821E+01  0.42197515081E+02  0.56551660130E+02  0.71050957164E+02  0.00000000000E+00 0. -1.
</event>
<event>
 7    1  0.2856214E-009  0.7421913E+02  0.7561462E-02  0.1346306E+00
         -3   -1    0    0    0  501 -0.00000000000E+00  0.00000000000E+00  0.37475662917E+02  0.37475662917E+02  0.00000000000E+00 0.  1.
          3   -1    0    0  501    0  0.00000000000E+00 -0.00000000000E+00 -0.34258722407E+03  0.34258722407E+03  0.00000000000E+00 0. -1.
         25    2    1    2    0    0  0.13798907363E+02  0.27415397850E+02 -0.16937240424E+03  0.21278600021E+03  0.12509539032E+03 0.  0.
          5    1    3    3  502    0 -0.33026066185E+02  0.25622477125E+02 -0.15920567460E+03  0.16465464344E+03  0.41800000000E+01 0. -1.
         -5    1    3    3    0  502  0.46824973548E+02  0.17929207246E+01 -0.10166729647E+02  0.48131356767E+02  0.41800000000E+01 0. -1.
        -11    1    1    2    0    0 -0.63298650555E+01  0.15018697181E+02  0.73227176955E+01  0.17867586605E+02  0.00000000000E+00 0.  1.
         11    1    1    2    0    0 -0.74690423077E+01 -0.42434095031E+02 -0.14306187460E+03  0.14940930018E+03  0.00000000000E+00 0. -1.
</event>
<event>
 7    1  0.2856214E-009  0.9049799E+02  0.7561462E-02  0.1301650E+00
         -4   -1    0    0    0  501 -0.00000000000E+00  0.00000000000E+00  0.34345410085E+02  0.34345410085E+02  0.00000000000E+00 0. -1.
          4   -1    0    0  501    0  0.00000000000E+00 -0.00000000000E+00 -0.47183080888E+03  0.47183080888E+03  0.00000000000E+00 0.  1.
         25    2    1    2    0    0  0.30799277002E+02  0.45365498366E+02 -0.32421967688E+03  0.35181363469E+03  0.12509120980E+03 0.  0.
          5    1    3    3  502    0 -0.19447625051E+02  0.45105158808E+02 -0.40934972824E+02  0.64076749850E+02  0.41800000000E+01 0.  1.
         -5    1    3    3    0  502  0.50246902054E+02  0.26033955782E+00 -0.28328470406E+03  0.28773688484E+03  0.41800000000E+01 0.  1.
        -11    1    1    2    0    0 -0.32985948624E+02 -0.58932558012E+02 -0.12101593432E+03  0.13858562537E+03  0.00000000000E+00 0.  1.
         11    1    1    2    0    0  0.21866716216E+01  0.13567059646E+02  0.77502124008E+01  0.15776958911E+02  0.00000000000E+00 0. -1.
</event>
<event>
 7    1  0.2856214E-009  0.1112882E+03  0.7561462E-02  0.1258203E+00
          2   -1    0    0  501    0  0.00000000000E+00  0.00000000000E+00  0.14018976807E+04  0.14018976807E+04  0.00000000000E+00 0. -1.
         -2   -1    0    0    0  501 -0.00000000000E+00 -0.00000000000E+00 -0.73423341227E+02  0.73423341227E+02  0.00000000000E+00 0.  1.
         25    2    1    2    0    0  0.57637706229E+02  0.62435625426E+02  0.13418027064E+04  0.13502970146E+04  0.12508881761E+03 0.  0.
          5    1    3    3  502    0  0.15525608972E+02  0.67644394440E+02  0.12049840813E+04  0.12069883666E+04  0.41800000000E+01 0. -1.
         -5    1    3    3    0  502  0.42112097257E+02 -0.52087690138E+01  0.13681862509E+03  0.14330864797E+03  0.41800000000E+01 0. -1.
        -11    1    1    2    0    0 -0.10643865485E+02  0.15855512318E+02 -0.26607456291E+02  0.32751272855E+02  0.00000000000E+00 0.  1.
         11    1    1    2    0    0 -0.46993840744E+02 -0.78291137743E+02  0.13279089417E+02  0.92272734504E+02  0.00000000000E+00 0. -1.
</event>
<event>
 7    1  0.2856214E-009  0.1860784E+03  0.7561462E-02  0.1162047E+00
         -3   -1    0    0    0  501 -0.00000000000E+00  0.00000000000E+00  0.25200676222E+03  0.25200676222E+03  0.00000000000E+00 0.  1.
          3   -1    0    0  501    0  0.00000000000E+00 -0.00000000000E+00 -0.14401974530E+03  0.14401974530E+03  0.00000000000E+00 0. -1.
         25    2    1    2    0    0 -0.14672753423E+03  0.19429111927E+02  0.94130514125E+02  0.21544448603E+03  0.12509721491E+03 0.  0.
          5    1    3    3  502    0 -0.16501012931E+03 -0.12697457330E+01  0.73352787894E+02  0.18063238614E+03  0.41800000000E+01 0.  1.
         -5    1    3    3    0  502  0.18282595080E+02  0.20698857660E+02  0.20777726232E+02  0.34812099889E+02  0.41800000000E+01 0.  1.
        -11    1    1    2    0    0  0.12738835928E+03  0.25793222798E+02  0.18044800614E+02  0.13122004135E+03  0.00000000000E+00 0. -1.
         11    1    1    2    0    0  0.19339174953E+02 -0.45222334724E+02 -0.41882978180E+01  0.49361980150E+02  0.00000000000E+00 0.  1.
</event>
<event>
 7    1  0.2856214E-009  0.1124286E+03  0.7561462E-02  0.1256137E+00
         -1   -1    0    0    0  501 -0.00000000000E+00  0.00000000000E+00  0.29405424600E+02  0.29405424600E+02  0.00000000000E+00 0.  1.
          1   -1    0    0  501    0  0.00000000000E+00 -0.00000000000E+00 -0.58383302164E+03  0.58383302164E+03  0.00000000000E+00 0. -1.
         25    2    1    2    0    0 -0.47697210596E+02 -0.19542799298E+02 -0.42936597753E+03  0.45017747416E+03  0.12509064986E+03 0.  0.
          5    1    3    3  502    0 -0.16178319830E+02  0.46334364383E+02 -0.86000355360E+02  0.99106734773E+02  0.41800000000E+01 0. -1.
         -5    1    3    3    0  502 -0.31518890765E+02 -0.65877163681E+02 -0.34336562217E+03  0.35107073939E+03  0.41800000000E+01 0. -1.
        -11    1    1    2    0    0  0.64598101387E+01  0.50485947494E+02 -0.45584146903E+02  0.68326235739E+02  0.00000000000E+00 0. -1.
         11    1    1    2    0    0  0.41237400457E+02 -0.30943148196E+02 -0.79477472611E+02  0.94734736339E+02  0.00000000000E+00 0.  1.
</event>
<event>
 7    1  0.2856214E-009  0.1064987E+03  0.7561462E-02  0.1267195E+00
         -3   -1    0    0    0  501 -0.00000000000E+00  0.00000000000E+00  0.73040244081E+02  0.73040244081E+02  0.00000000000E+00 0.  1.
          3   -1    0    0  501    0  0.00000000000E+00 -0.00000000000E+00 -0.20600933399E+03  0.20600933399E+03  0.00000000000E+00 0. -1.
         25    2    1    2    0    0  0.43617818875E+02  0.36523835972E+02 -0.83177669745E+02  0.16063470371E+03  0.12509387904E+03 0.  0.
          5    1    3    3  502    0  0.86826560499E+02  0.34671119613E+02 -0.62322312330E+02  0.11243878849E+03  0.41800000000E+01 0. -1.
         -5    1    3    3    0  502 -0.43208741624E+02  0.18527163584E+01 -0.20855357414E+02  0.48195915216E+02  0.41800000000E+01 0. -1.
        -11    1    1    2    0    0 -0.19278879156E+02 -0.45973365131E+02 -0.69621323292E+02  0.85629166409E+02  0.00000000000E+00 0. -1.
         11    1    1    2    0    0 -0.24338939720E+02  0.94495291592E+01  0.19829903128E+02  0.32785707954E+02  0.00000000000E+00 0.  1.
</event>
<event>
 7    1  0.2856214E-009  0.1694824E+03  0.7561462E-02  0.1178389E+00
         -2   -1    0    0    0  501 -0.00000000000E+00  0.00000000000E+00  0.50214620870E+02  0.50214620870E+02  0.00000000000E+00 0.  1.
          2   -1    0    0  501    0  0.00000000000E+00 -0.00000000000E+00 -0.63975486981E+03  0.63975486981E+03  0.00000000000E+00 0. -1.
         25    2    1    2    0    0  0.21324228692E+02  0.12656097074E+03 -0.42032241602E+03  0.45693745759E+03  0.12509398348E+03 0.  0.
          5    1    3    3  502    0 -0.49547731796E+02  0.80189423455E+02 -0.21494792738E+03  0.23474540517E+03  0.41800000000E+01 0. -1.
         -5    1    3    3    0  502  0.70871960487E+02  0.46371547280E+02 -0.20537448863E+03  0.22219205243E+03  0.41800000000E+01 0. -1.
        -11    1    1    2    0    0 -0.47502666659E+02 -0.12484636028E+03 -0.14728925029E+03  0.19883973512E+03  0.00000000000E+00 0.  1.
         11    1    1    2    0    0  0.26178437968E+02 -0.17146104564E+01 -0.21928582635E+02  0.34192297960E+02  0.00000000000E+00 0. -1.
</event>
<event>
 7    1  0.2856214E-009  0.1105533E+03  0.7561462E-02  0.1259549E+00
         -2   -1    0    0    0  501 -0.00000000000E+00  0.00000000000E+00  0.33531968083E+03  0.33531968083E+03  0.00000000000E+00 0. -1.
          2   -1    0    0  501    0  0.00000000000E+00 -0.00000000000E+00 -0.37698462787E+02  0.37698462787E+02  0.00000000000E+00 0.  1.
         25    2    1    2    0    0  0.27826816909E+01  0.37595299630E+02  0.17575009789E+03  0.21899245925E+03  0.12509376654E+03 0.  0.
          5    1    3    3  502    0 -0.35432567068E+02  0.70786028433E+02  0.11711144574E+03  0.14141673081E+03  0.41800000000E+01 0. -1.
         -5    1    3    3    0  502  0.38215248758E+02 -0.33190728803E+02  0.58638652148E+02  0.77575728433E+02  0.41800000000E+01 0. -1.
        -11    1    1    2    0    0 -0.25433913756E+02 -0.56231628448E+02  0.99703293782E+02  0.11725880265E+03  0.00000000000E+00 0. -1.
         11    1    1    2    0    0  0.22651232065E+02  0.18636328818E+02  0.22167826373E+02  0.36766881727E+02  0.00000000000E+00 0.  1.
</event>
<event>
 7    1  0.2856214E-009  0.8384993E+02  0.7561462E-02  0.1318468E+00
          2   -1    0    0  501    0  0.00000000000E+00  0.00000000000E+00  0.48543745509E+02  0.48543745509E+02  0.00000000000E+00 0. -1.
         -2   -1    0    0    0  501 -0.00000000000E+00 -0.00000000000E+00 -0.20007520747E+03  0.20007520747E+03  0.00000000000E+00 0.  1.
         25    2    1    2    0    0 -0.11269704540E+02 -0.20344310731E+02 -0.77949091272E+02  0.14922473075E+03  0.12510420543E+03 0.  0.
          5    1    3    3  502    0 -0.42898146220E+02 -0.58953729173E+02 -0.27220667658E+02  0.77937348430E+02  0.41800000000E+01 0. -1.
         -5    1    3    3    0  502  0.31628441680E+02  0.38609418442E+02 -0.50728423615E+02  0.71287382319E+02  0.41800000000E+01 0. -1.
        -11    1    1    2    0    0  0.80143748602E+01 -0.10701331903E+02 -0.65905938099E+02  0.67248356007E+02  0.00000000000E+00 0.  1.
         11    1    1    2    0    0  0.32553296798E+01  0.31045642634E+02 -0.76764325883E+01  0.32145866222E+02  0.00000000000E+00 0. -1.
</event>
<event>
 7    1  0.2856214E-009  0.1332397E+03  0.7561462E-02  0.1222726E+00
         -1   -1    0    0    0  501 -0.00000000000E+00  0.00000000000E+00  0.50477573157E+02  0.50477573157E+02  0.00000000000E+00 0.  1.
          1   -1    0    0  501    0  0.00000000000E+00 -0.00000000000E+00 -0.40183996799E+03  0.40183996799E+03  0.00000000000E+00 0. -1.
         25    2    1    2    0    0 -0.82831589476E+02 -0.60105853141E+01 -0.12888488007E+03  0.19789120749E+03  0.12510962530E+03 0.  0.
          5    1    3    3  502    0 -0.13795283901E+02 -0.55925963113E+02 -0.82775113617E+02  0.10093173457E+03  0.41800000000E+01 0.  1.
         -5    1    3    3    0  502 -0.69036305575E+02  0.49915377799E+02 -0.46109766454E+02  0.96959472929E+02  0.41800000000E+01 0.  1.
        -11    1    1    2    0    0  0.53014442085E+02  0.48279908284E+02 -0.13030410410E+03  0.14873009163E+03  0.00000000000E+00 0. -1.
         11    1    1    2    0    0  0.29817147391E+02 -0.42269322969E+02 -0.92173410670E+02  0.10569624202E+03  0.00000000000E+00 0.  1.
</event>
<event>
 7    1  0.2856214E-009  0.1848822E+03  0.7561462E-02  0.1163160E+00
         -1   -1    0    0    0  501 -0.00000000000E+00  0.00000000000E+00  0.21868939314E+03  0.21868939314E+03  0.00000000000E+00 0.  1.
          1   -1    0    0  501    0  0.00000000000E+00 -0.00000000000E+00 -0.16930706429E+03  0.16930706429E+03  0.00000000000E+00 0. -1.
         25    2    1    2    0    0 -0.10328166515E+03 -0.11952807040E+03  0.33101413421E+02  0.20419853415E+03  0.12508907149E+03 0.  0.
          5    1    3    3  502    0  0.22928895437E+02 -0.51336143586E+02  0.21039583417E+02  0.60176991904E+02  0.41800000000E+01 0.  1.
         -5    1    3    3    0  502 -0.12621056059E+03 -0.68191926819E+02  0.12061830004E+02  0.14402154224E+03  0.41800000000E+01 0.  1.
        -11    1    1    2    0    0  0.52251407368E+02  0.16329491232E+02 -0.26703128328E+02  0.60909103739E+02  0.00000000000E+00 0.  1.
         11    1    1    2    0    0  0.51030257780E+02  0.10319857917E+03  0.42984043758E+02  0.12288881955E+03  0.00000000000E+00 0. -1.
</event>
<event>
 7    1  0.2856214E-009  0.1225476E+03  0.7561462E-02  0.1238953E+00
          2   -1    0    0  501    0  0.00000000000E+00  0.00000000000E+00  0.51094510639E+03  0.51094510639E+03  0.00000000000E+00 0. -1.
         -2   -1    0    0    0  501 -0.00000000000E+00 -0.00000000000E+00 -0.45608522159E+02  0.45608522159E+02  0.00000000000E+00 0.  1.
         25    2    1    2    0    0 -0.22201540943E+02  0.88597771701E+02  0.34818217881E+03  0.38107816089E+03  0.12508901429E+03 0.  0.
          5    1    3    3  502    0  0.37106952526E+02  0.30325467646E+02  0.23891797579E+03  0.24371260014E+03  0.41800000000E+01 0. -1.
         -5    1    3    3    0  502 -0.59308493469E+02  0.58272304056E+02  0.10926420303E+03  0.13736556075E+03  0.41800000000E+01 0. -1.
        -11    1    1    2    0    0 -0.24304888252E+02 -0.24132632534E+02  0.81404811601E+02  0.88316787180E+02  0.00000000000E+00 0. -1.
         11    1    1    2    0    0  0.46506429195E+02 -0.64465139167E+02  0.35749593819E+02  0.87158680477E+02  0.00000000000E+00 0.  1.
</event>
<event>
 7    1  0.2856214E-009  0.1115788E+03  0.7561462E-02  0.1257674E+00
         -1   -1    0    0    0  501 -0.00000000000E+00  0.00000000000E+00  0.98767297446E+02  0.98767297446E+02  0.00000000000E+00 0.  1.
          1   -1    0    0  501    0  0.00000000000E+00 -0.00000000000E+00 -0.30435063309E+03  0.30435063309E+03  0.00000000000E+00 0. -1.
         25    2    1    2    0    0 -0.49351471724E+02 -0.58490572716E+02 -0.23627760688E+03  0.27808592288E+03  0.12509179884E+03 0.  0.
          5    1    3    3  502    0 -0.61177900346E+02 -0.92161097370E+02 -0.17657403139E+03  0.20840408902E+03  0.41800000000E+01 0. -1.
         -5    1    3    3    0  502  0.11826428622E+02  0.33670524654E+02 -0.59703575482E+02  0.69681833858E+02  0.41800000000E+01 0. -1.
        -11    1    1    2    0    0  0.32254502704E+02  0.38125550828E+02  0.64784352316E+02  0.81798061564E+02  0.00000000000E+00 0.  1.
         11    1    1    2    0    0  0.17096969020E+02  0.20365021888E+02 -0.34090081080E+02  0.43233946087E+02  0.00000000000E+00 0. -1.
</event>
<event>
 7    1  0.2856214E-009  0.1619352E+03  0.7561462E-02  0.1186529E+00
          2   -1    0    0  501    0  0.00000000000E+00  0.00000000000E+00  0.87509675716E+02  0.87509675716E+02  0.00000000000E+00 0. -1.
         -2   -1    0    0    0  501 -0.00000000000E+00 -0.00000000000E+00 -0.44834309791E+03  0.44834309791E+03  0.00000000000E+00 0.  1.
         25    2    1    2    0    0  0.95167132120E+02  0.95363335612E+02 -0.31741984690E+03  0.36681566060E+03  0.12508965120E+03 0.  0.
          5    1    3    3  502    0  0.10324973261E+03  0.10681843940E+03 -0.20367683242E+03  0.25213569907E+03  0.41800000000E+01 0. -1.
         -5    1    3    3    0  502 -0.80826004859E+01 -0.11455103790E+02 -0.11374301448E+03  0.11467996153E+03  0.41800000000E+01 0. -1.
        -11    1    1    2    0    0 -0.40827717199E+02  0.10031156098E+02  0.19272027509E+01  0.42086110473E+02  0.00000000000E+00 0. -1.
         11    1    1    2    0    0 -0.54339414921E+02 -0.10539449171E+03 -0.45340778049E+02  0.12695100256E+03  0.00000000000E+00 0.  1.
</event>
<event>
 7    1  0.2856214E-009  0.9942880E+02  0.7561462E-02  0.1281502E+00
          1   -1    0    0  501    0  0.00000000000E+00  0.00000000000E+00  0.49374214059E+02  0.49374214059E+02  0.00000000000E+00 0. -1.
         -1   -1    0    0    0  501 -0.00000000000E+00 -0.00000000000E+00 -0.25266896978E+03  0.25266896978E+03  0.00000000000E+00 0.  1.
         25    2    1    2    0    0  0.82556812428E+01 -0.13571130041E+02 -0.13435391591E+03  0.18425861740E+03  0.12509169247E+03 0.  0.
          5    1    3    3  502    0  0.28445401379E+00 -0.58080737313E+02 -0.20587103042E+02  0.61763696235E+02  0.41800000000E+01 0.  1.
         -5    1    3    3    0  502  0.79712272290E+01  0.44509607272E+02 -0.11376681286E+03  0.12249492117E+03  0.41800000000E+01 0.  1.
        -11    1    1    2    0    0  0.42018735773E+02  0.15801149913E+02 -0.27974812486E+02  0.52894618140E+02  0.00000000000E+00 0.  1.
         11    1    1    2    0    0 -0.50274417015E+02 -0.22300198713E+01 -0.40966027331E+02  0.64889948298E+02  0.00000000000E+00 0. -1.
</event>
<event>
 7    1  0.2856214E-009  0.1132006E+03  0.7561462E-02  0.1254755E+00
          2   -1    0    0  501    0  0.00000000000E+00  0.00000000000E+00  0.61511330167E+03  0.61511330167E+03  0.00000000000E+00 0.  1.
         -2   -1    0    0    0  501 -0.00000000000E+00 -0.00000000000E+00 -0.32530774088E+02  0.32530774088E+02  0.00000000000E+00 0. -1.
         25    2    1    2    0    0  0.25333002540E+02  0.85539693761E+02  0.31717558424E+03  0.35243138923E+03  0.12509489456E+03 0.  0.
          5    1    3    3  502    0  0.20388116034E+02 -0.56130206461E+00  0.22563779967E+03  0.22659629162E+03  0.41800000000E+01 0.  1.
         -5    1    3    3    0  502  0.49448865060E+01  0.86100995826E+02  0.91537784572E+02  0.12583509760E+03  0.41800000000E+01 0.  1.
        -11    1    1    2    0    0 -0.12769373845E+02  0.13976397712E+02  0.99937464412E+02  0.10171476488E+03  0.00000000000E+00 0.  1.
         11    1    1    2    0    0 -0.12563628695E+02 -0.99516091473E+02  0.16546947893E+03  0.19349792165E+03  0.00000000000E+00 0. -1.
</event>
<event>
 7    1  0.4306854E-009  0.1101040E+03  0.7561462E-02  0.1260377E+00
          1   -1    0    0  501    0  0.00000000000E+00  0.00000000000E+00  0.43211531839E+03  0.43211531839E+03  0.00000000000E+00 0. -1.
         -1   -1    0    0    0  501 -0.00000000000E+00 -0.00000000000E+00 -0.45813021922E+02  0.45813021922E+02  0.00000000000E+00 0.  1.
         25    2    1    2    0    0 -0.76618761025E+02 -0.31538389023E+02  0.15720274814E+03  0.21731838370E+03  0.12509784710E+03 0.  0.
          5    1    3    3  502    0 -0.10243826903E+03 -0.11411238303E+02  0.71589530280E+02  0.12556412134E+03  0.41800000000E+01 0.  1.
         -5    1    3    3    0  502  0.25819508008E+02 -0.20127150720E+02  0.85613217856E+02  0.91754262361E+02  0.41800000000E+01 0.  1.
        -11    1    1    2    0    0  0.40497200823E+02  0.90437614504E+01  0.17942461143E+02  0.45207795871E+02  0.00000000000E+00 0.  1.
         11    1    1    2    0    0  0.36121560203E+02  0.22494627573E+02  0.21115708719E+03  0.21540216074E+03  0.00000000000E+00 0. -1.
</event>
<event>
 7    1  0.2856214E-009  0.1283480E+03  0.7561462E-02  0.1229928E+00
          1   -1    0    0  501    0  0.00000000000E+00  0.00000000000E+00  0.38784082306E+03  0.38784082306E+03  0.00000000000E+00 0. -1.
         -1   -1    0    0    0  501 -0.00000000000E+00 -0.00000000000E+00 -0.49450560789E+02  0.49450560789E+02  0.00000000000E+00 0.  1.
         25    2    1    2    0    0  0.23713048193E+02  0.74720155259E+02  0.24202669348E+03  0.28349617252E+03  0.12509096377E+03 0.  0.
          5    1    3    3  502    0 -0.45052867608E+02  0.15859684773E+01  0.97242903295E+02  0.10726570196E+03  0.41800000000E+01 0.  1.
         -5    1    3    3    0  502  0.68765915801E+02  0.73134186782E+02  0.14478379019E+03  0.17623047056E+03  0.41800000000E+01 0.  1.
        -11    1    1    2    0    0 -0.38096305179E+02 -0.85082121239E+02  0.53669667293E+02  0.10756732315E+03  0.00000000000E+00 0.  1.
         11    1    1    2    0    0  0.14383256987E+02  0.10361965980E+02  0.42693901493E+02  0.46227888176E+02  0.00000000000E+00 0. -1.
</event>
<event>
 7    1  0.2856214E-009  0.1228648E+03  0.7561462E-02  0.1238444E+00
          2   -1    0    0  501    0  0.00000000000E+00  0.00000000000E+00  0.83517985929E+03  0.83517985929E+03  0.00000000000E+00 0. -1.
         -2   -1    0    0    0  501 -0.00000000000E+00 -0.00000000000E+00 -0.28340007976E+02  0.28340007976E+02  0.00000000000E+00 0.  1.
         25    2    1    2    0    0 -0.84863102614E+02  0.76804559027E+01  0.59825148039E+03  0.61709988766E+03  0.12508677778E+03 0.  0.
          5    1    3    3  502    0 -0.54341762946E+02 -0.51929859783E+02  0.20983917889E+03  0.22293427493E+03  0.41800000000E+01 0.  1.
         -5    1    3    3    0  502 -0.30521339667E+02  0.59610315685E+02  0.38841230149E+03  0.39416561273E+03  0.41800000000E+01 0.  1.
        -11    1    1    2    0    0  0.19646649708E+02 -0.28742463642E+02  0.15653460168E+03  0.16035960085E+03  0.00000000000E+00 0. -1.
         11    1    1    2    0    0  0.65216452905E+02  0.21062007739E+02  0.52053769249E+02  0.86060378761E+02  0.00000000000E+00 0.  1.
</event>
<event>
 7    1  0.2856214E-009  0.9670139E+02  0.7561462E-02  0.1287389E+00
         -1   -1    0    0    0  501 -0.00000000000E+00  0.00000000000E+00  0.13751078607E+02  0.13751078607E+02  0.00000000000E+00 0.  1.
          1   -1    0    0  501    0  0.00000000000E+00 -0.00000000000E+00 -0.99432379698E+03  0.99432379698E+03  0.00000000000E+00 0. -1.
         25    2    1    2    0    0 -0.27678292835E+02  0.13001245406E+02 -0.62384597260E+03  0.63699777268E+03  0.12508894675E+03 0.  0.
          5    1    3    3  502    0 -0.42425057557E+02  0.44444817082E+02 -0.15408788612E+03  0.16593907413E+03  0.41800000000E+01 0. -1.
         -5    1    3    3    0  502  0.14746764722E+02 -0.31443571676E+02 -0.46975808649E+03  0.47105869856E+03  0.41800000000E+01 0. -1.
        -11    1    1    2    0    0  0.53719184850E+02 -0.33836211855E+02 -0.17154316846E+03  0.18291445733E+03  0.00000000000E+00 0.  1.
         11    1    1    2    0    0 -0.26040892015E+02  0.20834966449E+02 -0.18518357731E+03  0.18816264557E+03  0.00000000000E+00 0. -1.
</event>
<event>
 7    1  0.2856214E-009  0.1018810E+03  0.7561462E-02  0.1276389E+00
          1   -1    0    0  501    0  0.00000000000E+00  0.00000000000E+00  0.91492778824E+03  0.91492778824E+03  0.00000000000E+00 0.  1.
         -1   -1    0    0    0  501 -0.00000000000E+00 -0.00000000000E+00 -0.20903723091E+02  0.20903723091E+02  0.00000000000E+00 0. -1.
         25    2    1    2    0    0 -0.57178422409E+02 -0.23528172583E+02  0.67898561550E+03  0.69317533165E+03  0.12509047709E+03 0.  0.
          5    1    3    3  502    0  0.51416950966E+00 -0.42356940702E+02  0.75830401734E+02  0.86960318670E+02  0.41800000000E+01 0.  1.
         -5    1    3    3    0  502 -0.57692591919E+02  0.18828768119E+02  0.60315521377E+03  0.60621501298E+03  0.41800000000E+01 0.  1.
        -11    1    1    2    0    0 -0.18649032488E+02  0.15243735709E+02  0.11139298141E+03  0.11396733829E+03  0.00000000000E+00 0.  1.
         11    1    1    2    0    0  0.75827454897E+02  0.82844368733E+01  0.10364546825E+03  0.12868884139E+03  0.00000000000E+00 0. -1.
</event>
<event>
 7    1  0.2856214E-009  0.1173073E+03  0.7561462E-02  0.1247606E+00
          1   -1    0    0  501    0  0.00000000000E+00  0.00000000000E+00  0.52830934150E+03  0.52830934150E+03  0.00000000000E+00 0. -1.
         -1   -1    0    0    0  501 -0.00000000000E+00 -0.00000000000E+00 -0.36626146865E+02  0.36626146865E+02  0.00000000000E+00 0.  1.
         25    2    1    2    0    0  0.90667557157E+02 -0.78997865199E+01  0.28849202031E+03  0.32734610201E+03  0.12507922359E+03 0.  0.
          5    1    3    3  502    0  0.76399050828E+01 -0.40896862315E+02  0.18895950198E+03  0.19353058488E+03  0.41800000000E+01 0.  1.
         -5    1    3    3    0  502  0.83027652074E+02  0.32997075795E+02  0.99532518334E+02  0.13381551713E+03  0.41800000000E+01 0.  1.
        -11    1    1    2    0    0 -0.18821936504E+02 -0.18903763072E+02  0.79599205316E+01  0.27838424649E+02  0.00000000000E+00 0.  1.
         11    1    1    2    0    0 -0.71845620652E+02  0.26803549591E+02  0.19523125379E+03  0.20975096170E+03  0.00000000000E+00 0. -1.
</event>
<event>
 7    1  0.2856214E-009  0.9377457E+02  0.7561462E-02  0.1293960E+00
         -2   -1    0    0    0  501 -0.00000000000E+00  0.00000000000E+00  0.28531600323E+02  0.28531600323E+02  0.00000000000E+00 0. -1.
          2   -1    0    0  501    0  0.00000000000E+00 -0.00000000000E+00 -0.72075261871E+03  0.72075261871E+03  0.00000000000E+00 0.  1.
         25    2    1    2    0    0 -0.11776712307E+02  0.43096387262E+02 -0.58726368655E+03  0.60209802047E+03  0.12508956455E+03 0.  0.
          5    1    3    3  502    0 -0.50121114756E+01 -0.20982998775E+02 -0.15964751152E+02  0.27161612220E+02  0.41800000000E+01 0.  1.
         -5    1    3    3    0  502 -0.67646008311E+01  0.64079386037E+02 -0.57129893540E+03  0.57493640825E+03  0.41800000000E+01 0.  1.
        -11    1    1    2    0    0 -0.13648383113E+02  0.24907785437E+02 -0.44085516713E+02  0.52442434352E+02  0.00000000000E+00 0.  1.
         11    1    1    2    0    0  0.25425095419E+02 -0.68004172698E+02 -0.60871815127E+02  0.94743764218E+02  0.00000000000E+00 0. -1.
</event>
<event>
 7    1  0.2856214E-009  0.9622037E+02  0.7561462E-02  0.1288451E+00
          1   -1    0    0  501    0  0.00000000000E+00  0.00000000000E+00  0.10579489944E+04  0.10579489944E+04  0.00000000000E+00 0. -1.
         -1   -1    0    0    0  501 -0.00000000000E+00 -0.00000000000E+00 -0.11831685078E+02  0.11831685078E+02  0.00000000000E+00 0.  1.
         25    2    1    2    0    0 -0.14721117007E+02  0.49248850817E+01  0.72845389336E+03  0.73927943710E+03  0.12509214839E+03 0.  0.
          5    1    3    3  502    0  0.24791304607E+02 -0.36187999253E+02  0.55282586387E+03  0.55457919925E+03  0.41800000000E+01 0. -1.
         -5    1    3    3    0  502 -0.39512421614E+02  0.41112884335E+02  0.17562802949E+03  0.18470023785E+03  0.41800000000E+01 0. -1.
        -11    1    1    2    0    0 -0.13960960422E+02 -0.42038783280E+02  0.15757467059E+03  0.16368245027E+03  0.00000000000E+00 0.  1.
         11    1    1    2    0    0  0.28682077429E+02  0.37113898199E+02  0.16008874536E+03  0.16681879210E+03  0.00000000000E+00 0. -1.
</event>
<event>
 7    1  0.2856214E-009  0.1082426E+03  0.7561462E-02  0.1263859E+00
         -1   -1    0    0    0  501 -0.00000000000E+00  0.00000000000E+00  0.54495147509E+02  0.54495147509E+02  0.00000000000E+00 0.  1.
          1   -1    0    0  501    0  0.00000000000E+00 -0.00000000000E+00 -0.40489484771E+03  0.40489484771E+03  0.00000000000E+00 0. -1.
         25    2    1    2    0    0 -0.12847381322E+02 -0.52744709850E+02 -0.32770228763E+03  0.35494408961E+03  0.12509779298E+03 0.  0.
          5    1    3    3  502    0 -0.46556244259E+01  0.31278645214E+02 -0.24615484735E+02  0.40291723392E+02  0.41800000000E+01 0.  1.
         -5    1    3    3    0  502 -0.81917568961E+01 -0.84023355064E+02 -0.30308680290E+03  0.31465236622E+03  0.41800000000E+01 0.  1.
        -11    1    1    2    0    0 -0.65232794699E+01  0.72266540013E+02 -0.72975932243E+01  0.72926407065E+02  0.00000000000E+00 0. -1.
         11    1    1    2    0    0  0.19370660792E+02 -0.19521830163E+02 -0.15399819344E+02  0.31519498541E+02  0.00000000000E+00 0.  1.
</event>
<event>
 7    1  0.2856214E-009  0.1065237E+03  0.7561462E-02  0.1267146E+00
         -1   -1    0    0    0  501 -0.00000000000E+00  0.00000000000E+00  0.70392547547E+02  0.70392547547E+02  0.00000000000E+00 0.  1.
          1   -1    0    0  501    0  0.00000000000E+00 -0.00000000000E+00 -0.23200419612E+03  0.23200419612E+03  0.00000000000E+00 0. -1.
         25    2    1    2    0    0 -0.42181196114E+02 -0.55289487452E+01 -0.15158463313E+03  0.20108607791E+03  0.12509151509E+03 0.  0.
          5    1    3    3  502    0 -0.83582828900E+02  0.49229497432E+01 -0.12534027751E+03  0.15079118770E+03  0.41800000000E+01 0. -1.
         -5    1    3    3    0  502  0.41401632786E+02 -0.10451898488E+02 -0.26244355620E+02  0.50294890211E+02  0.41800000000E+01 0. -1.
        -11    1    1    2    0    0 -0.21796372702E+02 -0.20183495374E+01  0.20529220021E+02  0.30010072850E+02  0.00000000000E+00 0.  1.
         11    1    1    2    0    0  0.63977568816E+02  0.75472982826E+01 -0.30556235462E+02  0.71300592905E+02  0.00000000000E+00 0. -1.
</event>
<event>
 7    1  0.2856214E-009  0.1170322E+03  0.7561462E-02  0.1248075E+00
         -1   -1    0    0    0  501 -0.00000000000E+00  0.00000000000E+00  0.18606250898E+02  0.18606250898E+02  0.00000000000E+00 0.  1.
          1   -1    0    0  501    0  0.00000000000E+00 -0.00000000000E+00 -0.79180426823E+03  0.79180426823E+03  0.00000000000E+00 0. -1.
         25    2    1    2    0    0  0.17970118029E+02  0.47709666428E+02 -0.48597431701E+03  0.50439843032E+03  0.12509037658E+03 0.  0.
          5    1    3    3  502    0  0.47291217033E+02  0.78749712497E+02 -0.34459495106E+03  0.35665267295E+03  0.41800000000E+01 0.  1.
         -5    1    3    3    0  502 -0.29321099003E+02 -0.31040046069E+02 -0.14137936594E+03  0.14774575737E+03  0.41800000000E+01 0.  1.
        -11    1    1    2    0    0  0.34283938875E+02 -0.23851747428E+02 -0.17532120704E+03  0.18022713436E+03  0.00000000000E+00 0. -1.
         11    1    1    2    0    0 -0.52254056904E+02 -0.23857919000E+02 -0.11190249329E+03  0.12578495445E+03  0.00000000000E+00 0.  1.
</event>
<event>
 7    1  0.2856214E-009  0.1527713E+03  0.7561462E-02  0.1197108E+00
          2   -1    0    0  501    0  0.00000000000E+00  0.00000000000E+00  0.24193223148E+03  0.24193223148E+03  0.00000000000E+00 0.  1.
         -2   -1    0    0    0  501 -0.00000000000E+00 -0.00000000000E+00 -0.11563944743E+03  0.11563944743E+03  0.00000000000E+00 0. -1.
         25    2    1    2    0    0 -0.11172653693E+03 -0.30638463534E+02  0.12834817130E+03  0.21340603260E+03  0.12508935675E+03 0.  0.
          5    1    3    3  502    0  0.18058954811E+01 -0.48703800812E+02  0.67226928664E+02  0.83139965177E+02  0.41800000000E+01 0. -1.
         -5    1    3    3    0  502 -0.11353243241E+03  0.18065337278E+02  0.61121242638E+02  0.13026606742E+03  0.41800000000E+01 0. -1.
        -11    1    1    2    0    0  0.74479215067E+02 -0.21493575778E+02  0.12346998763E+02  0.78495704693E+02  0.00000000000E+00 0.  1.
         11    1    1    2    0    0  0.37247321861E+02  0.52132039312E+02 -0.14402386013E+02  0.65669941614E+02  0.00000000000E+00 0. -1.
</event>
<event>
 7    1  0.2856214E-009  0.1353437E+03  0.7561462E-02  0.1219735E+00
         -2   -1    0    0    0  501 -0.00000000000E+00  0.00000000000E+00  0.30416939978E+03  0.30416939978E+03  0.00000000000E+00 0.  1.
          2   -1    0    0  501    0  0.00000000000E+00 -0.00000000000E+00 -0.96862199680E+02  0.96862199680E+02  0.00000000000E+00 0. -1.
         25    2    1    2    0    0 -0.10123857284E+03  0.51261837535E+02  0.18989934376E+03  0.25413939545E+03  0.12509215379E+03 0.  0.
          5    1    3    3  502    0 -0.66041614197E+02  0.63578771857E+02  0.40866730375E+02  0.10045554782E+03  0.41800000000E+01 0. -1.
         -5    1    3    3    0  502 -0.35196958642E+02 -0.12316934322E+02  0.14903261339E+03  0.15368384763E+03  0.41800000000E+01 0. -1.
        -11    1    1    2    0    0  0.21571256027E+02  0.23671833988E+02  0.19510927256E+02  0.37501347887E+02  0.00000000000E+00 0.  1.
         11    1    1    2    0    0  0.79667316811E+02 -0.74933671523E+02 -0.21030709207E+01  0.10939085612E+03  0.00000000000E+00 0. -1.
</event>
<event>
 7    1  0.2856214E-009  0.1103535E+03  0.7561462E-02  0.1259917E+00
         -2   -1    0    0    0  501 -0.00000000000E+00  0.00000000000E+00  0.73752987425E+02  0.73752987425E+02  0.00000000000E+00 0.  1.
          2   -1    0    0  501    0  0.00000000000E+00 -0.00000000000E+00 -0.23152228399E+03  0.23152228399E+03  0.00000000000E+00 0. -1.
         25    2    1    2    0    0 -0.42304992592E+02  0.21463326916E+02 -0.15222205611E+03  0.20265533259E+03  0.12508893900E+03 0.  0.
          5    1    3    3  502    0  0.44557627171E+02  0.80614440057E+01 -0.58608412836E+02  0.74180775634E+02  0.41800000000E+01 0. -1.
         -5    1    3    3    0  502 -0.86862619763E+02  0.13401882910E+02 -0.93613643275E+02  0.12847455696E+03  0.41800000000E+01 0. -1.
        -11    1    1    2    0    0  0.58499960191E+02 -0.33180247560E+02 -0.27741228239E+02  0.72751288062E+02  0.00000000000E+00 0. -1.
         11    1    1    2    0    0 -0.16194967599E+02  0.11716920645E+02  0.22193987782E+02  0.29868650766E+02  0.00000000000E+00 0.  1.
</event>
<event>
 7    1  0.2856214E-009  0.1016947E+03  0.7561462E-02  0.1276772E+00
         -2   -1    0    0    0  501 -0.00000000000E+00  0.00000000000E+00  0.25011999233E+02  0.25011999233E+02  0.00000000000E+00 0.  1.
          2   -1    0    0  501    0  0.00000000000E+00 -0.00000000000E+00 -0.68010499052E+03  0.68010499052E+03  0.00000000000E+00 0. -1.
         25    2    1    2    0    0 -0.28890281908E+02  0.95306206871E+01 -0.52163496576E+03  0.53728487983E+03  0.12508606427E+03 0.  0.
          5    1    3    3  502    0  0.33339699411E+02 -0.11947149552E+02 -0.52082406491E+02  0.63121465486E+02  0.41800000000E+01 0. -1.
         -5    1    3    3    0  502 -0.62229981318E+02  0.21477770240E+02 -0.46955255927E+03  0.47416341435E+03  0.41800000000E+01 0. -1.
        -11    1    1    2    0    0  0.26483595331E+01 -0.51877262183E+02 -0.67380031881E+02  0.85078392298E+02  0.00000000000E+00 0. -1.
         11    1    1    2    0    0  0.26241922375E+02  0.42346641495E+02 -0.66077993645E+02  0.82753717621E+02  0.00000000000E+00 0.  1.
</event>
<event>
 7    1  0.2856214E-009  0.1336861E+03  0.7561462E-02  0.1222086E+00
          2   -1    0    0  501    0  0.00000000000E+00  0.00000000000E+00  0.41518699694E+03  0.41518699694E+03  0.00000000000E+00 0.  1.
         -2   -1    0    0    0  501 -0.00000000000E+00 -0.00000000000E+00 -0.46175860849E+02  0.46175860849E+02  0.00000000000E+00 0. -1.
         25    2    1    2    0    0  0.74578968275E+02  0.41993321382E+02  0.18534490095E+03  0.23942978646E+03  0.12509368005E+03 0.  0.
          5    1    3    3  502    0  0.36015845963E+02 -0.38973851325E+02  0.33095137121E+02  0.62680640939E+02  0.41800000000E+01 0.  1.
         -5    1    3    3    0  502  0.38563122313E+02  0.80967172707E+02  0.15224976383E+03  0.17674914553E+03  0.41800000000E+01 0.  1.
        -11    1    1    2    0    0 -0.14190165292E+02  0.28319535936E+02  0.52707075412E+02  0.61493029728E+02  0.00000000000E+00 0.  1.
         11    1    1    2    0    0 -0.60388802984E+02 -0.70312857318E+02  0.13095915973E+03  0.16044004160E+03  0.00000000000E+00 0. -1.
</event>
<event>
 7    1  0.2856214E-009  0.7333302E+02  0.7561462E-02  0.1349112E+00
          4   -1    0    0  501    0  0.00000000000E+00  0.00000000000E+00  0.16838339274E+03  0.16838339274E+03  0.00000000000E+00 0.  1.
         -4   -1    0    0    0  501 -0.00000000000E+00 -0.00000000000E+00 -0.83502155151E+02  0.83502155151E+02  0.00000000000E+00 0. -1.
         25    2    1    2    0    0 -0.18088123277E+02 -0.67551909378E+02  0.60803397588E+02  0.15567134049E+03  0.12508426132E+03 0.  0.
          5    1    3    3  502    0 -0.43780397855E+01 -0.40267897145E+01  0.85659103242E+02  0.85967067159E+02  0.41800000000E+01 0. -1.
         -5    1    3    3    0  502 -0.13710083492E+02 -0.63525119664E+02 -0.24855705654E+02  0.69704273335E+02  0.41800000000E+01 0. -1.
        -11    1    1    2    0    0  0.12044960397E+02  0.80990381542E+01  0.32756347533E+02  0.35828114570E+02  0.00000000000E+00 0.  1.
         11    1    1    2    0    0  0.60431628806E+01  0.59452871224E+02 -0.86785075287E+01  0.60386092830E+02  0.00000000000E+00 0. -1.
</event>
<event>
 7    1  0.2856214E-009  0.2300961E+03  0.7561462E-02  0.1126572E+00
         -1   -1    0    0    0  501 -0.00000000000E+00  0.00000000000E+00  0.50493378492E+02  0.50493378492E+02  0.00000000000E+00 0.  1.
          1   -1    0    0  501    0  0.00000000000E+00 -0.00000000000E+00 -0.12008665913E+04  0.12008665913E+04  0.00000000000E+00 0. -1.
         25    2    1    2    0    0  0.15105550108E+03  0.15254157209E+03 -0.46283640616E+03  0.52530830831E+03  0.12507831264E+03 0.  0.
          5    1    3    3  502    0 -0.20161995957E+02  0.11114028543E+02 -0.24321574678E+02  0.33749653424E+02  0.41800000000E+01 0. -1.
         -5    1    3    3    0  502  0.17121749704E+03  0.14142754355E+03 -0.43851483148E+03  0.49155865488E+03  0.41800000000E+01 0. -1.
        -11    1    1    2    0    0 -0.28892816078E+02 -0.29583642820E+02 -0.47581927374E+02  0.63039880679E+02  0.00000000000E+00 0.  1.
         11    1    1    2    0    0 -0.12216268500E+03 -0.12295792927E+03 -0.63995487929E+03  0.66301178082E+03  0.00000000000E+00 0. -1.
</event>
<event>
 7    1  0.2856214E-009  0.9886557E+02  0.7561462E-02  0.1282700E+00
          3   -1    0    0  501    0  0.00000000000E+00  0.00000000000E+00  0.26019558339E+03  0.26019558339E+03  0.00000000000E+00 0. -1.
         -3   -1    0    0    0  501 -0.00000000000E+00 -0.00000000000E+00 -0.87452859557E+02  0.87452859557E+02  0.00000000000E+00 0.  1.
         25    2    1    2    0    0  0.71184332558E+02  0.23383661502E+02  0.17876864104E+03  0.23069216281E+03  0.12508653859E+03 0.  0.
          5    1    3    3  502    0  0.54084102544E+02 -0.18903390128E+02  0.13250732266E+02  0.58953223932E+02  0.41800000000E+01 0.  1.
         -5    1    3    3    0  502  0.17100230014E+02  0.42287051630E+02  0.16551790877E+03  0.17173893888E+03  0.41800000000E+01 0.  1.
        -11    1    1    2    0    0 -0.26532772772E+02 -0.39007020292E+02 -0.37391370632E+02  0.60196762876E+02  0.00000000000E+00 0.  1.
         11    1    1    2    0    0 -0.44651559787E+02  0.15623358789E+02  0.31365453427E+02  0.56759517263E+02  0.00000000000E+00 0. -1.
</event>
<event>
 7    1  0.2856214E-009  0.1253416E+03  0.7561462E-02  0.1234536E+00
         -2   -1    0    0    0  501 -0.00000000000E+00  0.00000000000E+00  0.31149274798E+02  0.31149274798E+02  0.00000000000E+00 0.  1.
          2   -1    0    0  501    0  0.00000000000E+00 -0.00000000000E+00 -0.59479736646E+03  0.59479736646E+03  0.00000000000E+00 0. -1.
         25    2    1    2    0    0  0.35624112731E+02  0.60934148783E+02 -0.21088971874E+03  0.25515861946E+03  0.12509756079E+03 0.  0.
          5    1    3    3  502    0 -0.42530849378E+02  0.28967190965E+01 -0.40905134038E+02  0.59228088952E+02  0.41800000000E+01 0.  1.
         -5    1    3    3    0  502  0.78154962109E+02  0.58037429687E+02 -0.16998458471E+03  0.19593053051E+03  0.41800000000E+01 0.  1.
        -11    1    1    2    0    0  0.19547778675E+02  0.88457414421E+01 -0.37338045168E+02  0.43063817873E+02  0.00000000000E+00 0. -1.
         11    1    1    2    0    0 -0.55171891407E+02 -0.69779890225E+02 -0.31542032774E+03  0.32772420392E+03  0.00000000000E+00 0.  1.
</event>
<event>
 7    1  0.2856214E-009  0.2288691E+03  0.7561462E-02  0.1127438E+00
         -1   -1    0    0    0  501 -0.00000000000E+00  0.00000000000E+00  0.11854261413E+04  0.11854261413E+04  0.00000000000E+00 0.  1.
          1   -1    0    0  501    0  0.00000000000E+00 -0.00000000000E+00 -0.69730083119E+02  0.69730083119E+02  0.00000000000E+00 0. -1.
         25    2    1    2    0    0  0.21711915992E+03  0.27591684582E+02  0.24026167603E+03  0.34824267494E+03  0.12508100182E+03 0.  0.
          5    1    3    3  502    0  0.18846722533E+03 -0.12514140110E+02  0.23013333196E+03  0.29775043510E+03  0.41800000000E+01 0. -1.
         -5    1    3    3    0  502  0.28651934593E+02  0.40105824691E+02  0.10128344071E+02  0.50492239836E+02  0.41800000000E+01 0. -1.
        -11    1    1    2    0    0 -0.73645983918E+02 -0.16289861606E+02  0.15665032601E+03  0.17386320823E+03  0.00000000000E+00 0. -1.
         11    1    1    2    0    0 -0.14347317600E+03 -0.11301822976E+02  0.71878405612E+03  0.73305034122E+03  0.00000000000E+00 0.  1.
</event>
<event>
 7    1  0.2856214E-009  0.9819893E+02  0.7561462E-02  0.1284130E+00
          2   -1    0    0  501    0  0.00000000000E+00  0.00000000000E+00  0.28197953909E+03  0.28197953909E+03  0.00000000000E+00 0. -1.
         -2   -1    0    0    0  501 -0.00000000000E+00 -0.00000000000E+00 -0.50571067397E+02  0.50571067397E+02  0.00000000000E+00 0.  1.
         25    2    1    2    0    0 -0.39510354891E+02 -0.16870917029E+02  0.17958316102E+03  0.22303046830E+03  0.12508709800E+03 0.  0.
          5    1    3    3  502    0 -0.62593239249E+02  0.24380295789E+02  0.46674841351E+02  0.81904368855E+02  0.41800000000E+01 0.  1.
         -5    1    3    3    0  502  0.23082884357E+02 -0.41251212818E+02  0.13290831966E+03  0.14112609945E+03  0.41800000000E+01 0.  1.
        -11    1    1    2    0    0  0.50511527347E+02  0.34280252302E+02  0.61599872734E+02  0.86724243518E+02  0.00000000000E+00 0. -1.
         11    1    1    2    0    0 -0.11001172456E+02 -0.17409335273E+02 -0.97745620602E+01  0.22795894664E+02  0.00000000000E+00 0.  1.
</event>
<event>
 7    1  0.2856214E-009  0.2529717E+03  0.7561462E-02  0.1111441E+00
          2   -1    0    0  501    0  0.00000000000E+00  0.00000000000E+00  0.25338032410E+03  0.25338032410E+03  0.00000000000E+00 0. -1.
         -2   -1    0    0    0  501 -0.00000000000E+00 -0.00000000000E+00 -0.28134685416E+03  0.28134685416E+03  0.00000000000E+00 0.  1.
         25    2    1    2    0    0  0.24104982273E+03 -0.27817353936E+02 -0.28443951194E+02  0.27447237247E+03  0.12508877915E+03 0.  0.
          5    1    3    3  502    0  0.16316855044E+03 -0.47375868054E+02 -0.70179508841E+02  0.18387790674E+03  0.41800000000E+01 0.  1.
         -5    1    3    3    0  502  0.77881272296E+02  0.19558514117E+02  0.41735557647E+02  0.90594465730E+02  0.41800000000E+01 0.  1.
        -11    1    1    2    0    0 -0.30960845516E+02 -0.24021000382E+02 -0.17909384177E+02  0.43085130336E+02  0.00000000000E+00 0.  1.
         11    1    1    2    0    0 -0.21008897722E+03  0.51838354319E+02  0.18386805318E+02  0.21716967545E+03  0.00000000000E+00 0. -1.
</event>
<event>
 7    1  0.2856214E-009  0.1038502E+03  0.7561462E-02  0.1272402E+00
         -1   -1    0    0    0  501 -0.00000000000E+00  0.00000000000E+00  0.67907775032E+02  0.67907775032E+02  0.00000000000E+00 0.  1.
          1   -1    0    0  501    0  0.00000000000E+00 -0.00000000000E+00 -0.29146468713E+03  0.29146468713E+03  0.00000000000E+00 0. -1.
         25    2    1    2    0    0 -0.53233543817E+02 -0.68176164612E+02 -0.98080925706E+02  0.18096729826E+03  0.12508994941E+03 0.  0.
          5    1    3    3  502    0 -0.16556871879E+02 -0.31002315755E+01 -0.10444811112E+03  0.10588022364E+03  0.41800000000E+01 0. -1.
         -5    1    3    3    0  502 -0.36676671937E+02 -0.65075933036E+02  0.63671854113E+01  0.75087074620E+02  0.41800000000E+01 0. -1.
        -11    1    1    2    0    0 -0.17204980150E+02  0.32025873296E+02 -0.78081870071E+02  0.86130403088E+02  0.00000000000E+00 0.  1.
         11    1    1    2    0    0  0.70438523967E+02  0.36150291315E+02 -0.47394116318E+02  0.92274760809E+02  0.00000000000E+00 0. -1.
</event>
<event>
 7    1  0.2856214E-009  0.1248560E+03  0.7561462E-02  0.1235294E+00
          2   -1    0    0  501    0  0.00000000000E+00  0.00000000000E+00  0.85289826518E+03  0.85289826518E+03  0.00000000000E+00 0. -1.
         -2   -1    0    0    0  501 -0.00000000000E+00 -0.00000000000E+00 -0.34658370391E+02  0.34658370391E+02  0.00000000000E+00 0.  1.
         25    2    1    2    0    0  0.10398019274E+03  0.65928462153E+02  0.34216942786E+03  0.38455911868E+03  0.12508939122E+03 0.  0.
          5    1    3    3  502    0  0.26324708404E+02  0.25884338065E+02  0.65492846925E+01  0.37727374141E+02  0.41800000000E+01 0.  1.
         -5    1    3    3    0  502  0.77655484340E+02  0.40044124088E+02  0.33562014316E+03  0.34683174454E+03  0.41800000000E+01 0.  1.
        -11    1    1    2    0    0 -0.90102541599E+02 -0.65144008796E+02  0.47629051901E+03  0.48909597052E+03  0.00000000000E+00 0. -1.
         11    1    1    2    0    0 -0.13877651145E+02 -0.78445335717E+00 -0.22005208130E+00  0.13901546364E+02  0.00000000000E+00 0.  1.
</event>
<event>
 7    1  0.2856214E-009  0.1920820E+03  0.7561462E-02  0.1156597E+00
         -1   -1    0    0    0  501 -0.00000000000E+00  0.00000000000E+00  0.24495926636E+02  0.24495926636E+02  0.00000000000E+00 0.  1.
          1   -1    0    0  501    0  0.00000000000E+00 -0.00000000000E+00 -0.19883732020E+04  0.19883732020E+04  0.00000000000E+00 0. -1.
         25    2    1    2    0    0  0.16627072093E+03 -0.10445970940E+01 -0.14587944099E+04  0.14735589903E+04  0.12509166135E+03 0.  0.
          5    1    3    3  502    0  0.14985112373E+03  0.40448039386E+02 -0.12730444526E+04  0.12824784808E+04  0.41800000000E+01 0. -1.
         -5    1    3    3    0  502  0.16419597205E+02 -0.41492636480E+02 -0.18574995733E+03  0.19108050948E+03  0.41800000000E+01 0. -1.
        -11    1    1    2    0    0 -0.49021033201E+02 -0.36326461513E+02 -0.23000417907E+03  0.23795923157E+03  0.00000000000E+00 0. -1.
         11    1    1    2    0    0 -0.11724968773E+03  0.37371058607E+02 -0.27507868644E+03  0.30135090680E+03  0.00000000000E+00 0.  1.
</event>
<event>
 7    1  0.2856214E-009  0.1172400E+03  0.7561462E-02  0.1247721E+00
          1   -1    0    0  501    0  0.00000000000E+00  0.00000000000E+00  0.47335877184E+02  0.47335877184E+02  0.00000000000E+00 0. -1.
         -1   -1    0    0    0  501 -0.00000000000E+00 -0.00000000000E+00 -0.43160113873E+03  0.43160113873E+03  0.00000000000E+00 0.  1.
         25    2    1    2    0    0  0.33534675942E+02  0.43588965215E+02 -0.33426572712E+03  0.36111676362E+03  0.12508864161E+03 0.  0.
          5    1    3    3  502    0  0.77038056677E+02  0.44932846126E+01 -0.20820192006E+03  0.22208233541E+03  0.41800000000E+01 0. -1.
         -5    1    3    3    0  502 -0.43503380735E+02  0.39095680603E+02 -0.12606380706E+03  0.13903442821E+03  0.41800000000E+01 0. -1.
        -11    1    1    2    0    0 -0.26047906840E+01 -0.62336755062E+02 -0.52534922865E+02  0.81563313362E+02  0.00000000000E+00 0.  1.
         11    1    1    2    0    0 -0.30929885258E+02  0.18747789847E+02  0.25353884411E+01  0.36256938933E+02  0.00000000000E+00 0. -1.
</event>
<event>
 7    1  0.2856214E-009  0.1293106E+03  0.7561462E-02  0.1228482E+00
         -1   -1    0    0    0  501 -0.00000000000E+00  0.00000000000E+00  0.46768477315E+02  0.46768477315E+02  0.00000000000E+00 0.  1.
          1   -1    0    0  501    0  0.00000000000E+00 -0.00000000000E+00 -0.50433617065E+03  0.50433617065E+03  0.00000000000E+00 0. -1.
         25    2    1    2    0    0 -0.22045620409E+02 -0.10552868467E+03 -0.23193401317E+03  0.28471552470E+03  0.12508889189E+03 0.  0.
          5    1    3    3  502    0  0.17132429572E+02 -0.34313153824E+02 -0.18860871048E+03  0.19251397544E+03  0.41800000000E+01 0.  1.
         -5    1    3    3    0  502 -0.39178049981E+02 -0.71215530846E+02 -0.43325302689E+02  0.92201549266E+02  0.41800000000E+01 0.  1.
        -11    1    1    2    0    0  0.53048701241E+02  0.88763729831E+02 -0.18970958166E+03  0.21606223597E+03  0.00000000000E+00 0. -1.
         11    1    1    2    0    0 -0.31003080833E+02  0.16764954839E+02 -0.35924098506E+02  0.50326887300E+02  0.00000000000E+00 0.  1.
</event>
<event>
 7    1  0.2856214E-009  0.1200409E+03  0.7561462E-02  0.1243030E+00
          1   -1    0    0  501    0  0.00000000000E+00  0.00000000000E+00  0.26799115251E+03  0.26799115251E+03  0.00000000000E+00 0. -1.
         -1   -1    0    0    0  501 -0.00000000000E+00 -0.00000000000E+00 -0.68815936797E+02  0.68815936797E+02  0.00000000000E+00 0.  1.
         25    2    1    2    0    0  0.52051200371E+01  0.71395260419E+02  0.55023743015E+02  0.15427050053E+03  0.12508956213E+03 0.  0.
          5    1    3    3  502    0 -0.33777028956E+02 -0.21477829007E+02  0.18271308151E+01  0.40286419932E+02  0.41800000000E+01 0. -1.
         -5    1    3    3    0  502  0.38982148993E+02  0.92873089426E+02  0.53196612200E+02  0.11398408060E+03  0.41800000000E+01 0. -1.
        -11    1    1    2    0    0 -0.34334962539E+02 -0.19421535333E+02  0.18698826094E+02  0.43654688002E+02  0.00000000000E+00 0.  1.
         11    1    1    2    0    0  0.29129842502E+02 -0.51973725085E+02  0.12545264660E+03  0.13888190078E+03  0.00000000000E+00 0. -1.
</event>
<event>
 7    1  0.2856214E-009  0.9313817E+02  0.7561462E-02  0.1295425E+00
          1   -1    0    0  501    0  0.00000000000E+00  0.00000000000E+00  0.33759905562E+02  0.33759905562E+02  0.00000000000E+00 0. -1.
         -1   -1    0    0    0  501 -0.00000000000E+00 -0.00000000000E+00 -0.51630824390E+03  0.51630824390E+03  0.00000000000E+00 0.  1.
         25    2    1    2    0    0 -0.23357712169E+02  0.45167789040E+02 -0.35537654435E+03  0.38016486657E+03  0.12508847116E+03 0.  0.
          5    1    3    3  502    0  0.10979359908E+02  0.41676386028E+02 -0.33896525857E+03  0.34171974835E+03  0.41800000000E+01 0.  1.
         -5    1    3    3    0  502 -0.34337072077E+02  0.34914030118E+01 -0.16411285776E+02  0.38445118216E+02  0.41800000000E+01 0.  1.
        -11    1    1    2    0    0  0.60024172025E+02 -0.18296735912E+02 -0.49573173972E+02  0.79969815243E+02  0.00000000000E+00 0. -1.
         11    1    1    2    0    0 -0.36666459856E+02 -0.26871053129E+02 -0.77598620015E+02  0.89933467646E+02  0.00000000000E+00 0.  1.
</event>
<event>
 7    1  0.2856214E-009  0.1146633E+03  0.7561462E-02  0.1252170E+00
          1   -1    0    0  501    0  0.00000000000E+00  0.00000000000E+00  0.44696966699E+03  0.44696966699E+03  0.00000000000E+00 0.  1.
         -1   -1    0    0    0  501 -0.00000000000E+00 -0.00000000000E+00 -0.36619777450E+02  0.36619777450E+02  0.00000000000E+00 0. -1.
         25    2    1    2    0    0  0.15759085854E+02 -0.65367727270E+02  0.22570976781E+03  0.26667370843E+03  0.12509467984E+03 0.  0.
          5    1    3    3  502    0  0.27143847144E+01 -0.88783909710E+02  0.22218272141E+03  0.23931691249E+03  0.41800000000E+01 0.  1.
         -5    1    3    3    0  502  0.13044701140E+02  0.23416182440E+02  0.35270464015E+01  0.27356795942E+02  0.41800000000E+01 0.  1.
        -11    1    1    2    0    0 -0.49360122452E+02  0.12982145370E+02  0.94068513683E+02  0.10702262870E+03  0.00000000000E+00 0. -1.
         11    1    1    2    0    0  0.33601036598E+02  0.52385581900E+02  0.90571608039E+02  0.10989310731E+03  0.00000000000E+00 0.  1.
</event>
<event>
 7    1  0.2856214E-009  0.9322814E+02  0.7561462E-02  0.1295217E+00
          1   -1    0    0  501    0  0.00000000000E+00  0.00000000000E+00  0.17156634730E+03  0.17156634730E+03  0.00000000000E+00 0. -1.
         -1   -1    0    0    0  501 -0.00000000000E+00 -0.00000000000E+00 -0.10020356675E+03  0.10020356675E+03  0.00000000000E+00 0.  1.
         25    2    1    2    0    0  0.19818830765E+02 -0.31598852082E+02 -0.26570606760E+02  0.13320937435E+03  0.12508983478E+03 0.  0.
          5    1    3    3  502    0 -0.34185530850E+02  0.10186028590E+02  0.28129266138E+02  0.45619444444E+02  0.41800000000E+01 0.  1.
         -5    1    3    3    0  502  0.54004361615E+02 -0.41784880672E+02 -0.54699872898E+02  0.87589929907E+02  0.41800000000E+01 0.  1.
        -11    1    1    2    0    0 -0.15268864934E+02 -0.22855930709E+02  0.73933800310E+02  0.78877998411E+02  0.00000000000E+00 0. -1.
         11    1    1    2    0    0 -0.45499658302E+01  0.54454782791E+02  0.23999587006E+02  0.59682541286E+02  0.00000000000E+00 0.  1.
</event>
<event>
 7    1  0.2856214E-009  0.1190233E+03  0.7561462E-02  0.1244717E+00
         -1   -1    0    0    0  501 -0.00000000000E+00  0.00000000000E+00  0.95428862672E+02  0.95428862672E+02  0.00000000000E+00 0.  1.
          1   -1    0    0  501    0  0.00000000000E+00 -0.00000000000E+00 -0.20967674140E+03  0.20967674140E+03  0.00000000000E+00 0. -1.
         25    2    1    2    0    0 -0.82400550382E+02 -0.37010028747E+02 -0.62768370472E+02  0.16657241683E+03  0.12508760444E+03 0.  0.
          5    1    3    3  502    0 -0.80128427009E+02  0.25830330957E+02 -0.60047144533E+02  0.10349349148E+03  0.41800000000E+01 0.  1.
         -5    1    3    3    0  502 -0.22721233729E+01 -0.62840359704E+02 -0.27212259390E+01  0.63078925347E+02  0.41800000000E+01 0.  1.
        -11    1    1    2    0    0  0.41522979991E+02  0.23327956008E+02 -0.75439064059E+02  0.89215490723E+02  0.00000000000E+00 0. -1.
         11    1    1    2    0    0  0.40877570390E+02  0.13682072739E+02  0.23959555806E+02  0.49317696518E+02  0.00000000000E+00 0.  1.
</event>
<event>
 7    1  0.2856214E-009  0.9619736E+02  0.7561462E-02  0.1288502E+00
         -2   -1    0    0    0  501 -0.00000000000E+00  0.00000000000E+00  0.44514144177E+02  0.44514144177E+02  0.00000000000E+00 0.  1.
          2   -1    0    0  501    0  0.00000000000E+00 -0.00000000000E+00 -0.29397297633E+03  0.29397297633E+03  0.00000000000E+00 0. -1.
         25    2    1    2    0    0 -0.56509811338E+01 -0.99042903498E+01 -0.19199463404E+03  0.22944220460E+03  0.12510698301E+03 0.  0.
          5    1    3    3  502    0  0.53000317331E+02  0.23357121015E+02 -0.89056468272E+02  0.10631611205E+03  0.41800000000E+01 0.  1.
         -5    1    3    3    0  502 -0.58651298465E+02 -0.33261411365E+02 -0.10293816577E+03  0.12312609256E+03  0.41800000000E+01 0.  1.
        -11    1    1    2    0    0  0.92244006855E+00 -0.28279296271E+02  0.11123697204E+02  0.30402403404E+02  0.00000000000E+00 0.  1.
         11    1    1    2    0    0  0.47285410653E+01  0.38183586621E+02 -0.68587895320E+02  0.78642512500E+02  0.00000000000E+00 0. -1.
</event>
<event>
 7    1  0.2856214E-009  0.1452792E+03  0.7561462E-02  0.1206397E+00
         -1   -1    0    0    0  501 -0.00000000000E+00  0.00000000000E+00  0.27009151677E+03  0.27009151677E+03  0.00000000000E+00 0.  1.
          1   -1    0    0  501    0  0.00000000000E+00 -0.00000000000E+00 -0.13845726454E+03  0.13845726454E+03  0.00000000000E+00 0. -1.
         25    2    1    2    0    0 -0.48828483485E+02 -0.10836524973E+03 -0.43506924883E+02  0.17795408797E+03  0.12509019451E+03 0.  0.
          5    1    3    3  502    0  0.28817546165E+01 -0.11526242185E+03 -0.48965437341E+02  0.12533481900E+03  0.41800000000E+01 0.  1.
         -5    1    3    3    0  502 -0.51710238102E+02  0.68971721260E+01  0.54585124578E+01  0.52619268963E+02  0.41800000000E+01 0.  1.
        -11    1    1    2    0    0  0.48417076322E+02  0.73699989546E+02  0.17496085468E+03  0.19592652299E+03  0.00000000000E+00 0.  1.
         11    1    1    2    0    0  0.41140716304E+00  0.34665260181E+02  0.18032243424E+00  0.34668170351E+02  0.00000000000E+00 0. -1.
</event>
<event>
 7    1  0.2856214E-009  0.1601927E+03  0.7561462E-02  0.1188479E+00
         -2   -1    0    0    0  501 -0.00000000000E+00  0.00000000000E+00  0.18975441010E+03  0.18975441010E+03  0.00000000000E+00 0.  1.
          2   -1    0    0  501    0  0.00000000000E+00 -0.00000000000E+00 -0.18425592731E+03  0.18425592731E+03  0.00000000000E+00 0. -1.
         25    2    1    2    0    0 -0.24916745332E+02 -0.14296188471E+03  0.49958912117E+02  0.19799773474E+03  0.12509302691E+03 0.  0.
          5    1    3    3  502    0 -0.60958581010E+02 -0.89292364595E+02  0.71545524136E+02  0.12971241035E+03  0.41800000000E+01 0. -1.
         -5    1    3    3    0  502  0.36041835678E+02 -0.53669520118E+02 -0.21586612019E+02  0.68285324391E+02  0.41800000000E+01 0. -1.
        -11    1    1    2    0    0  0.29115189620E+02  0.97624022003E+02  0.12999942395E+02  0.10269928160E+03  0.00000000000E+00 0.  1.
         11    1    1    2    0    0 -0.41984442883E+01  0.45337862710E+02 -0.57460371722E+02  0.73313321082E+02  0.00000000000E+00 0. -1.
</event>
<event>
 7    1  0.2856214E-009  0.1241168E+03  0.7561462E-02  0.1236456E+00
          3   -1    0    0  501    0  0.00000000000E+00  0.00000000000E+00  0.48715651666E+03  0.48715651666E+03  0.00000000000E+00 0. -1.
         -3   -1    0    0    0  501 -0.00000000000E+00 -0.00000000000E+00 -0.47717017938E+02  0.47717017938E+02  0.00000000000E+00 0.  1.
         25    2    1    2    0    0 -0.60924426198E+02 -0.61545606464E+02  0.13765729806E+03  0.20517969855E+03  0.12509807995E+03 0.  0.
          5    1    3    3  502    0 -0.93566689856E+01  0.20208714002E+02 -0.13006673727E+02  0.26126334178E+02  0.41800000000E+01 0.  1.
         -5    1    3    3    0  502 -0.51567757213E+02 -0.81754320466E+02  0.15066397179E+03  0.17905336437E+03  0.41800000000E+01 0.  1.
        -11    1    1    2    0    0  0.25241522684E+02  0.83295757710E+02  0.23824800448E+03  0.25364823941E+03  0.00000000000E+00 0.  1.
         11    1    1    2    0    0  0.35682903515E+02 -0.21750151246E+02  0.63534196189E+02  0.76045596637E+02  0.00000000000E+00 0. -1.
</event>
<event>
 7    1  0.2856214E-009  0.1204045E+03  0.7561462E-02  0.1242431E+00
         -1   -1    0    0    0  501 -0.00000000000E+00  0.00000000000E+00  0.43730067628E+02  0.43730067628E+02  0.00000000000E+00 0.  1.
          1   -1    0    0  501    0  0.00000000000E+00 -0.00000000000E+00 -0.41459813471E+03  0.41459813471E+03  0.00000000000E+00 0. -1.
         25    2    1    2    0    0 -0.48787310729E+01 -0.57654734120E+02 -0.17616335346E+03  0.22366635822E+03  0.12508094305E+03 0.  0.
          5    1    3    3  502    0 -0.50972718305E+02 -0.24041701527E+02 -0.24537933897E+02  0.61610096768E+02  0.41800000000E+01 0.  1.
         -5    1    3    3    0  502  0.46093987233E+02 -0.33613032593E+02 -0.15162541957E+03  0.16205626146E+03  0.41800000000E+01 0.  1.
        -11    1    1    2    0    0 -0.19323622417E+02 -0.30263435469E+02 -0.31763146400E+02  0.47939288469E+02  0.00000000000E+00 0.  1.
         11    1    1    2    0    0  0.24202353490E+02  0.87918169589E+02 -0.16294156722E+03  0.18672255564E+03  0.00000000000E+00 0. -1.
</event>
<event>
 7    1  0.2856214E-009  0.9456138E+02  0.7561462E-02  0.1292167E+00
         -3   -1    0    0    0  501 -0.00000000000E+00  0.00000000000E+00  0.18106529192E+02  0.18106529192E+02  0.00000000000E+00 0.  1.
          3   -1    0    0  501    0  0.00000000000E+00 -0.00000000000E+00 -0.74571620877E+03  0.74571620877E+03  0.00000000000E+00 0. -1.
         25    2    1    2    0    0  0.10148531101E+02 -0.29089617345E+02 -0.50448397433E+03  0.52067391497E+03  0.12509215345E+03 0.  0.
          5    1    3    3  502    0  0.47264004007E+02 -0.40512784635E+02 -0.13040874156E+03  0.14456515510E+03  0.41800000000E+01 0. -1.
         -5    1    3    3    0  502 -0.37115472907E+02  0.11423167290E+02 -0.37407523277E+03  0.37610875987E+03  0.41800000000E+01 0. -1.
        -11    1    1    2    0    0 -0.45318008974E+02  0.26293342691E+02 -0.79196586690E+02  0.94958733935E+02  0.00000000000E+00 0.  1.
         11    1    1    2    0    0  0.35169477873E+02  0.27962746543E+01 -0.14392911855E+03  0.14819008905E+03  0.00000000000E+00 0. -1.
</event>
<event>
 7    1  0.2856214E-009  0.1512284E+03  0.7561462E-02  0.1198972E+00
         -2   -1    0    0    0  501 -0.00000000000E+00  0.00000000000E+00  0.23904720308E+03  0.23904720308E+03  0.00000000000E+00 0.  1.
          2   -1    0    0  501    0  0.00000000000E+00 -0.00000000000E+00 -0.12806203344E+03  0.12806203344E+03  0.00000000000E+00 0. -1.
         25    2    1    2    0    0  0.53339411328E+02 -0.11270719815E+03 -0.13905751957E+01  0.17662854304E+03  0.12509077984E+03 0.  0.
          5    1    3    3  502    0 -0.12144496827E+02  0.79121426080E+01  0.31945087862E+02  0.35327777206E+02  0.41800000000E+01 0.  1.
         -5    1    3    3    0  502  0.65483908155E+02 -0.12061934076E+03 -0.33335663058E+02  0.14130076583E+03  0.41800000000E+01 0.  1.
        -11    1    1    2    0    0 -0.74688554950E+02  0.70242035589E+02  0.95290121974E+02  0.13997332299E+03  0.00000000000E+00 0.  1.
         11    1    1    2    0    0  0.21349143621E+02  0.42465162564E+02  0.17085622863E+02  0.50507370487E+02  0.00000000000E+00 0. -1.
</event>
<event>
 7    1  0.2856214E-009  0.1915503E+03  0.7561462E-02  0.1157070E+00
          2   -1    0    0  501    0  0.00000000000E+00  0.00000000000E+00  0.31054006656E+03  0.31054006656E+03  0.00000000000E+00 0.  1.
         -2   -1    0    0    0  501 -0.00000000000E+00 -0.00000000000E+00 -0.12776753093E+03  0.12776753093E+03  0.00000000000E+00 0. -1.
         25    2    1    2    0    0 -0.12843246748E+03 -0.93685854203E+02  0.14986129404E+03  0.25175115684E+03  0.12509316342E+03 0.  0.
          5    1    3    3  502    0 -0.54716980706E+02 -0.11189114185E+03  0.10820783480E+03  0.16504539834E+03  0.41800000000E+01 0.  1.
         -5    1    3    3    0  502 -0.73715486778E+02  0.18205287643E+02  0.41653459241E+02  0.86705758493E+02  0.41800000000E+01 0.  1.
        -11    1    1    2    0    0  0.92573416614E+02  0.10937349025E+03  0.16964146952E+02  0.14429199601E+03  0.00000000000E+00 0.  1.
         11    1    1    2    0    0  0.35859050870E+02 -0.15687636042E+02  0.15947094626E+02  0.42264444643E+02  0.00000000000E+00 0. -1.
</event>
<event>
 7    1  0.2856214E-009  0.7360918E+02  0.7561462E-02  0.1348233E+00
         -1   -1    0    0    0  501 -0.00000000000E+00  0.00000000000E+00  0.69844984153E+03  0.69844984153E+03  0.00000000000E+00 0.  1.
          1   -1    0    0  501    0  0.00000000000E+00 -0.00000000000E+00 -0.42918252298E+02  0.42918252298E+02  0.00000000000E+00 0. -1.
         25    2    1    2    0    0 -0.97833953750E+01  0.43155077117E+02  0.62088845318E+03  0.63490760762E+03  0.12508846234E+03 0.  0.
          5    1    3    3  502    0 -0.25195745835E+02  0.52822773065E+02  0.61094698415E+03  0.61375790081E+03  0.41800000000E+01 0.  1.
         -5    1    3    3    0  502  0.15412350460E+02 -0.96676959477E+01  0.99414690321E+01  0.21149706810E+02  0.41800000000E+01 0.  1.
        -11    1    1    2    0    0 -0.13142634802E+02  0.68841755249E+01 -0.22608623188E+02  0.27042014804E+02  0.00000000000E+00 0. -1.
         11    1    1    2    0    0  0.22926030177E+02 -0.50039252642E+02  0.57251759239E+02  0.79418471407E+02  0.00000000000E+00 0.  1.
</event>
<event>
 7    1  0.3213885E-009  0.9552176E+02  0.7561462E-02  0.1290005E+00
          2   -1    0    0  501    0  0.00000000000E+00  0.00000000000E+00  0.53896872232E+03  0.53896872232E+03  0.00000000000E+00 0. -1.
         -2   -1    0    0    0  501 -0.00000000000E+00 -0.00000000000E+00 -0.34799256639E+02  0.34799256639E+02  0.00000000000E+00 0.  1.
         25    2    1    2    0    0  0.49240289618E+02  0.42869589404E+02  0.16779801007E+03  0.21924058585E+03  0.12509138453E+03 0.  0.
          5    1    3    3  502    0  0.37203228585E+02  0.96575197849E+00  0.17125889659E+03  0.17530571855E+03  0.41800000000E+01 0.  1.
         -5    1    3    3    0  502  0.12037061034E+02  0.41903837425E+02 -0.34608865253E+01  0.43934867302E+02  0.41800000000E+01 0.  1.
        -11    1    1    2    0    0 -0.62748895359E+02  0.21571339265E+01  0.22605657231E+03  0.23461383374E+03  0.00000000000E+00 0. -1.
         11    1    1    2    0    0  0.13508605741E+02 -0.45026723330E+02  0.11031488330E+03  0.11991355937E+03  0.00000000000E+00 0.  1.
</event>
<event>
 7    1  0.2856214E-009  0.1096436E+03  0.7561462E-02  0.1261231E+00
          2   -1    0    0  501    0  0.00000000000E+00  0.00000000000E+00  0.36099180077E+03  0.36099180077E+03  0.00000000000E+00 0. -1.
         -2   -1    0    0    0  501 -0.00000000000E+00 -0.00000000000E+00 -0.44981667334E+02  0.44981667334E+02  0.00000000000E+00 0.  1.
         25    2    1    2    0    0  0.53117038774E+01 -0.36715584594E+02  0.88007662270E+02  0.15738402101E+03  0.12509249817E+03 0.  0.
          5    1    3    3  502    0  0.14877357712E+02 -0.81997002582E+02  0.49384969931E+02  0.96959743502E+02  0.41800000000E+01 0. -1.
         -5    1    3    3    0  502 -0.95656538345E+01  0.45281417988E+02  0.38622692340E+02  0.60424277503E+02  0.41800000000E+01 0. -1.
        -11    1    1    2    0    0 -0.30669650284E+02  0.51561410227E+02  0.94830336734E+02  0.11221407772E+03  0.00000000000E+00 0.  1.
         11    1    1    2    0    0  0.25357946407E+02 -0.14845825633E+02  0.13317213443E+03  0.13637536938E+03  0.00000000000E+00 0. -1.
</event>
<event>
 7    1  0.2856214E-009  0.2157796E+03  0.7561462E-02  0.1137069E+00
         -1   -1    0    0    0  501 -0.00000000000E+00  0.00000000000E+00  0.14283056042E+03  0.14283056042E+03  0.00000000000E+00 0.  1.
          1   -1    0    0  501    0  0.00000000000E+00 -0.00000000000E+00 -0.45876887535E+03  0.45876887535E+03  0.00000000000E+00 0. -1.
         25    2    1    2    0    0  0.54232121287E+02  0.20051819361E+03 -0.46218263484E+02  0.24684347063E+03  0.12508757798E+03 0.  0.
          5    1    3    3  502    0  0.37740916598E+02  0.17320585813E+03  0.14722326870E+02  0.17792938314E+03  0.41800000000E+01 0. -1.
         -5    1    3    3    0  502  0.16491204689E+02  0.27312335477E+02 -0.60940590354E+02  0.68914087485E+02  0.41800000000E+01 0. -1.
        -11    1    1    2    0    0 -0.55739837689E+02 -0.61365561406E+02 -0.57172077031E+02  0.10070406161E+03  0.00000000000E+00 0.  1.
         11    1    1    2    0    0  0.15077164019E+01 -0.13915263220E+03 -0.21254797442E+03  0.25405190353E+03  0.00000000000E+00 0. -1.
</event>
<event>
 7    1  0.2856214E-009  0.9250026E+02  0.7561462E-02  0.1296907E+00
          1   -1    0    0  501    0  0.00000000000E+00  0.00000000000E+00  0.46981571203E+02  0.46981571203E+02  0.00000000000E+00 0. -1.
         -1   -1    0    0    0  501 -0.00000000000E+00 -0.00000000000E+00 -0.34269470139E+03  0.34269470139E+03  0.00000000000E+00 0.  1.
         25    2    1    2    0    0 -0.15088704383E+02 -0.49610149162E+02 -0.10349399838E+03  0.17043275332E+03  0.12508988689E+03 0.  0.
          5    1    3    3  502    0  0.39813060792E+01 -0.63257294785E+02  0.72708518794E+00  0.63524303967E+02  0.41800000000E+01 0. -1.
         -5    1    3    3    0  502 -0.19070010462E+02  0.13647145623E+02 -0.10422108357E+03  0.10690844935E+03  0.41800000000E+01 0. -1.
        -11    1    1    2    0    0 -0.25047811804E+02  0.51722702862E+02 -0.15148146864E+03  0.16201625291E+03  0.00000000000E+00 0.  1.
         11    1    1    2    0    0  0.40136516187E+02 -0.21125537002E+01 -0.40737663171E+02  0.57227266363E+02  0.00000000000E+00 0. -1.
</event>
<event>
 7    1  0.2856214E-009  0.1727548E+03  0.7561462E-02  0.1175005E+00
          1   -1    0    0  501    0  0.00000000000E+00  0.00000000000E+00  0.45865829401E+02  0.45865829401E+02  0.00000000000E+00 0. -1.
         -1   -1    0    0    0  501 -0.00000000000E+00 -0.00000000000E+00 -0.78041155511E+03  0.78041155511E+03  0.00000000000E+00 0.  1.
         25    2    1    2    0    0 -0.99203294044E+02  0.11376875475E+03 -0.34154631201E+03  0.39380953719E+03  0.12508974869E+03 0.  0.
          5    1    3    3  502    0  0.13290547845E+01  0.40048805901E+02 -0.12923734143E+02  0.42310383417E+02  0.41800000000E+01 0.  1.
         -5    1    3    3    0  502 -0.10053234883E+03  0.73719948851E+02 -0.32862257786E+03  0.35149915377E+03  0.41800000000E+01 0.  1.
        -11    1    1    2    0    0  0.11780961151E+03 -0.81551281891E+02 -0.30989119404E+03  0.34141216775E+03  0.00000000000E+00 0. -1.
         11    1    1    2    0    0 -0.18606317471E+02 -0.32217472862E+02 -0.83108219663E+02  0.91055679576E+02  0.00000000000E+00 0.  1.
</event>
<event>
 7    1  0.2856214E-009  0.1536557E+03  0.7561462E-02  0.1196051E+00
         -2   -1    0    0    0  501 -0.00000000000E+00  0.00000000000E+00  0.68243863643E+02  0.68243863643E+02  0.00000000000E+00 0.  1.
          2   -1    0    0  501    0  0.00000000000E+00 -0.00000000000E+00 -0.41615625292E+03  0.41615625292E+03  0.00000000000E+00 0. -1.
         25    2    1    2    0    0  0.98686965706E+02 -0.59835834411E+02 -0.26862779043E+03  0.31800623163E+03  0.12509048440E+03 0.  0.
          5    1    3    3  502    0  0.67413323884E+02  0.27339994273E+02 -0.15562728523E+03  0.17184107726E+03  0.41800000000E+01 0. -1.
         -5    1    3    3    0  502  0.31273641822E+02 -0.87175828684E+02 -0.11300050520E+03  0.14616515438E+03  0.41800000000E+01 0. -1.
        -11    1    1    2    0    0 -0.88195594545E+01  0.50635708161E+02 -0.95624077464E+01  0.52280007765E+02  0.00000000000E+00 0.  1.
         11    1    1    2    0    0 -0.89867406251E+02  0.92001262492E+01 -0.69722191101E+02  0.11411387716E+03  0.00000000000E+00 0. -1.
</event>
<event>
 7    1  0.2856214E-009  0.1518388E+03  0.7561462E-02  0.1198231E+00
          1   -1    0    0  501    0  0.00000000000E+00  0.00000000000E+00  0.49090321268E+03  0.49090321268E+03  0.00000000000E+00 0. -1.
         -1   -1    0    0    0  501 -0.00000000000E+00 -0.00000000000E+00 -0.61446579218E+02  0.61446579218E+02  0.00000000000E+00 0.  1.
         25    2    1    2    0    0  0.12685241870E+03  0.30437537742E+02  0.28068034223E+03  0.33383692742E+03  0.12509060622E+03 0.  0.
          5    1    3    3  502    0  0.92122253362E+02 -0.19822771771E+02  0.78908131554E+02  0.12297730470E+03  0.41800000000E+01 0. -1.
         -5    1    3    3    0  502  0.34730165342E+02  0.50260309513E+02  0.20177221067E+03  0.21085962273E+03  0.41800000000E+01 0. -1.
        -11    1    1    2    0    0 -0.78048772200E+02 -0.53009330157E+02  0.51815079541E+02  0.10764015233E+03  0.00000000000E+00 0.  1.
         11    1    1    2    0    0 -0.48803646504E+02  0.22571792416E+02  0.96961211691E+02  0.11087271214E+03  0.00000000000E+00 0. -1.
</event>
<event>
 7    1  0.2856214E-009  0.1327299E+03  0.7561462E-02  0.1223460E+00
          1   -1    0    0  501    0  0.00000000000E+00  0.00000000000E+00  0.30058458906E+03  0.30058458906E+03  0.00000000000E+00 0. -1.
         -1   -1    0    0    0  501 -0.00000000000E+00 -0.00000000000E+00 -0.70483933622E+02  0.70483933622E+02  0.00000000000E+00 0.  1.
         25    2    1    2    0    0  0.31449736288E+02  0.85563168057E+02  0.83163338772E+02  0.17571268695E+03  0.12509462737E+03 0.  0.
          5    1    3    3  502    0  0.71564042781E+02  0.66511264388E+02  0.87073380131E+02  0.13093665047E+03  0.41800000000E+01 0. -1.
         -5    1    3    3    0  502 -0.40114306492E+02  0.19051903670E+02 -0.39100413591E+01  0.44776036473E+02  0.41800000000E+01 0. -1.
        -11    1    1    2    0    0  0.26877393333E+02 -0.43576143065E+02  0.90493199881E+02  0.10397256245E+03  0.00000000000E+00 0. -1.
         11    1    1    2    0    0 -0.58327129621E+02 -0.41987024993E+02  0.56444116784E+02  0.91383273290E+02  0.00000000000E+00 0.  1.
</event>
<event>
 7    1  0.2856214E-009  0.1151043E+03  0.7561462E-02  0.1251399E+00
         -3   -1    0    0    0  501 -0.00000000000E+00  0.00000000000E+00  0.11215515997E+03  0.11215515997E+03  0.00000000000E+00 0.  1.
          3   -1    0    0  501    0  0.00000000000E+00 -0.00000000000E+00 -0.24100123051E+03  0.24100123051E+03  0.00000000000E+00 0. -1.
         25    2    1    2    0    0  0.93042709787E+02  0.19651259749E+02  0.15901160224E+02  0.15793493527E+03  0.12508988379E+03 0.  0.
          5    1    3    3  502    0  0.94178215015E+01  0.11386053504E+02 -0.49207954370E+02  0.51548353510E+02  0.41800000000E+01 0. -1.
         -5    1    3    3    0  502  0.83624888285E+02  0.82652062446E+01  0.65109114594E+02  0.10638658176E+03  0.41800000000E+01 0. -1.
        -11    1    1    2    0    0 -0.35753839896E+02  0.36077630186E+02 -0.50110244517E+02  0.71351027131E+02  0.00000000000E+00 0.  1.
         11    1    1    2    0    0 -0.57288869891E+02 -0.55728889935E+02 -0.94636986252E+02  0.12387042808E+03  0.00000000000E+00 0. -1.
</event>
<event>
 7    1  0.2856214E-009  0.9243966E+02  0.7561462E-02  0.1297049E+00
          1   -1    0    0  501    0  0.00000000000E+00  0.00000000000E+00  0.17350166932E+04  0.17350166932E+04  0.00000000000E+00 0. -1.
         -1   -1    0    0    0  501 -0.00000000000E+00 -0.00000000000E+00 -0.82796324616E+01  0.82796324616E+01  0.00000000000E+00 0.  1.
         25    2    1    2    0    0 -0.54603469752E+01  0.10759952323E+02  0.13167159476E+04  0.13226997488E+04  0.12509255391E+03 0.  0.
          5    1    3    3  502    0 -0.47422102893E+02  0.12232382049E+02  0.11383546959E+04  0.11394153646E+04  0.41800000000E+01 0. -1.
         -5    1    3    3    0  502  0.41961755918E+02 -0.14724297260E+01  0.17836125161E+03  0.18328438418E+03  0.41800000000E+01 0. -1.
        -11    1    1    2    0    0  0.22501212741E+02 -0.47760553317E+02  0.21798870468E+03  0.22429099490E+03  0.00000000000E+00 0. -1.
         11    1    1    2    0    0 -0.17040865766E+02  0.37000600995E+02  0.19203240853E+03  0.19630558195E+03  0.00000000000E+00 0.  1.
</event>
<event>
 7    1  0.3455641E-009  0.1206257E+03  0.7561462E-02  0.1242068E+00
         -2   -1    0    0    0  501 -0.00000000000E+00  0.00000000000E+00  0.27641316505E+02  0.27641316505E+02  0.00000000000E+00 0.  1.
          2   -1    0    0  501    0  0.00000000000E+00 -0.00000000000E+00 -0.65695673389E+03  0.65695673389E+03  0.00000000000E+00 0. -1.
         25    2    1    2    0    0  0.49784360874E+02  0.26202636955E+02 -0.48789638820E+03  0.50681113576E+03  0.12509828512E+03 0.  0.
          5    1    3    3  502    0  0.63084450637E+02  0.66945251370E+02 -0.37035020206E+03  0.38162554836E+03  0.41800000000E+01 0. -1.
         -5    1    3    3    0  502 -0.13300089763E+02 -0.40742614416E+02 -0.11754618614E+03  0.12518558740E+03  0.41800000000E+01 0. -1.
        -11    1    1    2    0    0 -0.31646825799E+02  0.32084056441E+02 -0.75640808725E+02  0.88047942653E+02  0.00000000000E+00 0. -1.
         11    1    1    2    0    0 -0.18137535075E+02 -0.58286693396E+02 -0.65778220463E+02  0.89738971985E+02  0.00000000000E+00 0.  1.
</event>
<event>
 7    1  0.2856214E-009  0.1686709E+03  0.7561462E-02  0.1179241E+00
          1   -1    0    0  501    0  0.00000000000E+00  0.00000000000E+00  0.76765016913E+02  0.76765016913E+02  0.00000000000E+00 0. -1.
         -1   -1    0    0    0  501 -0.00000000000E+00 -0.00000000000E+00 -0.47419166160E+03  0.47419166160E+03  0.00000000000E+00 0.  1.
         25    2    1    2    0    0 -0.96011970626E+02  0.12105086283E+03 -0.16361397709E+03  0.25746648172E+03  0.12509134987E+03 0.  0.
          5    1    3    3  502    0  0.40154167320E+01  0.27025579298E+02  0.15551257780E+02  0.31714657912E+02  0.41800000000E+01 0. -1.
         -5    1    3    3    0  502 -0.10002738736E+03  0.94025283530E+02 -0.17916523487E+03  0.22575182381E+03  0.41800000000E+01 0. -1.
        -11    1    1    2    0    0  0.18871010485E+02 -0.85248527466E+02 -0.15307341344E+03  0.17622399489E+03  0.00000000000E+00 0.  1.
         11    1    1    2    0    0  0.77140960140E+02 -0.35802335362E+02 -0.80739254153E+02  0.11726620191E+03  0.00000000000E+00 0. -1.
</event>
<event>
 7    1  0.2856214E-009  0.1320571E+03  0.7561462E-02  0.1224435E+00
         -1   -1    0    0    0  501 -0.00000000000E+00  0.00000000000E+00  0.32799991261E+02  0.32799991261E+02  0.00000000000E+00 0.  1.
          1   -1    0    0  501    0  0.00000000000E+00 -0.00000000000E+00 -0.53965728203E+03  0.53965728203E+03  0.00000000000E+00 0. -1.
         25    2    1    2    0    0  0.14256366569E+02  0.74244491066E+02 -0.30477757134E+03  0.33801592757E+03  0.12509960375E+03 0.  0.
          5    1    3    3  502    0 -0.14583120531E+01  0.10804892342E+03 -0.23819901115E+03  0.26159689952E+03  0.41800000000E+01 0.  1.
         -5    1    3    3    0  502  0.15714678622E+02 -0.33804432354E+02 -0.66578560184E+02  0.76419028043E+02  0.41800000000E+01 0.  1.
        -11    1    1    2    0    0  0.35470040527E+02 -0.93036700394E+01 -0.54000276177E+02  0.65274128707E+02  0.00000000000E+00 0.  1.
         11    1    1    2    0    0 -0.49726407096E+02 -0.64940821027E+02 -0.14807944325E+03  0.16916721701E+03  0.00000000000E+00 0. -1.
</event>
<event>
 7    1  0.2856214E-009  0.1428970E+03  0.7561462E-02  0.1209483E+00
          1   -1    0    0  501    0  0.00000000000E+00  0.00000000000E+00  0.21972692706E+03  0.21972692706E+03  0.00000000000E+00 0. -1.
         -1   -1    0    0    0  501 -0.00000000000E+00 -0.00000000000E+00 -0.14331760521E+03  0.14331760521E+03  0.00000000000E+00 0.  1.
         25    2    1    2    0    0  0.13866893465E+02  0.11006056877E+03  0.12719207426E+03  0.21007501540E+03  0.12509224119E+03 0.  0.
          5    1    3    3  502    0 -0.37793262300E+02  0.29586957912E+02  0.99306033049E+02  0.11037608144E+03  0.41800000000E+01 0. -1.
         -5    1    3    3    0  502  0.51660155764E+02  0.80473610856E+02  0.27886041213E+02  0.99698933958E+02  0.41800000000E+01 0. -1.
        -11    1    1    2    0    0 -0.30721977747E+02 -0.11894073136E+03 -0.52999507948E+02  0.13378970564E+03  0.00000000000E+00 0. -1.
         11    1    1    2    0    0  0.16855084282E+02  0.88801625913E+01  0.22167555432E+01  0.19179811233E+02  0.00000000000E+00 0.  1.
</event>
<event>
 7    1  0.2856214E-009  0.3168525E+03  0.7561462E-02  0.1077107E+00
         -1   -1    0    0    0  501 -0.00000000000E+00  0.00000000000E+00  0.22376495165E+03  0.22376495165E+03  0.00000000000E+00 0.  1.
          1   -1    0    0  501    0  0.00000000000E+00 -0.00000000000E+00 -0.53578193799E+03  0.53578193799E+03  0.00000000000E+00 0. -1.
         25    2    1    2    0    0 -0.18972981260E+03 -0.23477918365E+03 -0.16126381573E+02  0.32714836100E+03  0.12508926035E+03 0.  0.
          5    1    3    3  502    0 -0.13059336300E+03 -0.22542253316E+03 -0.37918183056E+02  0.26329680196E+03  0.41800000000E+01 0.  1.
         -5    1    3    3    0  502 -0.59136449604E+02 -0.93566504948E+01  0.21791801483E+02  0.63851559042E+02  0.41800000000E+01 0.  1.
        -11    1    1    2    0    0  0.73371664142E+02  0.15664604919E+03 -0.13805607079E+03  0.22131620932E+03  0.00000000000E+00 0. -1.
         11    1    1    2    0    0  0.11635814846E+03  0.78133134462E+02 -0.15783453398E+03  0.21108231932E+03  0.00000000000E+00 0.  1.
</event>
<event>
 7    1  0.2856214E-009  0.1197295E+03  0.7561462E-02  0.1243544E+00
          2   -1    0    0  501    0  0.00000000000E+00  0.00000000000E+00  0.16894657204E+03  0.16894657204E+03  0.00000000000E+00 0. -1.
         -2   -1    0    0    0  501 -0.00000000000E+00 -0.00000000000E+00 -0.95817896458E+02  0.95817896458E+02  0.00000000000E+00 0.  1.
         25    2    1    2    0    0  0.24356882317E+02 -0.46712541811E+02  0.71008289360E+02  0.15318167485E+03  0.12508848498E+03 0.  0.
          5    1    3    3  502    0  0.18624059046E+02 -0.89341817785E+02  0.57314918355E+02  0.10784845037E+03  0.41800000000E+01 0. -1.
         -5    1    3    3    0  502  0.57328232709E+01  0.42629275974E+02  0.13693371005E+02  0.45333224485E+02  0.41800000000E+01 0. -1.
        -11    1    1    2    0    0  0.26727274307E+02 -0.10019211480E+02  0.17811645995E+02  0.33645007410E+02  0.00000000000E+00 0. -1.
         11    1    1    2    0    0 -0.51084156624E+02  0.56731753291E+02 -0.15691259776E+02  0.77937786233E+02  0.00000000000E+00 0.  1.
</event>
<event>
 7    1  0.2856214E-009  0.1044179E+03  0.7561462E-02  0.1271271E+00
         -2   -1    0    0    0  501 -0.00000000000E+00  0.00000000000E+00  0.15243944802E+02  0.15243944802E+02  0.00000000000E+00 0.  1.
          2   -1    0    0  501    0  0.00000000000E+00 -0.00000000000E+00 -0.91856983615E+03  0.91856983615E+03  0.00000000000E+00 0. -1.
         25    2    1    2    0    0  0.18496014809E+01  0.43801673675E+02 -0.58607459056E+03  0.60087685672E+03  0.12509022185E+03 0.  0.
          5    1    3    3  502    0 -0.17238675009E+02  0.76548100958E+02 -0.23612949205E+03  0.24886018784E+03  0.41800000000E+01 0.  1.
         -5    1    3    3    0  502  0.19088276490E+02 -0.32746427283E+02 -0.34994509850E+03  0.35201666887E+03  0.41800000000E+01 0.  1.
        -11    1    1    2    0    0  0.36769015058E+02 -0.38342207380E+02 -0.24638230097E+03  0.25204428890E+03  0.00000000000E+00 0. -1.
         11    1    1    2    0    0 -0.38618616539E+02 -0.54594662957E+01 -0.70868999820E+02  0.80892635333E+02  0.00000000000E+00 0.  1.
</event>
<event>
 7    1  0.2856214E-009  0.1215702E+03  0.7561462E-02  0.1240529E+00
          1   -1    0    0  501    0  0.00000000000E+00  0.00000000000E+00  0.12030330086E+03  0.12030330086E+03  0.00000000000E+00 0. -1.
         -1   -1    0    0    0  501 -0.00000000000E+00 -0.00000000000E+00 -0.25538946566E+03  0.25538946566E+03  0.00000000000E+00 0.  1.
         25    2    1    2    0    0  0.41917692264E+02 -0.10277821134E+03 -0.15801105613E+03  0.23007449054E+03  0.12508526567E+03 0.  0.
          5    1    3    3  502    0  0.17864527396E+02 -0.35155845595E+01  0.18378631258E+02  0.26205861192E+02  0.41800000000E+01 0.  1.
         -5    1    3    3    0  502  0.24053164868E+02 -0.99262626783E+02 -0.17638968739E+03  0.20386862935E+03  0.41800000000E+01 0.  1.
        -11    1    1    2    0    0 -0.29409963776E+02  0.13979129559E+02 -0.27602145685E+02  0.42687708757E+02  0.00000000000E+00 0.  1.
         11    1    1    2    0    0 -0.12507728488E+02  0.88799081784E+02  0.50527037019E+02  0.10293056722E+03  0.00000000000E+00 0. -1.
</event>
<event>
 7    1  0.2856214E-009  0.1775265E+03  0.7561462E-02  0.1170219E+00
         -2   -1    0    0    0  501 -0.00000000000E+00  0.00000000000E+00  0.36939066973E+02  0.36939066973E+02  0.00000000000E+00 0.  1.
          2   -1    0    0  501    0  0.00000000000E+00 -0.00000000000E+00 -0.14859388929E+04  0.14859388929E+04  0.00000000000E+00 0. -1.
         25    2    1    2    0    0  0.72664543999E+02  0.13503290661E+03 -0.12031932288E+04  0.12193588540E+04  0.12509215488E+03 0.  0.
          5    1    3    3  502    0  0.11836128994E+02  0.13610704692E+03 -0.80443031249E+03  0.81596006166E+03  0.41800000000E+01 0. -1.
         -5    1    3    3    0  502  0.60828415005E+02 -0.10741403129E+01 -0.39876291627E+03  0.40339879232E+03  0.41800000000E+01 0. -1.
        -11    1    1    2    0    0 -0.31776330814E+02 -0.94961419063E+02 -0.80194724071E+02  0.12829107560E+03  0.00000000000E+00 0.  1.
         11    1    1    2    0    0 -0.40888213186E+02 -0.40071487546E+02 -0.16561187314E+03  0.17522803034E+03  0.00000000000E+00 0. -1.
</event>
<event>
 7    1  0.2856214E-009  0.1566940E+03  0.7561462E-02  0.1192481E+00
         -4   -1    0    0    0  501 -0.00000000000E+00  0.00000000000E+00  0.30412391749E+02  0.30412391749E+02  0.00000000000E+00 0.  1.
          4   -1    0    0  501    0  0.00000000000E+00 -0.00000000000E+00 -0.88127596796E+03  0.88127596796E+03  0.00000000000E+00 0. -1.
         25    2    1    2    0    0 -0.47941893880E+02  0.11023432548E+03 -0.49264581049E+03  0.52230143594E+03  0.12509541831E+03 0.  0.
          5    1    3    3  502    0  0.10275111591E+02 -0.18135691138E+02 -0.20448517999E+02  0.29497381233E+02  0.41800000000E+01 0. -1.
         -5    1    3    3    0  502 -0.58217005471E+02  0.12837001662E+03 -0.47219729249E+03  0.49280405470E+03  0.41800000000E+01 0. -1.
        -11    1    1    2    0    0 -0.27579815541E+02 -0.34352986215E+02 -0.80819501658E+02  0.92046541137E+02  0.00000000000E+00 0.  1.
         11    1    1    2    0    0  0.75521709421E+02 -0.75881339265E+02 -0.27739826406E+03  0.29734038264E+03  0.00000000000E+00 0. -1.
</event>
<event>
 7    1  0.2856214E-009  0.1062129E+03  0.7561462E-02  0.1267748E+00
          2   -1    0    0  501    0  0.00000000000E+00  0.00000000000E+00  0.47712904574E+02  0.47712904574E+02  0.00000000000E+00 0. -1.
         -2   -1    0    0    0  501 -0.00000000000E+00 -0.00000000000E+00 -0.29378903674E+03  0.29378903674E+03  0.00000000000E+00 0.  1.
         25    2    1    2    0    0  0.51893964954E+01 -0.47540736848E+02 -0.14830332990E+03  0.19982194742E+03  0.12509149257E+03 0.  0.
          5    1    3    3  502    0 -0.38539340081E+02 -0.59058678132E+02 -0.37297656684E+02  0.79886142670E+02  0.41800000000E+01 0.  1.
         -5    1    3    3    0  502  0.43728736577E+02  0.11517941284E+02 -0.11100567322E+03  0.11993580475E+03  0.41800000000E+01 0.  1.
        -11    1    1    2    0    0 -0.34985856886E+02 -0.56122778490E+01 -0.14020377263E+02  0.38106152040E+02  0.00000000000E+00 0.  1.
         11    1    1    2    0    0  0.29796460391E+02  0.53153014697E+02 -0.83752425001E+02  0.10357384186E+03  0.00000000000E+00 0. -1.
</event>
<event>
 7    1  0.2856214E-009  0.8498448E+02  0.7561462E-02  0.1315473E+00
         -1   -1    0    0    0  501 -0.00000000000E+00  0.00000000000E+00  0.41411561723E+03  0.41411561723E+03  0.00000000000E+00 0.  1.
          1   -1    0    0  501    0  0.00000000000E+00 -0.00000000000E+00 -0.30182305920E+02  0.30182305920E+02  0.00000000000E+00 0. -1.
         25    2    1    2    0    0 -0.21499533647E+01 -0.42975141612E+01  0.25740766507E+03  0.28623228167E+03  0.12508845712E+03 0.  0.
          5    1    3    3  502    0 -0.60189699916E+02  0.16674274505E+02  0.14490119961E+03  0.15784378814E+03  0.41800000000E+01 0.  1.
         -5    1    3    3    0  502  0.58039746551E+02 -0.20971788666E+02  0.11250646546E+03  0.12838849352E+03  0.41800000000E+01 0.  1.
        -11    1    1    2    0    0 -0.21455292375E+02  0.44552098069E+01  0.13202219044E+03  0.13382838725E+03  0.00000000000E+00 0.  1.
         11    1    1    2    0    0  0.23605245740E+02 -0.15769564571E+00 -0.54965442032E+01  0.24237254229E+02  0.00000000000E+00 0. -1.
</event>
<event>
 7    1  0.2856214E-009  0.1739305E+03  0.7561462E-02  0.1173810E+00
          1   -1    0    0  501    0  0.00000000000E+00  0.00000000000E+00  0.87405122787E+03  0.87405122787E+03  0.00000000000E+00 0. -1.
         -1   -1    0    0    0  501 -0.00000000000E+00 -0.00000000000E+00 -0.40240604165E+02  0.40240604165E+02  0.00000000000E+00 0.  1.
         25    2    1    2    0    0 -0.97374173367E+01  0.14493123788E+03  0.55773010796E+03  0.58975441393E+03  0.12509002524E+03 0.  0.
          5    1    3    3  502    0 -0.25851838320E+02  0.16276502797E+03  0.51251966229E+03  0.53838150833E+03  0.41800000000E+01 0. -1.
         -5    1    3    3    0  502  0.16114420983E+02 -0.17833790088E+02  0.45210445669E+02  0.51372905603E+02  0.41800000000E+01 0. -1.
        -11    1    1    2    0    0  0.19999270676E+02 -0.84030920814E+01  0.72884032965E+01  0.22884571368E+02  0.00000000000E+00 0.  1.
         11    1    1    2    0    0 -0.10261853339E+02 -0.13652814580E+03  0.26879211245E+03  0.30165284674E+03  0.00000000000E+00 0. -1.
</event>
<event>
 7    1  0.2856214E-009  0.9504578E+02  0.7561462E-02  0.1291073E+00
          1   -1    0    0  501    0  0.00000000000E+00  0.00000000000E+00  0.25581296689E+03  0.25581296689E+03  0.00000000000E+00 0. -1.
         -1   -1    0    0    0  501 -0.00000000000E+00 -0.00000000000E+00 -0.10344087286E+03  0.10344087286E+03  0.00000000000E+00 0.  1.
         25    2    1    2    0    0 -0.61406373137E+02  0.73715218391E+01  0.19525320755E+03  0.23999342673E+03  0.12509175761E+03 0.  0.
          5    1    3    3  502    0 -0.79028818339E+02 -0.29237171200E+02  0.74615516233E+02  0.11262909913E+03  0.41800000000E+01 0.  1.
         -5    1    3    3    0  502  0.17622445202E+02  0.36608693040E+02  0.12063769131E+03  0.12736432760E+03  0.41800000000E+01 0.  1.
        -11    1    1    2    0    0  0.38867228746E+02  0.49698738799E+01 -0.71045674379E+02  0.81134758055E+02  0.00000000000E+00 0.  1.
         11    1    1    2    0    0  0.22539144391E+02 -0.12341395719E+02  0.28164560861E+02  0.38125654967E+02  0.00000000000E+00 0. -1.
</event>
<event>
 7    1  0.2856214E-009  0.1016272E+03  0.7561462E-02  0.1276911E+00
         -1   -1    0    0    0  501 -0.00000000000E+00  0.00000000000E+00  0.10382205798E+02  0.10382205798E+02  0.00000000000E+00 0.  1.
          1   -1    0    0  501    0  0.00000000000E+00 -0.00000000000E+00 -0.16407989229E+04  0.16407989229E+04  0.00000000000E+00 0. -1.
         25    2    1    2    0    0 -0.31478086203E+02  0.65438735699E+02 -0.99707639887E+03  0.10075150632E+04  0.12510859042E+03 0.  0.
          5    1    3    3  502    0 -0.35826095859E+02  0.17255573894E+02 -0.87811103074E+03  0.87902088638E+03  0.41800000000E+01 0. -1.
         -5    1    3    3    0  502  0.43480096563E+01  0.48183161805E+02 -0.11896536812E+03  0.12849417684E+03  0.41800000000E+01 0. -1.
        -11    1    1    2    0    0  0.53648762695E+02 -0.94266684092E+01 -0.31544090119E+03  0.32010937812E+03  0.00000000000E+00 0.  1.
         11    1    1    2    0    0 -0.22170676493E+02 -0.56012067290E+02 -0.31789941706E+03  0.32355668738E+03  0.00000000000E+00 0. -1.
</event>
<event>
 7    1  0.2856214E-009  0.1216542E+03  0.7561462E-02  0.1240393E+00
         -1   -1    0    0    0  501 -0.00000000000E+00  0.00000000000E+00  0.26655694941E+02  0.26655694941E+02  0.00000000000E+00 0.  1.
          1   -1    0    0  501    0  0.00000000000E+00 -0.00000000000E+00 -0.68287258186E+03  0.68287258186E+03  0.00000000000E+00 0. -1.
         25    2    1    2    0    0 -0.66197412034E+02  0.29134302324E+02 -0.29747954448E+03  0.33071530941E+03  0.12509049350E+03 0.  0.
          5    1    3    3  502    0 -0.94001361966E+02 -0.11653418170E+02 -0.20224223661E+03  0.22336394712E+03  0.41800000000E+01 0. -1.
         -5    1    3    3    0  502  0.27803949931E+02  0.40787720494E+02 -0.95237307870E+02  0.10735136229E+03  0.41800000000E+01 0. -1.
        -11    1    1    2    0    0  0.77057806784E+00 -0.33382289958E+02 -0.34498642985E+02  0.48011742743E+02  0.00000000000E+00 0.  1.
         11    1    1    2    0    0  0.65426833966E+02  0.42479876335E+01 -0.32423869946E+03  0.33080122465E+03  0.00000000000E+00 0. -1.
</event>
<event>
 7    1  0.2856214E-009  0.9716329E+02  0.7561462E-02  0.1286377E+00
         -1   -1    0    0    0  501 -0.00000000000E+00  0.00000000000E+00  0.20247053571E+03  0.20247053571E+03  0.00000000000E+00 0. -1.
          1   -1    0    0  501    0  0.00000000000E+00 -0.00000000000E+00 -0.12349664854E+03  0.12349664854E+03  0.00000000000E+00 0.  1.
         25    2    1    2    0    0  0.61661248033E+02 -0.17396163856E+02 -0.58165171296E+02  0.15210507354E+03  0.12509208696E+03 0.  0.
          5    1    3    3  502    0  0.77272301945E+02 -0.41079837735E+02 -0.77949463508E+02  0.11726957396E+03  0.41800000000E+01 0.  1.
         -5    1    3    3    0  502 -0.15611053912E+02  0.23683673879E+02  0.19784292212E+02  0.34835499580E+02  0.41800000000E+01 0.  1.
        -11    1    1    2    0    0 -0.50945862090E+02 -0.69726334756E+01  0.13795743084E+03  0.14722890751E+03  0.00000000000E+00 0. -1.
         11    1    1    2    0    0 -0.10715385943E+02  0.24368797332E+02 -0.81837236721E+00  0.26633203199E+02  0.00000000000E+00 0.  1.
</event>
<event>
 7    1  0.3019924E-009  0.2543226E+03  0.7561462E-02  0.1110603E+00
         -2   -1    0    0    0  501 -0.00000000000E+00  0.00000000000E+00  0.63638299083E+02  0.63638299083E+02  0.00000000000E+00 0.  1.
          2   -1    0    0  501    0  0.00000000000E+00 -0.00000000000E+00 -0.12141626069E+04  0.12141626069E+04  0.00000000000E+00 0. -1.
         25    2    1    2    0    0  0.23623753571E+02 -0.24338428950E+03 -0.41790507605E+03  0.50008712937E+03  0.12509392581E+03 0.  0.
          5    1    3    3  502    0 -0.21802859113E+02 -0.14633023088E+02 -0.68418058535E+01  0.27454921918E+02  0.41800000000E+01 0. -1.
         -5    1    3    3    0  502  0.45426612684E+02 -0.22875126641E+03 -0.41106327019E+03  0.47263220746E+03  0.41800000000E+01 0. -1.
        -11    1    1    2    0    0  0.13972530824E+02  0.71568117809E+02 -0.12067230122E+03  0.14099301893E+03  0.00000000000E+00 0.  1.
         11    1    1    2    0    0 -0.37596284395E+02  0.17181617169E+03 -0.61194693058E+03  0.63672075771E+03  0.00000000000E+00 0. -1.
</event>
<event>
 7    1  0.2856214E-009  0.8934108E+02  0.7561462E-02  0.1304455E+00
          1   -1    0    0  501    0  0.00000000000E+00  0.00000000000E+00  0.17248204425E+03  0.17248204425E+03  0.00000000000E+00 0. -1.
         -1   -1    0    0    0  501 -0.00000000000E+00 -0.00000000000E+00 -0.73204354221E+02  0.73204354221E+02  0.00000000000E+00 0.  1.
         25    2    1    2    0    0 -0.26762102126E+02  0.13239278610E+02  0.46328144248E+02  0.13669502246E+03  0.12509094134E+03 0.  0.
          5    1    3    3  502    0  0.90582193166E+01  0.40541482464E+02  0.73064222407E+02  0.84151744685E+02  0.41800000000E+01 0.  1.
         -5    1    3    3    0  502 -0.35820321442E+02 -0.27302203854E+02 -0.26736078159E+02  0.52543277770E+02  0.41800000000E+01 0.  1.
        -11    1    1    2    0    0  0.43079475417E+02  0.25221617503E+02  0.13934908709E+02  0.51828108903E+02  0.00000000000E+00 0.  1.
         11    1    1    2    0    0 -0.16317373291E+02 -0.38460896113E+02  0.39014637071E+02  0.57163267111E+02  0.00000000000E+00 0. -1.
</event>
<event>
 7    1  0.2856214E-009  0.1033153E+03  0.7561462E-02  0.1273475E+00
          1   -1    0    0  501    0  0.00000000000E+00  0.00000000000E+00  0.39542188293E+02  0.39542188293E+02  0.00000000000E+00 0. -1.
         -1   -1    0    0    0  501 -0.00000000000E+00 -0.00000000000E+00 -0.32407943015E+03  0.32407943015E+03  0.00000000000E+00 0.  1.
         25    2    1    2    0    0  0.12253169604E+02 -0.30329569101E+02 -0.17060356667E+03  0.21406092353E+03  0.12508588687E+03 0.  0.
          5    1    3    3  502    0 -0.42111874699E+00  0.47640542808E+02 -0.45279000396E+02  0.65859387614E+02  0.41800000000E+01 0.  1.
         -5    1    3    3    0  502  0.12674288351E+02 -0.77970111909E+02 -0.12532456628E+03  0.14820153592E+03  0.41800000000E+01 0.  1.
        -11    1    1    2    0    0 -0.31519071067E+02 -0.11577177705E+02 -0.93062801396E+02  0.98935170128E+02  0.00000000000E+00 0.  1.
         11    1    1    2    0    0  0.19265901463E+02  0.41906746806E+02 -0.20870873792E+02  0.50625524786E+02  0.00000000000E+00 0. -1.
</event>
<event>
 7    1  0.2941202E-009  0.1166816E+03  0.7561462E-02  0.1248674E+00
         -2   -1    0    0    0  501 -0.00000000000E+00  0.00000000000E+00  0.47576533063E+02  0.47576533063E+02  0.00000000000E+00 0.  1.
          2   -1    0    0  501    0  0.00000000000E+00 -0.00000000000E+00 -0.33841884697E+03  0.33841884697E+03  0.00000000000E+00 0. -1.
         25    2    1    2    0    0 -0.30781271411E+02 -0.43435525371E+02 -0.22245936236E+03  0.26071031179E+03  0.12509023638E+03 0.  0.
          5    1    3    3  502    0 -0.78339769255E+02 -0.27918419024E+02 -0.16181779445E+03  0.18198634171E+03  0.41800000000E+01 0. -1.
         -5    1    3    3    0  502  0.47558497845E+02 -0.15517106348E+02 -0.60641567910E+02  0.78723970080E+02  0.41800000000E+01 0. -1.
        -11    1    1    2    0    0  0.30241654686E+02 -0.20127159029E+02 -0.71497605889E+01  0.37024036587E+02  0.00000000000E+00 0. -1.
         11    1    1    2    0    0  0.53961672506E+00  0.63562684400E+02 -0.61233190957E+02  0.88261031657E+02  0.00000000000E+00 0.  1.
</event>
<event>
 7    1  0.2856214E-009  0.1808981E+03  0.7561462E-02  0.1166937E+00
         -1   -1    0    0    0  501 -0.00000000000E+00  0.00000000000E+00  0.19997533341E+03  0.19997533341E+03  0.00000000000E+00 0.  1.
          1   -1    0    0  501    0  0.00000000000E+00 -0.00000000000E+00 -0.32218745113E+03  0.32218745113E+03  0.00000000000E+00 0. -1.
         25    2    1    2    0    0  0.13594878990E+03 -0.74873546274E+02  0.10305033468E+03  0.22440901258E+03  0.12510760187E+03 0.  0.
          5    1    3    3  502    0  0.48566577379E+02 -0.89140272457E+02  0.21255299121E+02  0.10379769146E+03  0.41800000000E+01 0.  1.
         -5    1    3    3    0  502  0.87382212522E+02  0.14266726183E+02  0.81795035556E+02  0.12061132112E+03  0.41800000000E+01 0.  1.
        -11    1    1    2    0    0 -0.32254996994E+02  0.58191712514E+02 -0.23988872139E+02  0.70725711187E+02  0.00000000000E+00 0.  1.
         11    1    1    2    0    0 -0.10369379291E+03  0.16681833760E+02 -0.20127358026E+03  0.22702806076E+03  0.00000000000E+00 0. -1.
</event>
<event>
 7    1  0.4223503E-009  0.1261528E+03  0.7561462E-02  0.1233279E+00
          1   -1    0    0  501    0  0.00000000000E+00  0.00000000000E+00  0.35693941527E+03  0.35693941527E+03  0.00000000000E+00 0. -1.
         -1   -1    0    0    0  501 -0.00000000000E+00 -0.00000000000E+00 -0.72002246700E+02  0.72002246700E+02  0.00000000000E+00 0.  1.
         25    2    1    2    0    0  0.82001552836E+02  0.48088326184E+02  0.60104983593E+02  0.16821580040E+03  0.12508878714E+03 0.  0.
          5    1    3    3  502    0  0.31813253157E+02  0.85597591193E+02  0.51246721544E+02  0.10479851890E+03  0.41800000000E+01 0. -1.
         -5    1    3    3    0  502  0.50188299678E+02 -0.37509265009E+02  0.88582620493E+01  0.63417281498E+02  0.41800000000E+01 0. -1.
        -11    1    1    2    0    0 -0.55037150001E+02 -0.18497463064E+02  0.37398320265E+02  0.69064306112E+02  0.00000000000E+00 0.  1.
         11    1    1    2    0    0 -0.26964402834E+02 -0.29590863120E+02  0.18743386472E+03  0.19166155546E+03  0.00000000000E+00 0. -1.
</event>
<event>
 7    1  0.2856214E-009  0.7963414E+02  0.7561462E-02  0.1330093E+00
          1   -1    0    0  501    0  0.00000000000E+00  0.00000000000E+00  0.51167542795E+03  0.51167542795E+03  0.00000000000E+00 0. -1.
         -1   -1    0    0    0  501 -0.00000000000E+00 -0.00000000000E+00 -0.32736887118E+02  0.32736887118E+02  0.00000000000E+00 0.  1.
         25    2    1    2    0    0 -0.44265308709E+02  0.38385954363E+02  0.32133523335E+03  0.34976672365E+03  0.12509008646E+03 0.  0.
          5    1    3    3  502    0 -0.46327954868E+02  0.41892685391E+02  0.54886908787E+02  0.83254559321E+02  0.41800000000E+01 0.  1.
         -5    1    3    3    0  502  0.20626461597E+01 -0.35067310279E+01  0.26644832456E+03  0.26651216433E+03  0.41800000000E+01 0.  1.
        -11    1    1    2    0    0  0.46526453536E+02  0.55365252950E+01  0.21386727190E+02  0.51504913269E+02  0.00000000000E+00 0.  1.
         11    1    1    2    0    0 -0.22611448270E+01 -0.43922479658E+02  0.13621658029E+03  0.14314067815E+03  0.00000000000E+00 0. -1.
</event>
<event>
 7    1  0.2856214E-009  0.9061125E+02  0.7561462E-02  0.1301378E+00
         -2   -1    0    0    0  501 -0.00000000000E+00  0.00000000000E+00  0.23908886858E+03  0.23908886858E+03  0.00000000000E+00 0.  1.
          2   -1    0    0  501    0  0.00000000000E+00 -0.00000000000E+00 -0.62297140730E+02  0.62297140730E+02  0.00000000000E+00 0. -1.
         25    2    1    2    0    0  0.32468549518E+02  0.24185675901E+02  0.14996189110E+03  0.19943801644E+03  0.12509116672E+03 0.  0.
          5    1    3    3  502    0 -0.91334432967E+01  0.40100874390E+02 -0.16405251329E+01  0.41372256840E+02  0.41800000000E+01 0. -1.
         -5    1    3    3    0  502  0.41601992814E+02 -0.15915198489E+02  0.15160241624E+03  0.15806575960E+03  0.41800000000E+01 0. -1.
        -11    1    1    2    0    0  0.61411021222E+01 -0.48912069541E+02  0.96218605047E+00  0.49305471137E+02  0.00000000000E+00 0. -1.
         11    1    1    2    0    0 -0.38609651640E+02  0.24726393639E+02  0.25867650698E+02  0.52642521736E+02  0.00000000000E+00 0.  1.
</event>
<event>
 7    1  0.2856214E-009  0.1171299E+03  0.7561462E-02  0.1247908E+00
          2   -1    0    0  501    0  0.00000000000E+00  0.00000000000E+00  0.57551259722E+03  0.57551259722E+03  0.00000000000E+00 0. -1.
         -2   -1    0    0    0  501 -0.00000000000E+00 -0.00000000000E+00 -0.32911473735E+02  0.32911473735E+02  0.00000000000E+00 0.  1.
         25    2    1    2    0    0  0.53246317911E+02 -0.36735461215E+02  0.42014819181E+03  0.44312206377E+03  0.12509194952E+03 0.  0.
          5    1    3    3  502    0 -0.11483579644E+02  0.29036356432E+02  0.22522525787E+03  0.22741783523E+03  0.41800000000E+01 0. -1.
         -5    1    3    3    0  502  0.64729897555E+02 -0.65771817648E+02  0.19492293394E+03  0.21570422854E+03  0.41800000000E+01 0. -1.
        -11    1    1    2    0    0  0.27725566010E+01 -0.26072844181E+02  0.37146288900E+02  0.45467868356E+02  0.00000000000E+00 0. -1.
         11    1    1    2    0    0 -0.56018874512E+02  0.62808305396E+02  0.85306642779E+02  0.11983413884E+03  0.00000000000E+00 0.  1.
</event>
<event>
 7    1  0.2856214E-009  0.2791325E+03  0.7561462E-02  0.1096164E+00
         -1   -1    0    0    0  501 -0.00000000000E+00  0.00000000000E+00  0.93195866673E+02  0.93195866673E+02  0.00000000000E+00 0.  1.
          1   -1    0    0  501    0  0.00000000000E+00 -0.00000000000E+00 -0.92341464558E+03  0.92341464558E+03  0.00000000000E+00 0. -1.
         25    2    1    2    0    0 -0.24776462948E+02  0.27208944357E+03 -0.46140801016E+03  0.55062765900E+03  0.12508768361E+03 0.  0.
          5    1    3    3  502    0  0.14193371612E+02  0.25450530897E+02 -0.14283290441E+03  0.14583515455E+03  0.41800000000E+01 0. -1.
         -5    1    3    3    0  502 -0.38969834560E+02  0.24663891267E+03 -0.31857510575E+03  0.40479250444E+03  0.41800000000E+01 0. -1.
        -11    1    1    2    0    0  0.18999123351E+02 -0.22552641011E+02 -0.74238311734E+02  0.79880631155E+02  0.00000000000E+00 0.  1.
         11    1    1    2    0    0  0.57773395973E+01 -0.24953680256E+03 -0.29457245701E+03  0.38610222210E+03  0.00000000000E+00 0. -1.
</event>
<event>
 7    1  0.2856214E-009  0.1378334E+03  0.7561462E-02  0.1216274E+00
         -3   -1    0    0    0  501 -0.00000000000E+00  0.00000000000E+00  0.57180605536E+02  0.57180605536E+02  0.00000000000E+00 0.  1.
          3   -1    0    0  501    0  0.00000000000E+00 -0.00000000000E+00 -0.45303105754E+03  0.45303105754E+03  0.00000000000E+00 0. -1.
         25    2    1    2    0    0  0.54546893553E+02  0.10502157167E+03 -0.21130253623E+03  0.27258326217E+03  0.12509188179E+03 0.  0.
          5    1    3    3  502    0  0.41623176910E+02  0.25013417177E+02 -0.27731177946E+01  0.48819283867E+02  0.41800000000E+01 0. -1.
         -5    1    3    3    0  502  0.12923716643E+02  0.80008154491E+02 -0.20852941843E+03  0.22376397831E+03  0.41800000000E+01 0. -1.
        -11    1    1    2    0    0 -0.22020510657E+00 -0.89185457867E+02 -0.85463749147E+02  0.12352387139E+03  0.00000000000E+00 0.  1.
         11    1    1    2    0    0 -0.54326688447E+02 -0.15836113801E+02 -0.99084166635E+02  0.11410452951E+03  0.00000000000E+00 0. -1.
</event>
<event>
 7    1  0.2856214E-009  0.1298447E+03  0.7561462E-02  0.1227686E+00
         -2   -1    0    0    0  501 -0.00000000000E+00  0.00000000000E+00  0.12058353273E+03  0.12058353273E+03  0.00000000000E+00 0.  1.
          2   -1    0    0  501    0  0.00000000000E+00 -0.00000000000E+00 -0.16475593268E+03  0.16475593268E+03  0.00000000000E+00 0. -1.
         25    2    1    2    0    0 -0.78277245704E+02  0.29172314734E+02  0.69895759500E+01  0.15058005721E+03  0.12508856188E+03 0.  0.
          5    1    3    3  502    0 -0.64840246657E+02 -0.32185566844E+02  0.36359314756E+02  0.81114983013E+02  0.41800000000E+01 0.  1.
         -5    1    3    3    0  502 -0.13436999047E+02  0.61357881578E+02 -0.29369738806E+02  0.69465074193E+02  0.41800000000E+01 0.  1.
        -11    1    1    2    0    0 -0.17638029880E+02  0.10394543466E+02 -0.43397844734E+01  0.20927980342E+02  0.00000000000E+00 0.  1.
         11    1    1    2    0    0  0.95915275585E+02 -0.39566858200E+02 -0.46822191435E+02  0.11383142786E+03  0.00000000000E+00 0. -1.
</event>
<event>
 7    1  0.2856214E-009  0.1036683E+03  0.7561462E-02  0.1272766E+00
          2   -1    0    0  501    0  0.00000000000E+00  0.00000000000E+00  0.36432855047E+03  0.36432855047E+03  0.00000000000E+00 0.  1.
         -2   -1    0    0    0  501 -0.00000000000E+00 -0.00000000000E+00 -0.50182743966E+02  0.50182743966E+02  0.00000000000E+00 0. -1.
         25    2    1    2    0    0 -0.81257177579E+01  0.49610546875E+02  0.26484516658E+03  0.29718102161E+03  0.12508542558E+03 0.  0.
          5    1    3    3  502    0  0.54671228778E+02  0.21296685114E+01  0.12771317029E+03  0.13900217628E+03  0.41800000000E+01 0. -1.
         -5    1    3    3    0  502 -0.62796946535E+02  0.47480878364E+02  0.13713199629E+03  0.15817884533E+03  0.41800000000E+01 0. -1.
        -11    1    1    2    0    0 -0.88600648302E+01  0.89852441539E+01  0.54650178514E+02  0.56088121495E+02  0.00000000000E+00 0.  1.
         11    1    1    2    0    0  0.16985782588E+02 -0.58595791029E+02 -0.53495385913E+01  0.61242151330E+02  0.00000000000E+00 0. -1.
</event>
<event>
 7    1  0.2856214E-009  0.2176308E+03  0.7561462E-02  0.1135662E+00
          2   -1    0    0  501    0  0.00000000000E+00  0.00000000000E+00  0.12069937960E+04  0.12069937960E+04  0.00000000000E+00 0. -1.
         -2   -1    0    0    0  501 -0.00000000000E+00 -0.00000000000E+00 -0.58358304958E+02  0.58358304958E+02  0.00000000000E+00 0.  1.
         25    2    1    2    0    0  0.20879447916E+03 -0.27232552194E+02  0.30564129536E+03  0.39166692105E+03  0.12509847797E+03 0.  0.
          5    1    3    3  502    0  0.16986087039E+03 -0.29001735466E+02  0.30740152838E+03  0.35243011790E+03  0.41800000000E+01 0. -1.
         -5    1    3    3    0  502  0.38933608774E+02  0.17691832722E+01 -0.17602330246E+01  0.39236803156E+02  0.41800000000E+01 0. -1.
        -11    1    1    2    0    0 -0.16412941345E+03 -0.11559091722E+02  0.52308613477E+03  0.54835315386E+03  0.00000000000E+00 0.  1.
         11    1    1    2    0    0 -0.44665065715E+02  0.38791643916E+02  0.31990806096E+03  0.32533202609E+03  0.00000000000E+00 0. -1.
</event>
<event>
 7    1  0.2856214E-009  0.1277629E+03  0.7561462E-02  0.1230813E+00
          2   -1    0    0  501    0  0.00000000000E+00  0.00000000000E+00  0.37622410537E+03  0.37622410537E+03  0.00000000000E+00 0. -1.
         -2   -1    0    0    0  501 -0.00000000000E+00 -0.00000000000E+00 -0.10996740726E+03  0.10996740726E+03  0.00000000000E+00 0.  1.
         25    2    1    2    0    0  0.63339011064E+00 -0.92017210475E+02 -0.33726640513E+02  0.15891130384E+03  0.12509095890E+03 0.  0.
          5    1    3    3  502    0 -0.25404796558E+02  0.33212974634E+01  0.31200505389E+02  0.40587912505E+02  0.41800000000E+01 0.  1.
         -5    1    3    3    0  502  0.26038186669E+02 -0.95338507938E+02 -0.64927145902E+02  0.11832339133E+03  0.41800000000E+01 0.  1.
        -11    1    1    2    0    0  0.45907391797E+02  0.40476088791E+02  0.13142322689E+03  0.14497540120E+03  0.00000000000E+00 0. -1.
         11    1    1    2    0    0 -0.46540781907E+02  0.51541121684E+02  0.16856011173E+03  0.18230480759E+03  0.00000000000E+00 0.  1.
</event>
<event>
 7    1  0.2856214E-009  0.1122438E+03  0.7561462E-02  0.1256470E+00
         -1   -1    0    0    0  501 -0.00000000000E+00  0.00000000000E+00  0.97251877452E+02  0.97251877452E+02  0.00000000000E+00 0.  1.
          1   -1    0    0  501    0  0.00000000000E+00 -0.00000000000E+00 -0.25713503028E+03  0.25713503028E+03  0.00000000000E+00 0. -1.
         25    2    1    2    0    0  0.24803444907E+02 -0.17333129115E+02 -0.20986348996E+03  0.24618143785E+03  0.12508783985E+03 0.  0.
          5    1    3    3  502    0 -0.29000341028E+02 -0.55349287742E+02 -0.98480664826E+02  0.11670680005E+03  0.41800000000E+01 0.  1.
         -5    1    3    3    0  502  0.53803785934E+02  0.38016158627E+02 -0.11138282513E+03  0.12947463780E+03  0.41800000000E+01 0.  1.
        -11    1    1    2    0    0 -0.25945549439E+02 -0.34964578723E+02  0.25414230329E+02  0.50414049671E+02  0.00000000000E+00 0.  1.
         11    1    1    2    0    0  0.11421045319E+01  0.52297707838E+02  0.24566106798E+02  0.57791420221E+02  0.00000000000E+00 0. -1.
</event>
<event>
 7    1  0.2856214E-009  0.9787300E+02  0.7561462E-02  0.1284833E+00
          2   -1    0    0  501    0  0.00000000000E+00  0.00000000000E+00  0.15461805754E+04  0.15461805754E+04  0.00000000000E+00 0. -1.
         -2   -1    0    0    0  501 -0.00000000000E+00 -0.00000000000E+00 -0.14727007430E+02  0.14727007430E+02  0.00000000000E+00 0.  1.
         25    2    1    2    0    0  0.41525221580E+02  0.41655359579E+02  0.12734692101E+04  0.12809492145E+04  0.12509016036E+03 0.  0.
          5    1    3    3  502    0 -0.20167077449E+02 -0.43270964676E+01  0.41114812519E+02  0.46188039417E+02  0.41800000000E+01 0.  1.
         -5    1    3    3    0  502  0.61692299030E+02  0.45982456047E+02  0.12323543976E+04  0.12347611751E+04  0.41800000000E+01 0.  1.
        -11    1    1    2    0    0  0.12328873434E+02 -0.42016749985E+02  0.17956495958E+03  0.18482690039E+03  0.00000000000E+00 0. -1.
         11    1    1    2    0    0 -0.53854095015E+02  0.36139040618E+00  0.78419398342E+02  0.95131467923E+02  0.00000000000E+00 0.  1.
</event>
<event>
 7    1  0.2856214E-009  0.8496739E+02  0.7561462E-02  0.1315518E+00
          1   -1    0    0  501    0  0.00000000000E+00  0.00000000000E+00  0.68618492328E+03  0.68618492328E+03  0.00000000000E+00 0. -1.
         -1   -1    0    0    0  501 -0.00000000000E+00 -0.00000000000E+00 -0.21847968613E+02  0.21847968613E+02  0.00000000000E+00 0.  1.
         25    2    1    2    0    0 -0.53937435477E+01  0.52388521740E+02  0.43738190109E+03  0.45796060733E+03  0.12510531877E+03 0.  0.
          5    1    3    3  502    0  0.13735104212E+02  0.44948912248E+02  0.45600317477E+02  0.65619502848E+02  0.41800000000E+01 0.  1.
         -5    1    3    3    0  502 -0.19128847760E+02  0.74396094922E+01  0.39178158362E+03  0.39234110448E+03  0.41800000000E+01 0.  1.
        -11    1    1    2    0    0 -0.26037461182E+01 -0.76425681753E+02  0.19384157517E+03  0.20837999086E+03  0.00000000000E+00 0. -1.
         11    1    1    2    0    0  0.79974896658E+01  0.24037160013E+02  0.33113478403E+02  0.41692293705E+02  0.00000000000E+00 0.  1.
</event>
<event>
 7    1  0.2856214E-009  0.1370098E+03  0.7561462E-02  0.1217410E+00
         -2   -1    0    0    0  501 -0.00000000000E+00  0.00000000000E+00  0.16981607722E+02  0.16981607722E+02  0.00000000000E+00 0.  1.
          2   -1    0    0  501    0  0.00000000000E+00 -0.00000000000E+00 -0.12087009291E+04  0.12087009291E+04  0.00000000000E+00 0. -1.
         25    2    1    2    0    0  0.33987310829E+02  0.80413223935E+02 -0.50551602033E+03  0.52802954288E+03  0.12508927798E+03 0.  0.
          5    1    3    3  502    0  0.23932206115E+02  0.11234734451E+03 -0.33396832154E+03  0.35319539705E+03  0.41800000000E+01 0. -1.
         -5    1    3    3    0  502  0.10055104714E+02 -0.31934120574E+02 -0.17154769879E+03  0.17483414583E+03  0.41800000000E+01 0. -1.
        -11    1    1    2    0    0  0.29407825418E+02 -0.41795581994E+02 -0.24860957348E+03  0.25380782276E+03  0.00000000000E+00 0.  1.
         11    1    1    2    0    0 -0.63395136247E+02 -0.38617641941E+02 -0.43759372753E+03  0.44384517113E+03  0.00000000000E+00 0. -1.
</event>
<event>
 7    1  0.2856214E-009  0.8545685E+02  0.7561462E-02  0.1314242E+00
          1   -1    0    0  501    0  0.00000000000E+00  0.00000000000E+00  0.18429821069E+03  0.18429821069E+03  0.00000000000E+00 0. -1.
         -1   -1    0    0    0  501 -0.00000000000E+00 -0.00000000000E+00 -0.86428845238E+02  0.86428845238E+02  0.00000000000E+00 0.  1.
         25    2    1    2    0    0 -0.33800071294E+02  0.32895305353E+01  0.10930252047E+03  0.16955139954E+03  0.12508944909E+03 0.  0.
          5    1    3    3  502    0 -0.20092951217E+02 -0.29697921407E+02  0.12514756659E+03  0.13025006352E+03  0.41800000000E+01 0.  1.
         -5    1    3    3    0  502 -0.13707120076E+02  0.32987451942E+02 -0.15845046116E+02  0.39301336019E+02  0.41800000000E+01 0.  1.
        -11    1    1    2    0    0  0.65357767300E+02 -0.11210028559E+02 -0.16276923028E+02  0.68280602736E+02  0.00000000000E+00 0.  1.
         11    1    1    2    0    0 -0.31557696006E+02  0.79204980235E+01  0.48437680052E+01  0.32895053650E+02  0.00000000000E+00 0. -1.
</event>
<event>
 7    1  0.2856214E-009  0.8521543E+02  0.7561462E-02  0.1314870E+00
          2   -1    0    0  501    0  0.00000000000E+00  0.00000000000E+00  0.27479834531E+03  0.27479834531E+03  0.00000000000E+00 0. -1.
         -2   -1    0    0    0  501 -0.00000000000E+00 -0.00000000000E+00 -0.55194504816E+02  0.55194504816E+02  0.00000000000E+00 0.  1.
         25    2    1    2    0    0 -0.36450187726E+02  0.24384748541E+01  0.18528456635E+03  0.22653295364E+03  0.12510893739E+03 0.  0.
          5    1    3    3  502    0  0.22994282968E+02 -0.35202853226E+02  0.19800782918E+02  0.46663918916E+02  0.41800000000E+01 0. -1.
         -5    1    3    3    0  502 -0.59444470694E+02  0.37641328080E+02  0.16548378343E+03  0.17986903473E+03  0.41800000000E+01 0. -1.
        -11    1    1    2    0    0  0.17362477032E+02  0.21140024678E+02  0.58555838850E+02  0.64630817073E+02  0.00000000000E+00 0. -1.
         11    1    1    2    0    0  0.19087710694E+02 -0.23578499532E+02 -0.24236564699E+02  0.38829079414E+02  0.00000000000E+00 0.  1.
</event>
<event>
 7    1  0.2856214E-009  0.1122136E+03  0.7561462E-02  0.1256525E+00
          1   -1    0    0  501    0  0.00000000000E+00  0.00000000000E+00  0.26029618905E+03  0.26029618905E+03  0.00000000000E+00 0. -1.
         -1   -1    0    0    0  501 -0.00000000000E+00 -0.00000000000E+00 -0.57804337695E+02  0.57804337695E+02  0.00000000000E+00 0.  1.
         25    2    1    2    0    0  0.23006044753E+02 -0.47668131175E+02  0.89889473219E+02  0.16288087068E+03  0.12509409184E+03 0.  0.
          5    1    3    3  502    0  0.32484216615E+02 -0.80166259552E+02  0.25934608941E+02  0.90398726985E+02  0.41800000000E+01 0.  1.
         -5    1    3    3    0  502 -0.94781718628E+01  0.32498128377E+02  0.63954864279E+02  0.72482143696E+02  0.41800000000E+01 0.  1.
        -11    1    1    2    0    0 -0.43848511450E+02  0.63763770621E+02  0.66074239505E+02  0.10175615719E+03  0.00000000000E+00 0.  1.
         11    1    1    2    0    0  0.20842466698E+02 -0.16095639445E+02  0.46528138627E+02  0.53463498869E+02  0.00000000000E+00 0. -1.
</event>
<event>
 7    1  0.2856214E-009  0.9401121E+02  0.7561462E-02  0.1293419E+00
          1   -1    0    0  501    0  0.00000000000E+00  0.00000000000E+00  0.64991039676E+03  0.64991039676E+03  0.00000000000E+00 0. -1.
         -1   -1    0    0    0  501 -0.00000000000E+00 -0.00000000000E+00 -0.22288442208E+02  0.22288442208E+02  0.00000000000E+00 0.  1.
         25    2    1    2    0    0 -0.21313435063E+02  0.27016847479E+02  0.47028015266E+03  0.48784752367E+03  0.12509041451E+03 0.  0.
          5    1    3    3  502    0 -0.49810403691E+02  0.37634722808E+02  0.44103022563E+03  0.44544649622E+03  0.41800000000E+01 0. -1.
         -5    1    3    3    0  502  0.28496968627E+02 -0.10617875329E+02  0.29249927031E+02  0.42401027450E+02  0.41800000000E+01 0. -1.
        -11    1    1    2    0    0 -0.29086127612E+02 -0.33016388509E+02  0.88354359581E+02  0.98704496284E+02  0.00000000000E+00 0. -1.
         11    1    1    2    0    0  0.50399562675E+02  0.59995410301E+01  0.68987442306E+02  0.85646819009E+02  0.00000000000E+00 0.  1.
</event>
<event>
 7    1  0.2856214E-009  0.8081806E+02  0.7561462E-02  0.1326746E+00
          1   -1    0    0  501    0  0.00000000000E+00  0.00000000000E+00  0.12590631110E+03  0.12590631110E+03  0.00000000000E+00 0.  1.
         -1   -1    0    0    0  501 -0.00000000000E+00 -0.00000000000E+00 -0.11156827287E+03  0.11156827287E+03  0.00000000000E+00 0. -1.
         25    2    1    2    0    0  0.34543636554E+02  0.23578595647E+02  0.29354191747E+02  0.13512287708E+03  0.12508920952E+03 0.  0.
          5    1    3    3  502    0  0.19789176262E+01 -0.23833211486E+02 -0.38845903240E+02  0.45808456460E+02  0.41800000000E+01 0. -1.
         -5    1    3    3    0  502  0.32564718928E+02  0.47411807133E+02  0.68200094987E+02  0.89314420620E+02  0.41800000000E+01 0. -1.
        -11    1    1    2    0    0 -0.47857963531E+02 -0.37219128276E+02 -0.38718325760E+02  0.71935783394E+02  0.00000000000E+00 0. -1.
         11    1    1    2    0    0  0.13314326977E+02  0.13640532629E+02  0.23702172238E+02  0.30415923495E+02  0.00000000000E+00 0.  1.
</event>
<event>
 7    1  0.2856214E-009  0.8047642E+02  0.7561462E-02  0.1327705E+00
          1   -1    0    0  501    0  0.00000000000E+00  0.00000000000E+00  0.13713392688E+03  0.13713392688E+03  0.00000000000E+00 0. -1.
         -1   -1    0    0    0  501 -0.00000000000E+00 -0.00000000000E+00 -0.61747642984E+02  0.61747642984E+02  0.00000000000E+00 0.  1.
         25    2    1    2    0    0  0.23509786633E+01  0.33325558608E+02  0.51668299590E+02  0.13940644465E+03  0.12509365959E+03 0.  0.
          5    1    3    3  502    0 -0.37246262524E+02 -0.22078832580E+02 -0.13000079242E+02  0.45400808147E+02  0.41800000000E+01 0.  1.
         -5    1    3    3    0  502  0.39597241187E+02  0.55404391188E+02  0.64668378833E+02  0.94005636498E+02  0.41800000000E+01 0.  1.
        -11    1    1    2    0    0 -0.15845536046E+02 -0.31946336677E+02  0.44869632522E+01  0.35941372802E+02  0.00000000000E+00 0.  1.
         11    1    1    2    0    0  0.13494557382E+02 -0.13792219317E+01  0.19231021051E+02  0.23533752415E+02  0.00000000000E+00 0. -1.
</event>
<event>
 7    1  0.2856214E-009  0.1686667E+03  0.7561462E-02  0.1179245E+00
         -4   -1    0    0    0  501 -0.00000000000E+00  0.00000000000E+00  0.82966461895E+03  0.82966461895E+03  0.00000000000E+00 0.  1.
          4   -1    0    0  501    0  0.00000000000E+00 -0.00000000000E+00 -0.34692958748E+02  0.34692958748E+02  0.00000000000E+00 0. -1.
         25    2    1    2    0    0 -0.66493646608E+02  0.11108029130E+03  0.39330941249E+03  0.43255607480E+03  0.12510886357E+03 0.  0.
          5    1    3    3  502    0 -0.85081412754E+02  0.22117594392E+02  0.17014916178E+03  0.19156263841E+03  0.41800000000E+01 0. -1.
         -5    1    3    3    0  502  0.18587766147E+02  0.88962696908E+02  0.22316025070E+03  0.24099343639E+03  0.41800000000E+01 0. -1.
        -11    1    1    2    0    0  0.94266723264E+01 -0.99712033858E+02  0.24496865262E+03  0.26465258853E+03  0.00000000000E+00 0.  1.
         11    1    1    2    0    0  0.57066974281E+02 -0.11368257442E+02  0.15669359510E+03  0.16714891437E+03  0.00000000000E+00 0. -1.
</event>
<event>
 7    1  0.2856214E-009  0.8078761E+02  0.7561462E-02  0.1326831E+00
         -1   -1    0    0    0  501 -0.00000000000E+00  0.00000000000E+00  0.72658416582E+02  0.72658416582E+02  0.00000000000E+00 0.  1.
          1   -1    0    0  501    0  0.00000000000E+00 -0.00000000000E+00 -0.25004729714E+03  0.25004729714E+03  0.00000000000E+00 0. -1.
         25    2    1    2    0    0  0.32965103221E+02 -0.49430632611E+02 -0.16271651151E+03  0.21366379467E+03  0.12508184746E+03 0.  0.
          5    1    3    3  502    0 -0.33099503600E+01 -0.15567779489E+02 -0.16303438662E+03  0.16386273265E+03  0.41800000000E+01 0. -1.
         -5    1    3    3    0  502  0.36275053581E+02 -0.33862853122E+02  0.31787511551E+00  0.49801062022E+02  0.41800000000E+01 0. -1.
        -11    1    1    2    0    0 -0.32443776900E+02 -0.11473885142E+02 -0.30640232984E+02  0.46076811708E+02  0.00000000000E+00 0. -1.
         11    1    1    2    0    0 -0.52132632096E+00  0.60904517753E+02  0.15967863936E+02  0.62965107341E+02  0.00000000000E+00 0.  1.
</event>
<event>
 7    1  0.2856214E-009  0.9866196E+02  0.7561462E-02  0.1283135E+00
          1   -1    0    0  501    0  0.00000000000E+00  0.00000000000E+00  0.16520128370E+03  0.16520128370E+03  0.00000000000E+00 0. -1.
         -1   -1    0    0    0  501 -0.00000000000E+00 -0.00000000000E+00 -0.11235171712E+03  0.11235171712E+03  0.00000000000E+00 0.  1.
         25    2    1    2    0    0  0.26209750265E+02 -0.20371649357E+02  0.11560735165E+03  0.17353501498E+03  0.12508951420E+03 0.  0.
          5    1    3    3  502    0  0.57393784144E+02  0.23077403573E+02  0.10000927903E+03  0.11766877796E+03  0.41800000000E+01 0. -1.
         -5    1    3    3    0  502 -0.31184033879E+02 -0.43449052929E+02  0.15598072617E+02  0.55866237020E+02  0.41800000000E+01 0. -1.
        -11    1    1    2    0    0 -0.63477970767E+01  0.47574695268E+02 -0.27765352558E+02  0.55448723703E+02  0.00000000000E+00 0.  1.
         11    1    1    2    0    0 -0.19861953188E+02 -0.27203045912E+02 -0.34992432514E+02  0.48569262138E+02  0.00000000000E+00 0. -1.
</event>
<event>
 7    1  0.2856214E-009  0.1085675E+03  0.7561462E-02  0.1263246E+00
          2   -1    0    0  501    0  0.00000000000E+00  0.00000000000E+00  0.51681972868E+03  0.51681972868E+03  0.00000000000E+00 0. -1.
         -2   -1    0    0    0  501 -0.00000000000E+00 -0.00000000000E+00 -0.40852408175E+02  0.40852408175E+02  0.00000000000E+00 0.  1.
         25    2    1    2    0    0  0.33758060194E+02  0.71939302102E+02  0.36273397815E+03  0.39183940218E+03  0.12508920170E+03 0.  0.
          5    1    3    3  502    0  0.71691590871E+02  0.60783594631E+02  0.16315476227E+03  0.18833820225E+03  0.41800000000E+01 0.  1.
         -5    1    3    3    0  502 -0.37933530677E+02  0.11155707470E+02  0.19957921588E+03  0.20350119992E+03  0.41800000000E+01 0.  1.
        -11    1    1    2    0    0  0.14633349378E+01 -0.22721052809E+02  0.10170454960E+03  0.10422189309E+03  0.00000000000E+00 0. -1.
         11    1    1    2    0    0 -0.35221395132E+02 -0.49218249293E+02  0.11528792756E+02  0.61610841586E+02  0.00000000000E+00 0.  1.
</event>
<event>
 7    1  0.2856214E-009  0.1126023E+03  0.7561462E-02  0.1255825E+00
          1   -1    0    0  501    0  0.00000000000E+00  0.00000000000E+00  0.11174738049E+03  0.11174738049E+03  0.00000000000E+00 0. -1.
         -1   -1    0    0    0  501 -0.00000000000E+00 -0.00000000000E+00 -0.15092589488E+03  0.15092589488E+03  0.00000000000E+00 0.  1.
         25    2    1    2    0    0 -0.34644175919E+02 -0.11261508960E+02  0.39811246813E+02  0.13621834907E+03  0.12507382916E+03 0.  0.
          5    1    3    3  502    0 -0.65150293170E+02  0.35037780887E+02  0.29047353749E+02  0.79582837028E+02  0.41800000000E+01 0.  1.
         -5    1    3    3    0  502  0.30506117250E+02 -0.46299289847E+02  0.10763893064E+02  0.56635512039E+02  0.41800000000E+01 0.  1.
        -11    1    1    2    0    0  0.17020408820E+02 -0.38836014843E+02 -0.51323585044E+02  0.66573573940E+02  0.00000000000E+00 0.  1.
         11    1    1    2    0    0  0.17623767099E+02  0.50097523803E+02 -0.27666176157E+02  0.59881352365E+02  0.00000000000E+00 0. -1.
</event>
<event>
 7    1  0.2856214E-009  0.8061018E+02  0.7561462E-02  0.1327329E+00
          1   -1    0    0  501    0  0.00000000000E+00  0.00000000000E+00  0.48220623897E+03  0.48220623897E+03  0.00000000000E+00 0. -1.
         -1   -1    0    0    0  501 -0.00000000000E+00 -0.00000000000E+00 -0.28815607638E+02  0.28815607638E+02  0.00000000000E+00 0.  1.
         25    2    1    2    0    0 -0.12160239882E+01  0.37334034942E+02  0.31647957137E+03  0.34234823328E+03  0.12509070652E+03 0.  0.
          5    1    3    3  502    0 -0.31718366880E+02  0.13081189659E+02  0.29621855706E+03  0.29822823184E+03  0.41800000000E+01 0. -1.
         -5    1    3    3    0  502  0.30502342892E+02  0.24252845283E+02  0.20261014311E+02  0.44120001441E+02  0.41800000000E+01 0. -1.
        -11    1    1    2    0    0 -0.38843473748E+02 -0.21431461669E+02  0.10804872785E+03  0.11680175766E+03  0.00000000000E+00 0.  1.
         11    1    1    2    0    0  0.40059497736E+02 -0.15902573272E+02  0.28862332109E+02  0.51871855667E+02  0.00000000000E+00 0. -1.
</event>
<event>
 7    1  0.2856214E-009  0.9518506E+02  0.7561462E-02  0.1290760E+00
          1   -1    0    0  501    0  0.00000000000E+00  0.00000000000E+00  0.13590988521E+03  0.13590988521E+03  0.00000000000E+00 0. -1.
         -1   -1    0    0    0  501 -0.00000000000E+00 -0.00000000000E+00 -0.11529602658E+03  0.11529602658E+03  0.00000000000E+00 0.  1.
         25    2    1    2    0    0  0.44540114720E+02 -0.43550706024E+02  0.23109685152E+02  0.14164102254E+03  0.12509051085E+03 0.  0.
          5    1    3    3  502    0  0.72481089198E+02 -0.15961197714E+01 -0.19845670972E+02  0.75281996161E+02  0.41800000000E+01 0.  1.
         -5    1    3    3    0  502 -0.27940974478E+02 -0.41954586253E+02  0.42955356125E+02  0.66359026381E+02  0.41800000000E+01 0.  1.
        -11    1    1    2    0    0 -0.24293141662E+02  0.39726989751E+02  0.40610727843E+02  0.61786905267E+02  0.00000000000E+00 0. -1.
         11    1    1    2    0    0 -0.20246973058E+02  0.38237162729E+01 -0.43106554369E+02  0.47777983986E+02  0.00000000000E+00 0.  1.
</event>
<event>
 7    1  0.2856214E-009  0.1378452E+03  0.7561462E-02  0.1216258E+00
         -1   -1    0    0    0  501 -0.00000000000E+00  0.00000000000E+00  0.11814665363E+04  0.11814665363E+04  0.00000000000E+00 0.  1.
          1   -1    0    0  501    0  0.00000000000E+00 -0.00000000000E+00 -0.20003118861E+02  0.20003118861E+02  0.00000000000E+00 0. -1.
         25    2    1    2    0    0 -0.94504311711E+02 -0.51997012774E+02  0.63235195890E+03  0.65356808758E+03  0.12508993125E+03 0.  0.
          5    1    3    3  502    0  0.14018302237E+02 -0.74052877638E+01  0.79437717006E+01  0.18218863667E+02  0.41800000000E+01 0. -1.
         -5    1    3    3    0  502 -0.10852261395E+03 -0.44591725010E+02  0.62440818720E+03  0.63534922391E+03  0.41800000000E+01 0. -1.
        -11    1    1    2    0    0 -0.18687265021E+02  0.50947699095E+01  0.86697965058E+02  0.88835284092E+02  0.00000000000E+00 0.  1.
         11    1    1    2    0    0  0.11319157673E+03  0.46902242865E+02  0.44241349348E+03  0.45906628349E+03  0.00000000000E+00 0. -1.
</event>
<event>
 7    1  0.2856214E-009  0.1323050E+03  0.7561462E-02  0.1224075E+00
          3   -1    0    0  501    0  0.00000000000E+00  0.00000000000E+00  0.88852281681E+02  0.88852281681E+02  0.00000000000E+00 0. -1.
         -3   -1    0    0    0  501 -0.00000000000E+00 -0.00000000000E+00 -0.28501488410E+03  0.28501488410E+03  0.00000000000E+00 0.  1.
         25    2    1    2    0    0 -0.43542523355E+02 -0.74868792483E+02 -0.19498043906E+03  0.24731819282E+03  0.12509048507E+03 0.  0.
          5    1    3    3  502    0 -0.63674241458E+02  0.67310263311E+01 -0.11234644249E+03  0.12937894450E+03  0.41800000000E+01 0.  1.
         -5    1    3    3    0  502  0.20131718102E+02 -0.81599818814E+02 -0.82633996573E+02  0.11793924832E+03  0.41800000000E+01 0.  1.
        -11    1    1    2    0    0  0.47078696925E+02  0.89561908396E+02  0.17326121885E+02  0.10265443799E+03  0.00000000000E+00 0. -1.
         11    1    1    2    0    0 -0.35361735692E+01 -0.14693115913E+02 -0.18508285244E+02  0.23894534970E+02  0.00000000000E+00 0.  1.
</event>
<event>
 7    1  0.2856214E-009  0.7147426E+02  0.7561462E-02  0.1355150E+00
         -2   -1    0    0    0  501 -0.00000000000E+00  0.00000000000E+00  0.24590499096E+03  0.24590499096E+03  0.00000000000E+00 0.  1.
          2   -1    0    0  501    0  0.00000000000E+00 -0.00000000000E+00 -0.47825749924E+02  0.47825749924E+02  0.00000000000E+00 0. -1.
         25    2    1    2    0    0  0.14853274625E+02 -0.23548635124E+01  0.10197710568E+03  0.16209287651E+03  0.12509438590E+03 0.  0.
          5    1    3    3  502    0  0.48360111537E+02 -0.46986523998E+01  0.11570871733E+03  0.12556574926E+03  0.41800000000E+01 0. -1.
         -5    1    3    3    0  502 -0.33506836912E+02  0.23437888875E+01 -0.13731611649E+02  0.36527127244E+02  0.41800000000E+01 0. -1.
        -11    1    1    2    0    0 -0.25015066547E+01  0.29973951334E+02 -0.83416267010E+00  0.30089717870E+02  0.00000000000E+00 0. -1.
         11    1    1    2    0    0 -0.12351767970E+02 -0.27619087822E+02  0.96936298027E+02  0.10154814651E+03  0.00000000000E+00 0.  1.
</event>
<event>
 7    1  0.2856214E-009  0.1537689E+03  0.7561462E-02  0.1195917E+00
         -2   -1    0    0    0  501 -0.00000000000E+00  0.00000000000E+00  0.57140972719E+02  0.57140972719E+02  0.00000000000E+00 0.  1.
          2   -1    0    0  501    0  0.00000000000E+00 -0.00000000000E+00 -0.50860675615E+03  0.50860675615E+03  0.00000000000E+00 0. -1.
         25    2    1    2    0    0 -0.11452344217E+03  0.43349498406E+02 -0.31923798120E+03  0.36408154429E+03  0.12509070483E+03 0.  0.
          5    1    3    3  502    0  0.23944555243E+02  0.12441649293E+02 -0.93702276861E+02  0.97599823011E+02  0.41800000000E+01 0.  1.
         -5    1    3    3    0  502 -0.13846799741E+03  0.30907849113E+02 -0.22553570434E+03  0.26648172128E+03  0.41800000000E+01 0.  1.
        -11    1    1    2    0    0  0.39178884302E+02 -0.49001465364E+02 -0.19015888865E+02  0.65557094295E+02  0.00000000000E+00 0.  1.
         11    1    1    2    0    0  0.75344557865E+02  0.56519669586E+01 -0.11321191337E+03  0.13610909029E+03  0.00000000000E+00 0. -1.
</event>
<event>
 7    1  0.2856214E-009  0.1010932E+03  0.7561462E-02  0.1278014E+00
         -1   -1    0    0    0  501 -0.00000000000E+00  0.00000000000E+00  0.13034455155E+03  0.13034455155E+03  0.00000000000E+00 0. -1.
          1   -1    0    0  501    0  0.00000000000E+00 -0.00000000000E+00 -0.91739079980E+02  0.91739079980E+02  0.00000000000E+00 0.  1.
         25    2    1    2    0    0 -0.17429476334E+02  0.36148606550E+02  0.27359019613E+02  0.13419100334E+03  0.12509276966E+03 0.  0.
          5    1    3    3  502    0 -0.69795968955E+02  0.14980537254E+02  0.29874998747E+02  0.77497624021E+02  0.41800000000E+01 0. -1.
         -5    1    3    3    0  502  0.52366492621E+02  0.21168069296E+02 -0.25159791338E+01  0.56693379315E+02  0.41800000000E+01 0. -1.
        -11    1    1    2    0    0  0.36042119866E+02 -0.31809709449E+01  0.28720688563E+02  0.46195572646E+02  0.00000000000E+00 0. -1.
         11    1    1    2    0    0 -0.18612643532E+02 -0.32967635605E+02 -0.17474236603E+02  0.41697055550E+02  0.00000000000E+00 0.  1.
</event>
<event>
 7    1  0.2856214E-009  0.1265256E+03  0.7561462E-02  0.1232704E+00
         -1   -1    0    0    0  501 -0.00000000000E+00  0.00000000000E+00  0.14841357851E+03  0.14841357851E+03  0.00000000000E+00 0.  1.
          1   -1    0    0  501    0  0.00000000000E+00 -0.00000000000E+00 -0.54847158651E+03  0.54847158651E+03  0.00000000000E+00 0. -1.
         25    2    1    2    0    0  0.10108110693E+03 -0.33515867705E+02 -0.49868260859E+03  0.52504438541E+03  0.12508620619E+03 0.  0.
          5    1    3    3  502    0  0.23868201005E+02 -0.47109696751E+02 -0.37378009768E+03  0.37751562666E+03  0.41800000000E+01 0.  1.
         -5    1    3    3    0  502  0.77212905922E+02  0.13593829047E+02 -0.12490251090E+03  0.14752875875E+03  0.41800000000E+01 0.  1.
        -11    1    1    2    0    0 -0.59478959335E+02  0.49111184188E+02  0.17116724312E+02  0.79010361770E+02  0.00000000000E+00 0. -1.
         11    1    1    2    0    0 -0.41602147592E+02 -0.15595316483E+02  0.81507876275E+02  0.92830417834E+02  0.00000000000E+00 0.  1.
</event>
<event>
 7    1  0.2856214E-009  0.4042109E+03  0.7561462E-02  0.1042331E+00
          1   -1    0    0  501    0  0.00000000000E+00  0.00000000000E+00  0.26844613963E+04  0.26844613963E+04  0.00000000000E+00 0. -1.
         -1   -1    0    0    0  501 -0.00000000000E+00 -0.00000000000E+00 -0.64189488511E+02  0.64189488511E+02  0.00000000000E+00 0.  1.
         25    2    1    2    0    0  0.68872150737E+02  0.38782363114E+03  0.10863008183E+04  0.11622597197E+04  0.12509055222E+03 0.  0.
          5    1    3    3  502    0  0.39662465328E+02  0.37968730253E+03  0.10238045747E+04  0.10926705077E+04  0.41800000000E+01 0. -1.
         -5    1    3    3    0  502  0.29209685409E+02  0.81363286069E+01  0.62496243640E+02  0.69589212052E+02  0.41800000000E+01 0. -1.
        -11    1    1    2    0    0 -0.65577018287E+02 -0.25904776266E+03  0.87288833150E+03  0.91287465072E+03  0.00000000000E+00 0. -1.
         11    1    1    2    0    0 -0.32951324494E+01 -0.12877586848E+03  0.66108275799E+03  0.67351651436E+03  0.00000000000E+00 0.  1.
</event>
<event>
 7    1  0.2977001E-009  0.1420363E+03  0.7561462E-02  0.1210615E+00
          1   -1    0    0  501    0  0.00000000000E+00  0.00000000000E+00  0.86266069457E+02  0.86266069457E+02  0.00000000000E+00 0. -1.
         -1   -1    0    0    0  501 -0.00000000000E+00 -0.00000000000E+00 -0.28540662560E+03  0.28540662560E+03  0.00000000000E+00 0.  1.
         25    2    1    2    0    0 -0.10693874073E+03  0.25621865897E+02 -0.13722996092E+03  0.21580864686E+03  0.12509570579E+03 0.  0.
          5    1    3    3  502    0  0.16080711756E+02  0.36876139517E+02 -0.51033201929E+02  0.65117578698E+02  0.41800000000E+01 0.  1.
         -5    1    3    3    0  502 -0.12301945249E+03 -0.11254273620E+02 -0.86196758987E+02  0.15069106817E+03  0.41800000000E+01 0.  1.
        -11    1    1    2    0    0  0.10057718962E+03 -0.75460850076E+01 -0.80590786307E+02  0.12910301820E+03  0.00000000000E+00 0.  1.
         11    1    1    2    0    0  0.63615511107E+01 -0.18075780889E+02  0.18680191081E+02  0.26761029990E+02  0.00000000000E+00 0. -1.
</event>
<event>
 7    1  0.2856214E-009  0.1700046E+03  0.7561462E-02  0.1177843E+00
          2   -1    0    0  501    0  0.00000000000E+00  0.00000000000E+00  0.28932626801E+03  0.28932626801E+03  0.00000000000E+00 0. -1.
         -2   -1    0    0    0  501 -0.00000000000E+00 -0.00000000000E+00 -0.13336989967E+03  0.13336989967E+03  0.00000000000E+00 0.  1.
         25    2    1    2    0    0  0.43664157298E+02  0.15246743661E+03  0.40969020320E+02  0.20610440525E+03  0.12509071658E+03 0.  0.
          5    1    3    3  502    0  0.65041257768E+02  0.11653187381E+03 -0.16902862452E+02  0.13458537062E+03  0.41800000000E+01 0.  1.
         -5    1    3    3    0  502 -0.21377100470E+02  0.35935562809E+02  0.57871882772E+02  0.71519034630E+02  0.41800000000E+01 0.  1.
        -11    1    1    2    0    0  0.71268087611E+01 -0.45496015949E+02 -0.70018408345E+01  0.46580088508E+02  0.00000000000E+00 0.  1.
         11    1    1    2    0    0 -0.50790966059E+02 -0.10697142067E+03  0.12198918885E+03  0.17001167392E+03  0.00000000000E+00 0. -1.
</event>
<event>
 7    1  0.2856214E-009  0.9375081E+02  0.7561462E-02  0.1294015E+00
          2   -1    0    0  501    0  0.00000000000E+00  0.00000000000E+00  0.66375668311E+03  0.66375668311E+03  0.00000000000E+00 0. -1.
         -2   -1    0    0    0  501 -0.00000000000E+00 -0.00000000000E+00 -0.25325548132E+02  0.25325548132E+02  0.00000000000E+00 0.  1.
         25    2    1    2    0    0  0.23820037143E+02  0.10557588499E+02  0.53274741750E+03  0.54785599626E+03  0.12509006735E+03 0.  0.
          5    1    3    3  502    0  0.64903649611E+02 -0.26884516165E+02  0.34015863619E+03  0.34736239163E+03  0.41800000000E+01 0.  1.
         -5    1    3    3    0  502 -0.41083612468E+02  0.37442104663E+02  0.19258878130E+03  0.20049360463E+03  0.41800000000E+01 0.  1.
        -11    1    1    2    0    0  0.64422628761E+01 -0.26435041063E+02  0.10346159449E+03  0.10697951057E+03  0.00000000000E+00 0. -1.
         11    1    1    2    0    0 -0.30262300020E+02  0.15877452564E+02  0.22221229931E+01  0.34246724412E+02  0.00000000000E+00 0.  1.
</event>
<event>
 7    1  0.2856214E-009  0.1812987E+03  0.7561462E-02  0.1166552E+00
         -1   -1    0    0    0  501 -0.00000000000E+00  0.00000000000E+00  0.34157555357E+03  0.34157555357E+03  0.00000000000E+00 0.  1.
          1   -1    0    0  501    0  0.00000000000E+00 -0.00000000000E+00 -0.16835086189E+03  0.16835086189E+03  0.00000000000E+00 0. -1.
         25    2    1    2    0    0 -0.17629956480E+03  0.10259009361E+02 -0.32974909458E+02  0.21891083803E+03  0.12509127279E+03 0.  0.
          5    1    3    3  502    0 -0.11038772336E+03  0.34347316219E+02 -0.74180994090E+02  0.13742445155E+03  0.41800000000E+01 0.  1.
         -5    1    3    3    0  502 -0.65911841444E+02 -0.24088306859E+02  0.41206084632E+02  0.81486386474E+02  0.41800000000E+01 0.  1.
        -11    1    1    2    0    0  0.14771533276E+02 -0.15219932366E+01 -0.12209680422E+02  0.19224748496E+02  0.00000000000E+00 0. -1.
         11    1    1    2    0    0  0.16152803153E+03 -0.87370161240E+01  0.21840928157E+03  0.27179082894E+03  0.00000000000E+00 0.  1.
</event>
<event>
 7    1  0.2856214E-009  0.9496035E+02  0.7561462E-02  0.1291265E+00
         -1   -1    0    0    0  501 -0.00000000000E+00  0.00000000000E+00  0.83199606381E+02  0.83199606381E+02  0.00000000000E+00 0.  1.
          1   -1    0    0  501    0  0.00000000000E+00 -0.00000000000E+00 -0.26379001053E+03  0.26379001053E+03  0.00000000000E+00 0. -1.
         25    2    1    2    0    0 -0.98370255065E+01  0.10494631519E+01 -0.21458852321E+03  0.24858327152E+03  0.12509012808E+03 0.  0.
          5    1    3    3  502    0  0.47973424300E+02  0.23043412843E+02 -0.51780672602E+02  0.74371760566E+02  0.41800000000E+01 0.  1.
         -5    1    3    3    0  502 -0.57810449807E+02 -0.21993949691E+02 -0.16280785061E+03  0.17421151096E+03  0.41800000000E+01 0.  1.
        -11    1    1    2    0    0 -0.13247105308E+02 -0.32749726549E+02 -0.12596546493E+02  0.37506044468E+02  0.00000000000E+00 0.  1.
         11    1    1    2    0    0  0.23084130815E+02  0.31700263397E+02  0.46594665551E+02  0.60900300925E+02  0.00000000000E+00 0. -1.
</event>
<event>
 7    1  0.2856214E-009  0.7799264E+02  0.7561462E-02  0.1334847E+00
         -1   -1    0    0    0  501 -0.00000000000E+00  0.00000000000E+00  0.35732391182E+03  0.35732391182E+03  0.00000000000E+00 0.  1.
          1   -1    0    0  501    0  0.00000000000E+00 -0.00000000000E+00 -0.48227791364E+02  0.48227791364E+02  0.00000000000E+00 0. -1.
         25    2    1    2    0    0  0.36717297346E+02  0.66051042303E+02  0.16083262904E+03  0.21731243739E+03  0.12508661307E+03 0.  0.
          5    1    3    3  502    0  0.46905745980E+01  0.10995849938E+02  0.15240303824E+03  0.15292831220E+03  0.41800000000E+01 0. -1.
         -5    1    3    3    0  502  0.32026722748E+02  0.55055192365E+02  0.84295907972E+01  0.64384125196E+02  0.41800000000E+01 0. -1.
        -11    1    1    2    0    0 -0.13884751592E+01 -0.26192398632E+02 -0.43600420752E+01  0.26589087541E+02  0.00000000000E+00 0. -1.
         11    1    1    2    0    0 -0.35328822187E+02 -0.39858643670E+02  0.15262353349E+03  0.16165017825E+03  0.00000000000E+00 0.  1.
</event>
<event>
 7    1  0.2856214E-009  0.7294309E+02  0.7561462E-02  0.1350362E+00
          2   -1    0    0  501    0  0.00000000000E+00  0.00000000000E+00  0.95182117387E+02  0.95182117387E+02  0.00000000000E+00 0. -1.
         -2   -1    0    0    0  501 -0.00000000000E+00 -0.00000000000E+00 -0.14420428019E+03  0.14420428019E+03  0.00000000000E+00 0.  1.
         25    2    1    2    0    0  0.20327139435E+02  0.71505313077E+00 -0.68538876052E+01  0.12691448220E+03  0.12508639462E+03 0.  0.
          5    1    3    3  502    0  0.31741740006E+02  0.17529382908E+02 -0.59793663821E+02  0.70054064528E+02  0.41800000000E+01 0. -1.
         -5    1    3    3    0  502 -0.11414600571E+02 -0.16814329778E+02  0.52939776216E+02  0.56860417672E+02  0.41800000000E+01 0. -1.
        -11    1    1    2    0    0  0.34071326534E+02 -0.29047957349E+01  0.11448206633E+02  0.36060429354E+02  0.00000000000E+00 0. -1.
         11    1    1    2    0    0 -0.54398465969E+02  0.21897426041E+01 -0.53616481835E+02  0.76411486027E+02  0.00000000000E+00 0.  1.
</event>
<event>
 7    1  0.2856214E-009  0.4405878E+03  0.7561462E-02  0.1030567E+00
         -2   -1    0    0    0  501 -0.00000000000E+00  0.00000000000E+00  0.24536493969E+03  0.24536493969E+03  0.00000000000E+00 0.  1.
          2   -1    0    0  501    0  0.00000000000E+00 -0.00000000000E+00 -0.90009823002E+03  0.90009823002E+03  0.00000000000E+00 0. -1.
         25    2    1    2    0    0  0.42099014249E+03 -0.79435088222E+02 -0.52418293132E+03  0.68844279755E+03  0.12507240577E+03 0.  0.
          5    1    3    3  502    0  0.40796526271E+03 -0.49316576932E+02 -0.50130841115E+03  0.64822478804E+03  0.41800000000E+01 0.  1.
         -5    1    3    3    0  502  0.13024879787E+02 -0.30118511290E+02 -0.22874520170E+02  0.40218009508E+02  0.41800000000E+01 0.  1.
        -11    1    1    2    0    0 -0.21485484709E+03  0.84674013714E+02 -0.54850809026E+02  0.23736239207E+03  0.00000000000E+00 0. -1.
         11    1    1    2    0    0 -0.20613529540E+03 -0.52389254921E+01 -0.75699549985E+02  0.21965798009E+03  0.00000000000E+00 0.  1.
</event>
<event>
 7    1  0.2856214E-009  0.1317143E+03  0.7561462E-02  0.1224934E+00
          2   -1    0    0  501    0  0.00000000000E+00  0.00000000000E+00  0.31750102301E+03  0.31750102301E+03  0.00000000000E+00 0.  1.
         -2   -1    0    0    0  501 -0.00000000000E+00 -0.00000000000E+00 -0.70163738290E+02  0.70163738290E+02  0.00000000000E+00 0. -1.
         25    2    1    2    0    0  0.98081237873E+01  0.95070561813E+02  0.18291968073E+03  0.24132637390E+03  0.12507676893E+03 0.  0.
          5    1    3    3  502    0  0.53366183715E+02  0.74956272108E+02  0.16679799948E+03  0.19053985757E+03  0.41800000000E+01 0. -1.
         -5    1    3    3    0  502 -0.43558059927E+02  0.20114289705E+02  0.16121681255E+02  0.50786516335E+02  0.41800000000E+01 0. -1.
        -11    1    1    2    0    0  0.33602021481E+02 -0.30661116200E+02  0.92868794613E-01  0.45488553712E+02  0.00000000000E+00 0. -1.
         11    1    1    2    0    0 -0.43410145269E+02 -0.64409445613E+02  0.64324735195E+02  0.10084983369E+03  0.00000000000E+00 0.  1.
</event>
<event>
 7    1  0.2856214E-009  0.1084994E+03  0.7561462E-02  0.1263374E+00
         -1   -1    0    0    0  501 -0.00000000000E+00  0.00000000000E+00  0.34667582242E+02  0.34667582242E+02  0.00000000000E+00 0. -1.
          1   -1    0    0  501    0  0.00000000000E+00 -0.00000000000E+00 -0.36846831717E+03  0.36846831717E+03  0.00000000000E+00 0.  1.
         25    2    1    2    0    0 -0.17685800318E+02  0.28179090331E+02 -0.19020718366E+03  0.23007121493E+03  0.12508853888E+03 0.  0.
          5    1    3    3  502    0 -0.57897498138E+02 -0.22904080803E+02 -0.73545290018E+02  0.96452575351E+02  0.41800000000E+01 0.  1.
         -5    1    3    3    0  502  0.40211697820E+02  0.51083171134E+02 -0.11666189364E+03  0.13361863958E+03  0.41800000000E+01 0.  1.
        -11    1    1    2    0    0  0.19208222275E+02 -0.57225632981E+02 -0.12424008931E+03  0.13812794310E+03  0.00000000000E+00 0.  1.
         11    1    1    2    0    0 -0.15224219565E+01  0.29046542650E+02 -0.19353461952E+02  0.34936741377E+02  0.00000000000E+00 0. -1.
</event>
<event>
 7    1  0.2856214E-009  0.2124963E+03  0.7561462E-02  0.1139604E+00
          2   -1    0    0  501    0  0.00000000000E+00  0.00000000000E+00  0.41493014203E+03  0.41493014203E+03  0.00000000000E+00 0. -1.
         -2   -1    0    0    0  501 -0.00000000000E+00 -0.00000000000E+00 -0.15936372894E+03  0.15936372894E+03  0.00000000000E+00 0.  1.
         25    2    1    2    0    0  0.13156758877E+03 -0.15511556281E+03  0.24704054957E+03  0.34358108142E+03  0.12509219855E+03 0.  0.
          5    1    3    3  502    0  0.12033006953E+02  0.11046247030E+02 -0.61720988369E+01  0.17954944551E+02  0.41800000000E+01 0.  1.
         -5    1    3    3    0  502  0.11953458182E+03 -0.16616180984E+03  0.25321264841E+03  0.32562613687E+03  0.41800000000E+01 0.  1.
        -11    1    1    2    0    0 -0.11356883184E+03  0.13374447965E+03  0.48411672950E+02  0.18201416286E+03  0.00000000000E+00 0. -1.
         11    1    1    2    0    0 -0.17998756931E+02  0.21371083156E+02 -0.39885809435E+02  0.48698626681E+02  0.00000000000E+00 0.  1.
</event>
<event>
 7    1  0.2856214E-009  0.9957100E+02  0.7561462E-02  0.1281201E+00
          1   -1    0    0  501    0  0.00000000000E+00  0.00000000000E+00  0.12872768023E+03  0.12872768023E+03  0.00000000000E+00 0. -1.
         -1   -1    0    0    0  501 -0.00000000000E+00 -0.00000000000E+00 -0.12406918310E+03  0.12406918310E+03  0.00000000000E+00 0.  1.
         25    2    1    2    0    0  0.57083209291E+02  0.42125263512E+01 -0.23354337715E+02  0.13953744415E+03  0.12509610333E+03 0.  0.
          5    1    3    3  502    0  0.95797430248E+02  0.14464301249E+02 -0.20876858092E+02  0.99195157425E+02  0.41800000000E+01 0.  1.
         -5    1    3    3    0  502 -0.38714220957E+02 -0.10251774898E+02 -0.24774796231E+01  0.40342286724E+02  0.41800000000E+01 0.  1.
        -11    1    1    2    0    0 -0.50698152216E+02  0.47256743856E+01  0.60435909085E+02  0.79026158602E+02  0.00000000000E+00 0. -1.
         11    1    1    2    0    0 -0.63850570747E+01 -0.89382007368E+01 -0.32423074245E+02  0.34233260577E+02  0.00000000000E+00 0.  1.
</event>
<event>
 7    1  0.2856214E-009  0.3186615E+03  0.7561462E-02  0.1076267E+00
          2   -1    0    0  501    0  0.00000000000E+00  0.00000000000E+00  0.18040021546E+04  0.18040021546E+04  0.00000000000E+00 0. -1.
         -2   -1    0    0    0  501 -0.00000000000E+00 -0.00000000000E+00 -0.59899082779E+02  0.59899082779E+02  0.00000000000E+00 0.  1.
         25    2    1    2    0    0  0.83394745558E+02 -0.29126664766E+03  0.10734773771E+04  0.11224044506E+04  0.12508848020E+03 0.  0.
          5    1    3    3  502    0 -0.24304145795E+02 -0.10679825882E+02  0.10280982799E+03  0.10626421465E+03  0.41800000000E+01 0.  1.
         -5    1    3    3    0  502  0.10769889135E+03 -0.28058682178E+03  0.97066754915E+03  0.10161402360E+04  0.41800000000E+01 0.  1.
        -11    1    1    2    0    0  0.10664222516E+01  0.10881900880E+03  0.31096675870E+03  0.32945870599E+03  0.00000000000E+00 0.  1.
         11    1    1    2    0    0 -0.84461167809E+02  0.18244763886E+03  0.35965893602E+03  0.41203808082E+03  0.00000000000E+00 0. -1.
</event>
<event>
 7    1  0.2856214E-009  0.1145573E+03  0.7561462E-02  0.1252356E+00
          1   -1    0    0  501    0  0.00000000000E+00  0.00000000000E+00  0.14000439690E+03  0.14000439690E+03  0.00000000000E+00 0. -1.
         -1   -1    0    0    0  501 -0.00000000000E+00 -0.00000000000E+00 -0.97182129105E+02  0.97182129105E+02  0.00000000000E+00 0.  1.
         25    2    1    2    0    0  0.54227423642E+01  0.43711585344E+02  0.31673843414E+02  0.13634731220E+03  0.12508896178E+03 0.  0.
          5    1    3    3  502    0 -0.54623759413E+02 -0.16072877589E+01  0.26356252651E+02  0.60814989272E+02  0.41800000000E+01 0.  1.
         -5    1    3    3    0  502  0.60046501777E+02  0.45318873103E+02  0.53175907624E+01  0.75532322926E+02  0.41800000000E+01 0.  1.
        -11    1    1    2    0    0 -0.43963932560E+02 -0.48506761709E+01 -0.29232670508E+01  0.44327214166E+02  0.00000000000E+00 0. -1.
         11    1    1    2    0    0  0.38541190196E+02 -0.38860909173E+02  0.14071691429E+02  0.56511999638E+02  0.00000000000E+00 0.  1.
</event>
<event>
 7    1  0.2856214E-009  0.2537420E+03  0.7561462E-02  0.1110963E+00
          4   -1    0    0  501    0  0.00000000000E+00  0.00000000000E+00  0.78695159138E+02  0.78695159138E+02  0.00000000000E+00 0. -1.
         -4   -1    0    0    0  501 -0.00000000000E+00 -0.00000000000E+00 -0.10707947292E+04  0.10707947292E+04  0.00000000000E+00 0.  1.
         25    2    1    2    0    0  0.44018594897E+02  0.22943224269E+03 -0.24312070474E+03  0.35962923775E+03  0.12509484757E+03 0.  0.
          5    1    3    3  502    0  0.84724041157E+02  0.13514641995E+03 -0.17215029889E+03  0.23472519205E+03  0.41800000000E+01 0.  1.
         -5    1    3    3    0  502 -0.40705446259E+02  0.94285822741E+02 -0.70970405844E+02  0.12490404569E+03  0.41800000000E+01 0.  1.
        -11    1    1    2    0    0 -0.62596834624E+02 -0.20561899166E+03 -0.58752909330E+03  0.62561007737E+03  0.00000000000E+00 0. -1.
         11    1    1    2    0    0  0.18578239727E+02 -0.23813251023E+02 -0.16144977200E+03  0.16425057319E+03  0.00000000000E+00 0.  1.
</event>
<event>
 7    1  0.2856214E-009  0.1090369E+03  0.7561462E-02  0.1262364E+00
         -2   -1    0    0    0  501 -0.00000000000E+00  0.00000000000E+00  0.68504136775E+02  0.68504136775E+02  0.00000000000E+00 0.  1.
          2   -1    0    0  501    0  0.00000000000E+00 -0.00000000000E+00 -0.40433252093E+03  0.40433252093E+03  0.00000000000E+00 0. -1.
         25    2    1    2    0    0  0.55022686055E+02 -0.31889143381E+02 -0.33818080041E+03  0.36613879231E+03  0.12508776128E+03 0.  0.
          5    1    3    3  502    0  0.15563464832E+02  0.37455964564E+02 -0.38818590238E+02  0.56298544094E+02  0.41800000000E+01 0.  1.
         -5    1    3    3    0  502  0.39459221224E+02 -0.69345107945E+02 -0.29936221017E+03  0.30984024821E+03  0.41800000000E+01 0.  1.
        -11    1    1    2    0    0 -0.71285938441E+02  0.12972748023E+02  0.21129185648E+02  0.75474629491E+02  0.00000000000E+00 0.  1.
         11    1    1    2    0    0  0.16263252386E+02  0.18916395358E+02 -0.18776769393E+02  0.31223235904E+02  0.00000000000E+00 0. -1.
</event>
<event>
 7    1  0.2856214E-009  0.1089015E+03  0.7561462E-02  0.1262618E+00
          2   -1    0    0  501    0  0.00000000000E+00  0.00000000000E+00  0.10829315952E+04  0.10829315952E+04  0.00000000000E+00 0. -1.
         -2   -1    0    0    0  501 -0.00000000000E+00 -0.00000000000E+00 -0.16344034181E+02  0.16344034181E+02  0.00000000000E+00 0.  1.
         25    2    1    2    0    0 -0.28279811478E+02 -0.87170556445E+02  0.64624592449E+03  0.66459144955E+03  0.12509814647E+03 0.  0.
          5    1    3    3  502    0  0.16531589715E+02 -0.26826263007E+02  0.49129271763E+03  0.49231996571E+03  0.41800000000E+01 0. -1.
         -5    1    3    3    0  502 -0.44811401193E+02 -0.60344293437E+02  0.15495320686E+03  0.17227148384E+03  0.41800000000E+01 0. -1.
        -11    1    1    2    0    0 -0.19778691764E+02  0.19844793262E+02  0.10501579949E+03  0.10868914669E+03  0.00000000000E+00 0.  1.
         11    1    1    2    0    0  0.48058503242E+02  0.67325763183E+02  0.31532583706E+03  0.32599503315E+03  0.00000000000E+00 0. -1.
</event>
<event>
 7    1  0.2856214E-009  0.2164697E+03  0.7561462E-02  0.1136543E+00
         -2   -1    0    0    0  501 -0.00000000000E+00  0.00000000000E+00  0.72782230288E+02  0.72782230288E+02  0.00000000000E+00 0. -1.
          2   -1    0    0  501    0  0.00000000000E+00 -0.00000000000E+00 -0.75279884045E+03  0.75279884045E+03  0.00000000000E+00 0.  1.
         25    2    1    2    0    0  0.11541995314E+03  0.16933769554E+03 -0.29694544929E+03  0.38186460772E+03  0.12508780142E+03 0.  0.
          5    1    3    3  502    0  0.70562347128E+02  0.16276500759E+03 -0.16509344597E+03  0.24237328819E+03  0.41800000000E+01 0. -1.
         -5    1    3    3    0  502  0.44857606013E+02  0.65726879477E+01 -0.13185200332E+03  0.13949131953E+03  0.41800000000E+01 0. -1.
        -11    1    1    2    0    0 -0.51299423176E+02 -0.11495619136E+03 -0.14930674795E+03  0.19529224699E+03  0.00000000000E+00 0. -1.
         11    1    1    2    0    0 -0.64120529965E+02 -0.54381504177E+02 -0.23376441293E+03  0.24842421603E+03  0.00000000000E+00 0.  1.
</event>
<event>
 7    1  0.2856214E-009  0.2872264E+03  0.7561462E-02  0.1091806E+00
          2   -1    0    0  501    0  0.00000000000E+00  0.00000000000E+00  0.84393746908E+03  0.84393746908E+03  0.00000000000E+00 0. -1.
         -2   -1    0    0    0  501 -0.00000000000E+00 -0.00000000000E+00 -0.10561403717E+03  0.10561403717E+03  0.00000000000E+00 0.  1.
         25    2    1    2    0    0 -0.12699880642E+03  0.24686077813E+03  0.34307080643E+03  0.45870913334E+03  0.12509016820E+03 0.  0.
          5    1    3    3  502    0  0.22756976352E+01  0.46932770086E+02  0.83120477481E+01  0.47900169577E+02  0.41800000000E+01 0. -1.
         -5    1    3    3    0  502 -0.12927450405E+03  0.19992800804E+03  0.33475875868E+03  0.41080896377E+03  0.41800000000E+01 0. -1.
        -11    1    1    2    0    0  0.86139055973E+01 -0.10071099162E+03  0.16546897171E+03  0.19389915885E+03  0.00000000000E+00 0. -1.
         11    1    1    2    0    0  0.11838490082E+03 -0.14614978651E+03  0.22978365377E+03  0.29694321407E+03  0.00000000000E+00 0.  1.
</event>
<event>
 7    1  0.2856214E-009  0.9818738E+02  0.7561462E-02  0.1284154E+00
         -1   -1    0    0    0  501 -0.00000000000E+00  0.00000000000E+00  0.11652142789E+03  0.11652142789E+03  0.00000000000E+00 0.  1.
          1   -1    0    0  501    0  0.00000000000E+00 -0.00000000000E+00 -0.16541628434E+03  0.16541628434E+03  0.00000000000E+00 0. -1.
         25    2    1    2    0    0  0.33412406799E+02 -0.65225784219E+02  0.20336265679E+02  0.14639666060E+03  0.12509047397E+03 0.  0.
          5    1    3    3  502    0  0.44475224398E+02 -0.27642500595E+01 -0.39053542155E+02  0.59399816654E+02  0.41800000000E+01 0.  1.
         -5    1    3    3    0  502 -0.11062817599E+02 -0.62461534159E+02  0.59389807834E+02  0.86996843950E+02  0.41800000000E+01 0.  1.
        -11    1    1    2    0    0 -0.34496402778E+02  0.14680983047E+02 -0.75795174147E+02  0.84560283182E+02  0.00000000000E+00 0. -1.
         11    1    1    2    0    0  0.10839959790E+01  0.50544801172E+02  0.65640520165E+01  0.50980768449E+02  0.00000000000E+00 0.  1.
</event>
<event>
 7    1  0.2856214E-009  0.1094095E+03  0.7561462E-02  0.1261667E+00
          1   -1    0    0  501    0  0.00000000000E+00  0.00000000000E+00  0.18673255342E+03  0.18673255342E+03  0.00000000000E+00 0. -1.
         -1   -1    0    0    0  501 -0.00000000000E+00 -0.00000000000E+00 -0.74561611776E+02  0.74561611776E+02  0.00000000000E+00 0.  1.
         25    2    1    2    0    0  0.54065698302E+02  0.29710402980E+02  0.36372675047E+02  0.14413846254E+03  0.12508843718E+03 0.  0.
          5    1    3    3  502    0  0.50641809957E+02 -0.39587089815E+02 -0.25688389142E+01  0.64465509609E+02  0.41800000000E+01 0.  1.
         -5    1    3    3    0  502  0.34238883448E+01  0.69297492795E+02  0.38941513962E+02  0.79672952931E+02  0.41800000000E+01 0.  1.
        -11    1    1    2    0    0 -0.52788388055E+02 -0.45114335053E+02  0.74187080796E+02  0.10161515683E+03  0.00000000000E+00 0. -1.
         11    1    1    2    0    0 -0.12773102472E+01  0.15403932073E+02  0.16111857961E+01  0.15540545822E+02  0.00000000000E+00 0.  1.
</event>
<event>
 7    1  0.2856214E-009  0.1667353E+03  0.7561462E-02  0.1181296E+00
         -2   -1    0    0    0  501 -0.00000000000E+00  0.00000000000E+00  0.60045956710E+02  0.60045956710E+02  0.00000000000E+00 0.  1.
          2   -1    0    0  501    0  0.00000000000E+00 -0.00000000000E+00 -0.67898181834E+03  0.67898181834E+03  0.00000000000E+00 0. -1.
         25    2    1    2    0    0 -0.66457891753E+02  0.12469699853E+03 -0.49730557866E+03  0.53190783558E+03  0.12508842538E+03 0.  0.
          5    1    3    3  502    0 -0.35194414264E+02 -0.17852118216E+02 -0.71585356023E+02  0.81849132660E+02  0.41800000000E+01 0.  1.
         -5    1    3    3    0  502 -0.31263477489E+02  0.14254911674E+03 -0.42572022264E+03  0.45005870292E+03  0.41800000000E+01 0.  1.
        -11    1    1    2    0    0  0.56469592903E+02 -0.60262928132E+02 -0.17750521045E+02  0.84471986049E+02  0.00000000000E+00 0.  1.
         11    1    1    2    0    0  0.99882988499E+01 -0.64434070396E+02 -0.10387976193E+03  0.12264795343E+03  0.00000000000E+00 0. -1.
</event>
<event>
 7    1  0.2856214E-009  0.8536334E+02  0.7561462E-02  0.1314485E+00
          2   -1    0    0  501    0  0.00000000000E+00  0.00000000000E+00  0.83372169115E+03  0.83372169115E+03  0.00000000000E+00 0. -1.
         -2   -1    0    0    0  501 -0.00000000000E+00 -0.00000000000E+00 -0.30997101346E+02  0.30997101346E+02  0.00000000000E+00 0.  1.
         25    2    1    2    0    0 -0.34974751180E+02  0.72502361747E+02  0.64868367727E+03  0.66552075599E+03  0.12509011878E+03 0.  0.
          5    1    3    3  502    0 -0.35951715369E+01  0.29380087650E+02  0.23425016510E+02  0.37977869967E+02  0.41800000000E+01 0. -1.
         -5    1    3    3    0  502 -0.31379579643E+02  0.43122274096E+02  0.62525866076E+03  0.62754288602E+03  0.41800000000E+01 0. -1.
        -11    1    1    2    0    0 -0.23585047239E+01 -0.32636790824E+02  0.13864260505E+03  0.14245172725E+03  0.00000000000E+00 0. -1.
         11    1    1    2    0    0  0.37333255904E+02 -0.39865570923E+02  0.15398307482E+02  0.56746309261E+02  0.00000000000E+00 0.  1.
</event>
<event>
 7    1  0.2856214E-009  0.1565018E+03  0.7561462E-02  0.1192704E+00
          4   -1    0    0  501    0  0.00000000000E+00  0.00000000000E+00  0.44129398201E+03  0.44129398201E+03  0.00000000000E+00 0. -1.
         -4   -1    0    0    0  501 -0.00000000000E+00 -0.00000000000E+00 -0.71988031740E+02  0.71988031740E+02  0.00000000000E+00 0.  1.
         25    2    1    2    0    0 -0.54949084169E+01  0.13840217629E+03  0.15474439421E+03  0.24244355231E+03  0.12509073545E+03 0.  0.
          5    1    3    3  502    0 -0.29522904757E+02  0.14257614171E+02 -0.10178341030E+02  0.34582546079E+02  0.41800000000E+01 0.  1.
         -5    1    3    3    0  502  0.24027996340E+02  0.12414456212E+03  0.16492273524E+03  0.20786100623E+03  0.41800000000E+01 0.  1.
        -11    1    1    2    0    0 -0.27437544259E+02 -0.32512472160E+02  0.11192553532E+03  0.11973806888E+03  0.00000000000E+00 0. -1.
         11    1    1    2    0    0  0.32932452676E+02 -0.10588970413E+03  0.10263602074E+03  0.15110039256E+03  0.00000000000E+00 0.  1.
</event>
<event>
 7    1  0.2856214E-009  0.9980320E+02  0.7561462E-02  0.1280710E+00
         -2   -1    0    0    0  501 -0.00000000000E+00  0.00000000000E+00  0.10198086844E+03  0.10198086844E+03  0.00000000000E+00 0. -1.
          2   -1    0    0  501    0  0.00000000000E+00 -0.00000000000E+00 -0.18579710733E+03  0.18579710733E+03  0.00000000000E+00 0.  1.
         25    2    1    2    0    0 -0.47341411765E+01 -0.19812112935E+02 -0.13090607322E+03  0.18220561193E+03  0.12509017987E+03 0.  0.
          5    1    3    3  502    0 -0.53100800939E+02 -0.45742461748E+02 -0.59372515300E+02  0.91949093743E+02  0.41800000000E+01 0. -1.
         -5    1    3    3    0  502  0.48366659763E+02  0.25930348813E+02 -0.71533557922E+02  0.90256518187E+02  0.41800000000E+01 0. -1.
        -11    1    1    2    0    0  0.20551199506E+01 -0.27195857765E+02  0.51506202713E+02  0.58281447438E+02  0.00000000000E+00 0. -1.
         11    1    1    2    0    0  0.26790212259E+01  0.47007970699E+02 -0.44163683798E+01  0.47290916397E+02  0.00000000000E+00 0.  1.
</event>
<event>
 7    1  0.2856214E-009  0.1003454E+03  0.7561462E-02  0.1279571E+00
          2   -1    0    0  501    0  0.00000000000E+00  0.00000000000E+00  0.40939149712E+02  0.40939149712E+02  0.00000000000E+00 0.  1.
         -2   -1    0    0    0  501 -0.00000000000E+00 -0.00000000000E+00 -0.39272117032E+03  0.39272117032E+03  0.00000000000E+00 0. -1.
         25    2    1    2    0    0  0.25606399373E+02 -0.40038104906E+02 -0.11879216564E+03  0.17893464754E+03  0.12508913598E+03 0.  0.
          5    1    3    3  502    0  0.15843663173E+02  0.26221416685E+02 -0.10626256733E+03  0.11066973377E+03  0.41800000000E+01 0. -1.
         -5    1    3    3    0  502  0.97627361999E+01 -0.66259521590E+02 -0.12529598310E+02  0.68264913779E+02  0.41800000000E+01 0. -1.
        -11    1    1    2    0    0 -0.52414886823E+02 -0.23990670386E+01 -0.12869557099E+03  0.13898066728E+03  0.00000000000E+00 0. -1.
         11    1    1    2    0    0  0.26808487450E+02  0.42437171944E+02 -0.10429428397E+03  0.11574500521E+03  0.00000000000E+00 0.  1.
</event>
<event>
 7    1  0.2856214E-009  0.1208609E+03  0.7561462E-02  0.1241683E+00
         -1   -1    0    0    0  501 -0.00000000000E+00  0.00000000000E+00  0.54166146593E+02  0.54166146593E+02  0.00000000000E+00 0.  1.
          1   -1    0    0  501    0  0.00000000000E+00 -0.00000000000E+00 -0.33210809630E+03  0.33210809630E+03  0.00000000000E+00 0. -1.
         25    2    1    2    0    0 -0.72395178417E+02 -0.24933939929E+02 -0.18775990477E+03  0.23825173268E+03  0.12508934036E+03 0.  0.
          5    1    3    3  502    0 -0.27530573333E+02 -0.70142271338E+02 -0.13811898322E+03  0.15739185691E+03  0.41800000000E+01 0.  1.
         -5    1    3    3    0  502 -0.44864605084E+02  0.45208331409E+02 -0.49640921547E+02  0.80859875774E+02  0.41800000000E+01 0.  1.
        -11    1    1    2    0    0  0.82020500706E+02  0.34384699068E+02 -0.42689142919E+02  0.98651066842E+02  0.00000000000E+00 0.  1.
         11    1    1    2    0    0 -0.96253222881E+01 -0.94507591384E+01 -0.47492902020E+02  0.49371443362E+02  0.00000000000E+00 0. -1.
</event>
<event>
 7    1  0.2856214E-009  0.8830937E+02  0.7561462E-02  0.1306998E+00
         -2   -1    0    0    0  501 -0.00000000000E+00  0.00000000000E+00  0.68693657568E+03  0.68693657568E+03  0.00000000000E+00 0.  1.
          2   -1    0    0  501    0  0.00000000000E+00 -0.00000000000E+00 -0.25333897617E+02  0.25333897617E+02  0.00000000000E+00 0. -1.
         25    2    1    2    0    0 -0.60289059939E+02 -0.40572848301E+02  0.42304558377E+03  0.44709689275E+03  0.12508852383E+03 0.  0.
          5    1    3    3  502    0 -0.47437239304E+02 -0.26833252383E+02  0.51654843211E+02  0.75206451408E+02  0.41800000000E+01 0.  1.
         -5    1    3    3    0  502 -0.12851820635E+02 -0.13739595918E+02  0.37139074056E+03  0.37189044135E+03  0.41800000000E+01 0.  1.
        -11    1    1    2    0    0  0.13487575215E+02  0.52650911622E+02  0.18596174148E+03  0.19374158685E+03  0.00000000000E+00 0.  1.
         11    1    1    2    0    0  0.46801484724E+02 -0.12078063321E+02  0.52595352805E+02  0.71431993690E+02  0.00000000000E+00 0. -1.
</event>
<event>
 7    1  0.2856214E-009  0.1222387E+03  0.7561462E-02  0.1239449E+00
          1   -1    0    0  501    0  0.00000000000E+00  0.00000000000E+00  0.25846072515E+03  0.25846072515E+03  0.00000000000E+00 0. -1.
         -1   -1    0    0    0  501 -0.00000000000E+00 -0.00000000000E+00 -0.62175902584E+02  0.62175902584E+02  0.00000000000E+00 0.  1.
         25    2    1    2    0    0 -0.37183859862E+02  0.55213355867E+02  0.11067117770E+03  0.17979524063E+03  0.12508822838E+03 0.  0.
          5    1    3    3  502    0 -0.27979645783E+02  0.93660146248E+02  0.57769091105E+02  0.11362140582E+03  0.41800000000E+01 0.  1.
         -5    1    3    3    0  502 -0.92042140788E+01 -0.38446790381E+02  0.52902086598E+02  0.66173834813E+02  0.41800000000E+01 0.  1.
        -11    1    1    2    0    0  0.43401583947E+02  0.73443139127E+01  0.15492105222E+02  0.46665209313E+02  0.00000000000E+00 0.  1.
         11    1    1    2    0    0 -0.62177240853E+01 -0.62557669779E+02  0.70121539638E+02  0.94176177785E+02  0.00000000000E+00 0. -1.
</event>
<event>
 7    1  0.2856214E-009  0.1145487E+03  0.7561462E-02  0.1252371E+00
          1   -1    0    0  501    0  0.00000000000E+00  0.00000000000E+00  0.26061871641E+03  0.26061871641E+03  0.00000000000E+00 0. -1.
         -1   -1    0    0    0  501 -0.00000000000E+00 -0.00000000000E+00 -0.10631969362E+03  0.10631969362E+03  0.00000000000E+00 0.  1.
         25    2    1    2    0    0 -0.36072484652E+02  0.68986246119E+02  0.18970896202E+03  0.24020234416E+03  0.12508936632E+03 0.  0.
          5    1    3    3  502    0  0.96798958298E+01 -0.11239090027E+02  0.12828638720E+03  0.12920869579E+03  0.41800000000E+01 0.  1.
         -5    1    3    3    0  502 -0.45752380481E+02  0.80225336146E+02  0.61422574820E+02  0.11099364836E+03  0.41800000000E+01 0.  1.
        -11    1    1    2    0    0  0.66888285010E+02 -0.35482330824E+02 -0.16799737865E+02  0.77558169555E+02  0.00000000000E+00 0.  1.
         11    1    1    2    0    0 -0.30815800359E+02 -0.33503915295E+02 -0.18610201363E+02  0.49177896322E+02  0.00000000000E+00 0. -1.
</event>
<event>
 7    1  0.2856214E-009  0.1422202E+03  0.7561462E-02  0.1210372E+00
         -1   -1    0    0    0  501 -0.00000000000E+00  0.00000000000E+00  0.18779380587E+02  0.18779380587E+02  0.00000000000E+00 0.  1.
          1   -1    0    0  501    0  0.00000000000E+00 -0.00000000000E+00 -0.12449129732E+04  0.12449129732E+04  0.00000000000E+00 0. -1.
         25    2    1    2    0    0 -0.60766083100E+02  0.87892778458E+02 -0.70661832877E+03  0.72551661774E+03  0.12508893917E+03 0.  0.
          5    1    3    3  502    0 -0.61143300804E+01  0.89133968892E+02 -0.58894835883E+03  0.59570117610E+03  0.41800000000E+01 0. -1.
         -5    1    3    3    0  502 -0.54651753020E+02 -0.12411904330E+01 -0.11766996994E+03  0.12981544164E+03  0.41800000000E+01 0. -1.
        -11    1    1    2    0    0  0.61853182173E+01 -0.85307866418E+02 -0.29918253812E+03  0.31116857385E+03  0.00000000000E+00 0. -1.
         11    1    1    2    0    0  0.54580764883E+02 -0.25849120405E+01 -0.22033272577E+03  0.22700716224E+03  0.00000000000E+00 0.  1.
</event>
<event>
 7    1  0.2856214E-009  0.9049159E+02  0.7561462E-02  0.1301666E+00
         -2   -1    0    0    0  501 -0.00000000000E+00  0.00000000000E+00  0.16467175419E+03  0.16467175419E+03  0.00000000000E+00 0.  1.
          2   -1    0    0  501    0  0.00000000000E+00 -0.00000000000E+00 -0.10937685061E+03  0.10937685061E+03  0.00000000000E+00 0. -1.
         25    2    1    2    0    0 -0.18302436365E+02 -0.21007104801E+02  0.10504353178E+03  0.16570497495E+03  0.12509083709E+03 0.  0.
          5    1    3    3  502    0 -0.24607415186E+02  0.30140733440E+02  0.10703266564E+03  0.11396250527E+03  0.41800000000E+01 0. -1.
         -5    1    3    3    0  502  0.63049788212E+01 -0.51147838241E+02 -0.19891338536E+01  0.51742469676E+02  0.41800000000E+01 0. -1.
        -11    1    1    2    0    0 -0.22571629934E+02 -0.21501283275E+02  0.26700471992E-01  0.31173456229E+02  0.00000000000E+00 0.  1.
         11    1    1    2    0    0  0.40874066299E+02  0.42508388076E+02 -0.49775328675E+02  0.77170173625E+02  0.00000000000E+00 0. -1.
</event>
<event>
 7    1  0.2856214E-009  0.8560168E+02  0.7561462E-02  0.1313867E+00
         -2   -1    0    0    0  501 -0.00000000000E+00  0.00000000000E+00  0.58056290016E+03  0.58056290016E+03  0.00000000000E+00 0.  1.
          2   -1    0    0  501    0  0.00000000000E+00 -0.00000000000E+00 -0.30922032777E+02  0.30922032777E+02  0.00000000000E+00 0. -1.
         25    2    1    2    0    0  0.28529911506E+01  0.60978159279E+02  0.41044296006E+03  0.43340201024E+03  0.12508958209E+03 0.  0.
          5    1    3    3  502    0  0.32810669864E+02  0.60190558596E+02  0.39198962629E+03  0.39796078063E+03  0.41800000000E+01 0. -1.
         -5    1    3    3    0  502 -0.29957678713E+02  0.78760068253E+00  0.18453333768E+02  0.35441229605E+02  0.41800000000E+01 0. -1.
        -11    1    1    2    0    0 -0.10575344788E+02  0.22426605729E+00 -0.11272628842E+02  0.15458343173E+02  0.00000000000E+00 0. -1.
         11    1    1    2    0    0  0.77223536372E+01 -0.61202425336E+02  0.15047053616E+03  0.16262457953E+03  0.00000000000E+00 0.  1.
</event>
<event>
 7    1  0.2856214E-009  0.1358521E+03  0.7561462E-02  0.1219022E+00
         -2   -1    0    0    0  501 -0.00000000000E+00  0.00000000000E+00  0.25395563562E+03  0.25395563562E+03  0.00000000000E+00 0.  1.
          2   -1    0    0  501    0  0.00000000000E+00 -0.00000000000E+00 -0.91391273296E+02  0.91391273296E+02  0.00000000000E+00 0. -1.
         25    2    1    2    0    0 -0.86549039658E+02 -0.57049358609E+02  0.11965179339E+03  0.20176970434E+03  0.12509634825E+03 0.  0.
          5    1    3    3  502    0 -0.20202183852E+02 -0.64584161218E+02  0.11649897490E+03  0.13479141540E+03  0.41800000000E+01 0.  1.
         -5    1    3    3    0  502 -0.66346855806E+02  0.75348026089E+01  0.31528184957E+01  0.66978288946E+02  0.41800000000E+01 0.  1.
        -11    1    1    2    0    0  0.21582263183E+02  0.67798826157E+02  0.21291632472E+02  0.74268489454E+02  0.00000000000E+00 0. -1.
         11    1    1    2    0    0  0.64966776475E+02 -0.10749467548E+02  0.21620936458E+02  0.69308715119E+02  0.00000000000E+00 0.  1.
</event>
<event>
 7    1  0.2856214E-009  0.9750962E+02  0.7561462E-02  0.1285622E+00
         -1   -1    0    0    0  501 -0.00000000000E+00  0.00000000000E+00  0.16644979649E+03  0.16644979649E+03  0.00000000000E+00 0.  1.
          1   -1    0    0  501    0  0.00000000000E+00 -0.00000000000E+00 -0.10911322269E+03  0.10911322269E+03  0.00000000000E+00 0. -1.
         25    2    1    2    0    0 -0.66835539418E+02  0.14002131845E+02  0.72597762980E+02  0.15993822628E+03  0.12508697778E+03 0.  0.
          5    1    3    3  502    0  0.14958528731E+02  0.37770215628E+02 -0.90994403233E+01  0.41840398954E+02  0.41800000000E+01 0. -1.
         -5    1    3    3    0  502 -0.81794068149E+02 -0.23768083784E+02  0.81697203304E+02  0.11809782732E+03  0.41800000000E+01 0. -1.
        -11    1    1    2    0    0  0.13417488281E+02 -0.66620894713E+01  0.37379503442E+02  0.40269587848E+02  0.00000000000E+00 0.  1.
         11    1    1    2    0    0  0.53418051138E+02 -0.73400423732E+01 -0.52640692621E+02  0.75355205056E+02  0.00000000000E+00 0. -1.
</event>
<event>
 7    1  0.2856214E-009  0.1356648E+03  0.7561462E-02  0.1219284E+00
          2   -1    0    0  501    0  0.00000000000E+00  0.00000000000E+00  0.49098266777E+03  0.49098266777E+03  0.00000000000E+00 0.  1.
         -2   -1    0    0    0  501 -0.00000000000E+00 -0.00000000000E+00 -0.47307066233E+02  0.47307066233E+02  0.00000000000E+00 0. -1.
         25    2    1    2    0    0 -0.90565269865E+02 -0.46184719555E+02  0.29585396935E+03  0.33691579165E+03  0.12509029962E+03 0.  0.
          5    1    3    3  502    0  0.19053596210E+02 -0.13714723418E+02  0.14830998587E+03  0.15021470459E+03  0.41800000000E+01 0. -1.
         -5    1    3    3    0  502 -0.10961886607E+03 -0.32469996137E+02  0.14754398348E+03  0.18670108706E+03  0.41800000000E+01 0. -1.
        -11    1    1    2    0    0  0.96377811125E+02  0.10525154345E+02  0.85155845265E+02  0.12903867379E+03  0.00000000000E+00 0.  1.
         11    1    1    2    0    0 -0.58125412600E+01  0.35659565210E+02  0.62665786927E+02  0.72335268563E+02  0.00000000000E+00 0. -1.
</event>
<event>
 7    1  0.2856214E-009  0.1095084E+03  0.7561462E-02  0.1261483E+00
         -2   -1    0    0    0  501 -0.00000000000E+00  0.00000000000E+00  0.29872359837E+02  0.29872359837E+02  0.00000000000E+00 0.  1.
          2   -1    0    0  501    0  0.00000000000E+00 -0.00000000000E+00 -0.69321137924E+03  0.69321137924E+03  0.00000000000E+00 0. -1.
         25    2    1    2    0    0 -0.12026496315E+02 -0.93464930922E+02 -0.35096090142E+03  0.38431814287E+03  0.12508617306E+03 0.  0.
          5    1    3    3  502    0 -0.33315704607E+02 -0.93855169527E+02 -0.34850518199E+03  0.36248043160E+03  0.41800000000E+01 0.  1.
         -5    1    3    3    0  502  0.21289208292E+02  0.39023860478E+00 -0.24557194367E+01  0.21837711277E+02  0.41800000000E+01 0.  1.
        -11    1    1    2    0    0  0.18337717256E+02  0.42560089286E+02 -0.26472796599E+03  0.26875365867E+03  0.00000000000E+00 0. -1.
         11    1    1    2    0    0 -0.63112209410E+01  0.50904841636E+02 -0.47650151998E+02  0.70011937533E+02  0.00000000000E+00 0.  1.
</event>
<event>
 7    1  0.2856214E-009  0.1247547E+03  0.7561462E-02  0.1235453E+00
         -2   -1    0    0    0  501 -0.00000000000E+00  0.00000000000E+00  0.19901646762E+02  0.19901646762E+02  0.00000000000E+00 0.  1.
          2   -1    0    0  501    0  0.00000000000E+00 -0.00000000000E+00 -0.13245084566E+04  0.13245084566E+04  0.00000000000E+00 0. -1.
         25    2    1    2    0    0 -0.26756258029E+02 -0.11166655299E+03 -0.86765328956E+03  0.88411239702E+03  0.12508870165E+03 0.  0.
          5    1    3    3  502    0 -0.88056050112E+01 -0.89003222205E+02 -0.24623902161E+03  0.26201190890E+03  0.41800000000E+01 0. -1.
         -5    1    3    3    0  502 -0.17950653018E+02 -0.22663330783E+02 -0.62141426795E+03  0.62210048812E+03  0.41800000000E+01 0. -1.
        -11    1    1    2    0    0  0.42246834815E+02  0.10626852828E+03 -0.42468668805E+03  0.43981425416E+03  0.00000000000E+00 0. -1.
         11    1    1    2    0    0 -0.15490576785E+02  0.53980247115E+01 -0.12266832195E+02  0.20483452151E+02  0.00000000000E+00 0.  1.
</event>
<event>
 7    1  0.2856214E-009  0.1086522E+03  0.7561462E-02  0.1263086E+00
          1   -1    0    0  501    0  0.00000000000E+00  0.00000000000E+00  0.43604536822E+03  0.43604536822E+03  0.00000000000E+00 0. -1.
         -1   -1    0    0    0  501 -0.00000000000E+00 -0.00000000000E+00 -0.28255000273E+02  0.28255000273E+02  0.00000000000E+00 0.  1.
         25    2    1    2    0    0  0.34813487011E+01  0.28496974895E+02  0.21887840888E+03  0.25372396435E+03  0.12507555654E+03 0.  0.
          5    1    3    3  502    0  0.18147049980E+01  0.76221000389E+02  0.16369430875E+03  0.18062733229E+03  0.41800000000E+01 0.  1.
         -5    1    3    3    0  502  0.16666437031E+01 -0.47724025493E+02  0.55184100131E+02  0.73096632055E+02  0.41800000000E+01 0.  1.
        -11    1    1    2    0    0 -0.20482620517E+02 -0.56585528837E+02  0.12424733479E+03  0.13805383016E+03  0.00000000000E+00 0. -1.
         11    1    1    2    0    0  0.17001271816E+02  0.28088553941E+02  0.64664624274E+02  0.72522573992E+02  0.00000000000E+00 0.  1.
</event>
<event>
 7    1  0.2856214E-009  0.1439565E+03  0.7561462E-02  0.1208102E+00
          2   -1    0    0  501    0  0.00000000000E+00  0.00000000000E+00  0.17331147595E+04  0.17331147595E+04  0.00000000000E+00 0. -1.
         -2   -1    0    0    0  501 -0.00000000000E+00 -0.00000000000E+00 -0.20112886384E+02  0.20112886384E+02  0.00000000000E+00 0.  1.
         25    2    1    2    0    0  0.68631817482E+02  0.95296892208E+02  0.13524823228E+04  0.13633221677E+04  0.12508827044E+03 0.  0.
          5    1    3    3  502    0  0.17327924910E+02 -0.29663599631E+02  0.36451360511E+03  0.36615273703E+03  0.41800000000E+01 0.  1.
         -5    1    3    3    0  502  0.51303892572E+02  0.12496049184E+03  0.98796871768E+03  0.99716943066E+03  0.41800000000E+01 0.  1.
        -11    1    1    2    0    0 -0.57057091239E+02 -0.86489461382E+02  0.36077441823E+03  0.37535865441E+03  0.00000000000E+00 0. -1.
         11    1    1    2    0    0 -0.11574726244E+02 -0.88074308257E+01 -0.25486788292E+00  0.14546823811E+02  0.00000000000E+00 0.  1.
</event>
<event>
 7    1  0.2856214E-009  0.1229920E+03  0.7561462E-02  0.1238241E+00
         -1   -1    0    0    0  501 -0.00000000000E+00  0.00000000000E+00  0.40978956596E+02  0.40978956596E+02  0.00000000000E+00 0.  1.
          1   -1    0    0  501    0  0.00000000000E+00 -0.00000000000E+00 -0.94513890430E+03  0.94513890430E+03  0.00000000000E+00 0. -1.
         25    2    1    2    0    0 -0.26573688222E+02  0.10737291955E+03 -0.77702631814E+03  0.79476569325E+03  0.12508998094E+03 0.  0.
          5    1    3    3  502    0 -0.64768982231E-02  0.89912161560E+02 -0.23278642577E+03  0.24958202912E+03  0.41800000000E+01 0. -1.
         -5    1    3    3    0  502 -0.26567211324E+02  0.17460757989E+02 -0.54423989237E+03  0.54518366413E+03  0.41800000000E+01 0. -1.
        -11    1    1    2    0    0  0.43694327426E+02 -0.66209276938E+02 -0.30606880967E+02  0.85027311873E+02  0.00000000000E+00 0.  1.
         11    1    1    2    0    0 -0.17120639204E+02 -0.41163642610E+02 -0.96526748597E+02  0.10632485577E+03  0.00000000000E+00 0. -1.
</event>
<event>
 7    1  0.2856214E-009  0.1039765E+03  0.7561462E-02  0.1272149E+00
         -2   -1    0    0    0  501 -0.00000000000E+00  0.00000000000E+00  0.33993153653E+03  0.33993153653E+03  0.00000000000E+00 0.  1.
          2   -1    0    0  501    0  0.00000000000E+00 -0.00000000000E+00 -0.47880874049E+02  0.47880874049E+02  0.00000000000E+00 0. -1.
         25    2    1    2    0    0  0.37444345054E+02  0.20590828499E+02  0.23210163452E+03  0.26710857816E+03  0.12509901113E+03 0.  0.
          5    1    3    3  502    0 -0.42209950252E+02  0.30376372015E+01  0.40064951807E+02  0.58425849616E+02  0.41800000000E+01 0.  1.
         -5    1    3    3    0  502  0.79654295306E+02  0.17553191297E+02  0.19203668271E+03  0.20868272855E+03  0.41800000000E+01 0.  1.
        -11    1    1    2    0    0 -0.55148371893E+02 -0.30953749276E+02  0.66460904732E+01  0.63589684975E+02  0.00000000000E+00 0. -1.
         11    1    1    2    0    0  0.17704026838E+02  0.10362920777E+02  0.53302937485E+02  0.57114147440E+02  0.00000000000E+00 0.  1.
</event>
<event>
 7    1  0.2856214E-009  0.1034768E+03  0.7561462E-02  0.1273150E+00
          1   -1    0    0  501    0  0.00000000000E+00  0.00000000000E+00  0.72817703491E+03  0.72817703491E+03  0.00000000000E+00 0. -1.
         -1   -1    0    0    0  501 -0.00000000000E+00 -0.00000000000E+00 -0.17917812289E+02  0.17917812289E+02  0.00000000000E+00 0.  1.
         25    2    1    2    0    0 -0.71366757186E+01 -0.34000862899E+02  0.45957703211E+03  0.47756293016E+03  0.12509321724E+03 0.  0.
          5    1    3    3  502    0 -0.46526866488E+02  0.25654967264E+02  0.13412079518E+03  0.14432181661E+03  0.41800000000E+01 0. -1.
         -5    1    3    3    0  502  0.39390190769E+02 -0.59655830163E+02  0.32545623693E+03  0.33324111354E+03  0.41800000000E+01 0. -1.
        -11    1    1    2    0    0 -0.30588398778E+02 -0.97650981443E+00  0.17078068063E+03  0.17350113714E+03  0.00000000000E+00 0. -1.
         11    1    1    2    0    0  0.37725074497E+02  0.34977372713E+02  0.79901509880E+02  0.95030779903E+02  0.00000000000E+00 0.  1.
</event>
<event>
 7    1  0.2856214E-009  0.1458316E+03  0.7561462E-02  0.1205691E+00
          1   -1    0    0  501    0  0.00000000000E+00  0.00000000000E+00  0.71212188292E+02  0.71212188292E+02  0.00000000000E+00 0. -1.
         -1   -1    0    0    0  501 -0.00000000000E+00 -0.00000000000E+00 -0.37600316963E+03  0.37600316963E+03  0.00000000000E+00 0.  1.
         25    2    1    2    0    0  0.55272755474E+02 -0.10317180117E+03 -0.11446774669E+03  0.20604219008E+03  0.12510404073E+03 0.  0.
          5    1    3    3  502    0  0.83920123962E+02 -0.77138363732E+02 -0.12130824028E+03  0.16651148887E+03  0.41800000000E+01 0. -1.
         -5    1    3    3    0  502 -0.28647368489E+02 -0.26033437438E+02  0.68404935864E+01  0.39530701217E+02  0.41800000000E+01 0. -1.
        -11    1    1    2    0    0 -0.73956214998E+02  0.83130184586E+02 -0.11064499562E+03  0.15691546890E+03  0.00000000000E+00 0.  1.
         11    1    1    2    0    0  0.18683459525E+02  0.20041616584E+02 -0.79678239026E+02  0.84257698933E+02  0.00000000000E+00 0. -1.
</event>
<event>
 7    1  0.2856214E-009  0.1248961E+03  0.7561462E-02  0.1235232E+00
         -1   -1    0    0    0  501 -0.00000000000E+00  0.00000000000E+00  0.76838256466E+02  0.76838256466E+02  0.00000000000E+00 0.  1.
          1   -1    0    0  501    0  0.00000000000E+00 -0.00000000000E+00 -0.31729517461E+03  0.31729517461E+03  0.00000000000E+00 0. -1.
         25    2    1    2    0    0  0.18777267207E+02  0.83448109772E+02 -0.45915643103E+02  0.15834348655E+03  0.12509292811E+03 0.  0.
          5    1    3    3  502    0  0.69646957969E+02  0.47339809394E+02 -0.45522315320E+02  0.95820195679E+02  0.41800000000E+01 0.  1.
         -5    1    3    3    0  502 -0.50869690762E+02  0.36108300378E+02 -0.39332778247E+00  0.62523290870E+02  0.41800000000E+01 0.  1.
        -11    1    1    2    0    0 -0.39281118473E+02 -0.60977084862E+02 -0.50037461919E+02  0.88119003297E+02  0.00000000000E+00 0.  1.
         11    1    1    2    0    0  0.20503851266E+02 -0.22471024910E+02 -0.14450381312E+03  0.14767094123E+03  0.00000000000E+00 0. -1.
</event>
<event>
 7    1  0.2856214E-009  0.2396991E+03  0.7561462E-02  0.1119993E+00
         -1   -1    0    0    0  501 -0.00000000000E+00  0.00000000000E+00  0.66077197944E+02  0.66077197944E+02  0.00000000000E+00 0.  1.
          1   -1    0    0  501    0  0.00000000000E+00 -0.00000000000E+00 -0.17553348670E+04  0.17553348670E+04  0.00000000000E+00 0. -1.
         25    2    1    2    0    0  0.14543562793E+03  0.18754558878E+03 -0.14362366590E+04  0.14610787691E+04  0.12510219482E+03 0.  0.
          5    1    3    3  502    0  0.11296954048E+03  0.16556903560E+03 -0.84211235705E+03  0.86564768637E+03  0.41800000000E+01 0. -1.
         -5    1    3    3    0  502  0.32466087455E+02  0.21976553185E+02 -0.59412430194E+03  0.59543108273E+03  0.41800000000E+01 0. -1.
        -11    1    1    2    0    0 -0.63391616477E+02 -0.56697062542E+02 -0.32364466951E+02  0.90997322277E+02  0.00000000000E+00 0.  1.
         11    1    1    2    0    0 -0.82044011456E+02 -0.13084852624E+03 -0.22065654310E+03  0.26933597355E+03  0.00000000000E+00 0. -1.
</event>
<event>
 7    1  0.2856214E-009  0.9218681E+02  0.7561462E-02  0.1297641E+00
         -1   -1    0    0    0  501 -0.00000000000E+00  0.00000000000E+00  0.38681072574E+02  0.38681072574E+02  0.00000000000E+00 0.  1.
          1   -1    0    0  501    0  0.00000000000E+00 -0.00000000000E+00 -0.31252791573E+03  0.31252791573E+03  0.00000000000E+00 0. -1.
         25    2    1    2    0    0 -0.16787909937E+02  0.59911412377E+01 -0.17490730037E+03  0.21577177175E+03  0.12508863284E+03 0.  0.
          5    1    3    3  502    0  0.46025866807E+02  0.27520163684E+02 -0.11182089659E+03  0.12408515277E+03  0.41800000000E+01 0.  1.
         -5    1    3    3    0  502 -0.62813776744E+02 -0.21529022446E+02 -0.63086403783E+02  0.91686618972E+02  0.41800000000E+01 0.  1.
        -11    1    1    2    0    0 -0.10871251608E+02 -0.27138876466E+02  0.13594235491E+01  0.29266888454E+02  0.00000000000E+00 0.  1.
         11    1    1    2    0    0  0.27659161545E+02  0.21147735228E+02 -0.10029896633E+03  0.10617032811E+03  0.00000000000E+00 0. -1.
</event>
<event>
 7    1  0.2856214E-009  0.1185192E+03  0.7561462E-02  0.1245560E+00
          2   -1    0    0  501    0  0.00000000000E+00  0.00000000000E+00  0.50106401734E+02  0.50106401734E+02  0.00000000000E+00 0. -1.
         -2   -1    0    0    0  501 -0.00000000000E+00 -0.00000000000E+00 -0.31860166420E+03  0.31860166420E+03  0.00000000000E+00 0.  1.
         25    2    1    2    0    0 -0.18863573335E+02 -0.42841911534E+02 -0.19196121776E+03  0.23385605557E+03  0.12509309262E+03 0.  0.
          5    1    3    3  502    0 -0.72071888441E+02 -0.32618823893E+02 -0.11319910715E+03  0.13816604154E+03  0.41800000000E+01 0.  1.
         -5    1    3    3    0  502  0.53208315106E+02 -0.10223087641E+02 -0.78762110607E+02  0.95690014027E+02  0.41800000000E+01 0.  1.
        -11    1    1    2    0    0  0.26379554244E+02 -0.24329076301E+02 -0.46560254595E+01  0.36186508658E+02  0.00000000000E+00 0. -1.
         11    1    1    2    0    0 -0.75159809086E+01  0.67170987835E+02 -0.71878019243E+02  0.98665501701E+02  0.00000000000E+00 0.  1.
</event>
<event>
 7    1  0.2856214E-009  0.1408090E+03  0.7561462E-02  0.1212244E+00
         -2   -1    0    0    0  501 -0.00000000000E+00  0.00000000000E+00  0.63051096683E+02  0.63051096683E+02  0.00000000000E+00 0.  1.
          2   -1    0    0  501    0  0.00000000000E+00 -0.00000000000E+00 -0.43200780256E+03  0.43200780256E+03  0.00000000000E+00 0. -1.
         25    2    1    2    0    0 -0.47405824731E+01 -0.10867610887E+03 -0.29057874346E+03  0.33453785304E+03  0.12508636700E+03 0.  0.
          5    1    3    3  502    0  0.50627446774E+02 -0.10162355544E+02 -0.75881369607E+02  0.91879630444E+02  0.41800000000E+01 0.  1.
         -5    1    3    3    0  502 -0.55368029247E+02 -0.98513753325E+02 -0.21469737385E+03  0.24265822260E+03  0.41800000000E+01 0.  1.
        -11    1    1    2    0    0  0.19046593301E+02  0.22987391820E+02 -0.66428774298E+02  0.72828393870E+02  0.00000000000E+00 0. -1.
         11    1    1    2    0    0 -0.14306010828E+02  0.85688717049E+02 -0.11949188119E+02  0.87692652326E+02  0.00000000000E+00 0.  1.
</event>
<event>
 7    1  0.2856214E-009  0.2557167E+03  0.7561462E-02  0.1109744E+00
         -1   -1    0    0    0  501 -0.00000000000E+00  0.00000000000E+00  0.77873311433E+02  0.77873311433E+02  0.00000000000E+00 0.  1.
          1   -1    0    0  501    0  0.00000000000E+00 -0.00000000000E+00 -0.94779161902E+03  0.94779161902E+03  0.00000000000E+00 0. -1.
         25    2    1    2    0    0 -0.18916468668E+03  0.15575516302E+03 -0.52433779662E+03  0.59213223095E+03  0.12508998552E+03 0.  0.
          5    1    3    3  502    0 -0.12944160310E+03  0.13499868688E+03 -0.26001413898E+03  0.32031952632E+03  0.41800000000E+01 0. -1.
         -5    1    3    3    0  502 -0.59723083573E+02  0.20756476144E+02 -0.26432365763E+03  0.27181270463E+03  0.41800000000E+01 0. -1.
        -11    1    1    2    0    0  0.14995027149E+03 -0.16259780633E+03 -0.28010444259E+03  0.35690563080E+03  0.00000000000E+00 0.  1.
         11    1    1    2    0    0  0.39214415189E+02  0.68426433156E+01 -0.65476068385E+02  0.76627068698E+02  0.00000000000E+00 0. -1.
</event>
<event>
 7    1  0.2856214E-009  0.1037566E+03  0.7561462E-02  0.1272589E+00
         -2   -1    0    0    0  501 -0.00000000000E+00  0.00000000000E+00  0.44803394078E+02  0.44803394078E+02  0.00000000000E+00 0.  1.
          2   -1    0    0  501    0  0.00000000000E+00 -0.00000000000E+00 -0.35251840724E+03  0.35251840724E+03  0.00000000000E+00 0. -1.
         25    2    1    2    0    0  0.28868811618E+02 -0.54522233327E+02 -0.18700790667E+03  0.23329701704E+03  0.12509779692E+03 0.  0.
          5    1    3    3  502    0  0.49497549635E+02 -0.82553404202E+02 -0.97058055432E+02  0.13675821909E+03  0.41800000000E+01 0. -1.
         -5    1    3    3    0  502 -0.20628738018E+02  0.28031170875E+02 -0.89949851234E+02  0.96538797951E+02  0.41800000000E+01 0. -1.
        -11    1    1    2    0    0 -0.38944955834E+02  0.53228958543E+02 -0.13277278696E+03  0.14825196313E+03  0.00000000000E+00 0. -1.
         11    1    1    2    0    0  0.10076144216E+02  0.12932747840E+01  0.12065680466E+02  0.15772821151E+02  0.00000000000E+00 0.  1.
</event>
<event>
 7    1  0.2856214E-009  0.8710952E+02  0.7561462E-02  0.1310006E+00
         -1   -1    0    0    0  501 -0.00000000000E+00  0.00000000000E+00  0.39711329865E+02  0.39711329865E+02  0.00000000000E+00 0.  1.
          1   -1    0    0  501    0  0.00000000000E+00 -0.00000000000E+00 -0.33771595960E+03  0.33771595960E+03  0.00000000000E+00 0. -1.
         25    2    1    2    0    0  0.63409745060E+01 -0.24265281833E+02 -0.22139547069E+03  0.25552309908E+03  0.12508832023E+03 0.  0.
          5    1    3    3  502    0 -0.44077157615E+02  0.29920420282E+02 -0.91248012941E+02  0.10574355602E+03  0.41800000000E+01 0.  1.
         -5    1    3    3    0  502  0.50418132121E+02 -0.54185702115E+02 -0.13014745775E+03  0.14977954306E+03  0.41800000000E+01 0.  1.
        -11    1    1    2    0    0 -0.12826155260E+02  0.33210626144E+02 -0.94440052923E+02  0.10092759555E+03  0.00000000000E+00 0. -1.
         11    1    1    2    0    0  0.64851807541E+01 -0.89453443110E+01  0.17830893883E+02  0.20976594836E+02  0.00000000000E+00 0.  1.
</event>
<event>
 7    1  0.2856214E-009  0.1486772E+03  0.7561462E-02  0.1202108E+00
          2   -1    0    0  501    0  0.00000000000E+00  0.00000000000E+00  0.45079725596E+02  0.45079725596E+02  0.00000000000E+00 0. -1.
         -2   -1    0    0    0  501 -0.00000000000E+00 -0.00000000000E+00 -0.61011607410E+03  0.61011607410E+03  0.00000000000E+00 0.  1.
         25    2    1    2    0    0 -0.78687429403E+02 -0.95696270556E+02 -0.27926917178E+03  0.33013411099E+03  0.12509105957E+03 0.  0.
          5    1    3    3  502    0  0.20861593817E+02  0.13830996957E+02 -0.64111842979E+02  0.68951456718E+02  0.41800000000E+01 0. -1.
         -5    1    3    3    0  502 -0.99549023220E+02 -0.10952726751E+03 -0.21515732881E+03  0.26118265427E+03  0.41800000000E+01 0. -1.
        -11    1    1    2    0    0  0.49440108782E+02  0.61727656661E+02 -0.73010837423E+02  0.10763461495E+03  0.00000000000E+00 0. -1.
         11    1    1    2    0    0  0.29247320622E+02  0.33968613895E+02 -0.21275633930E+03  0.21742707376E+03  0.00000000000E+00 0.  1.
</event>
<event>
 7    1  0.2856214E-009  0.1078099E+03  0.7561462E-02  0.1264680E+00
          4   -1    0    0  501    0  0.00000000000E+00  0.00000000000E+00  0.64299325769E+02  0.64299325769E+02  0.00000000000E+00 0. -1.
         -4   -1    0    0    0  501 -0.00000000000E+00 -0.00000000000E+00 -0.25102235674E+03  0.25102235674E+03  0.00000000000E+00 0.  1.
         25    2    1    2    0    0  0.56004765671E+02  0.76526939906E+01 -0.14487301769E+03  0.19957691671E+03  0.12509059488E+03 0.  0.
          5    1    3    3  502    0  0.61427491518E+02  0.49606502623E+02 -0.44864257403E+02  0.90908832403E+02  0.41800000000E+01 0. -1.
         -5    1    3    3    0  502 -0.54227258470E+01 -0.41953808632E+02 -0.10000876028E+03  0.10866808431E+03  0.41800000000E+01 0. -1.
        -11    1    1    2    0    0 -0.67688860687E+02  0.14293181520E+02 -0.25348890871E+01  0.69227903057E+02  0.00000000000E+00 0. -1.
         11    1    1    2    0    0  0.11684095016E+02 -0.21945875510E+02 -0.39315124196E+02  0.46516862736E+02  0.00000000000E+00 0.  1.
</event>
<event>
 7    1  0.2856214E-009  0.1859065E+03  0.7561462E-02  0.1162206E+00
          2   -1    0    0  501    0  0.00000000000E+00  0.00000000000E+00  0.29730193717E+03  0.29730193717E+03  0.00000000000E+00 0. -1.
         -2   -1    0    0    0  501 -0.00000000000E+00 -0.00000000000E+00 -0.13573010403E+03  0.13573010403E+03  0.00000000000E+00 0.  1.
         25    2    1    2    0    0 -0.15594324138E+03 -0.62639014838E+02  0.64514970837E+02  0.21920695581E+03  0.12509023665E+03 0.  0.
          5    1    3    3  502    0  0.66404958935E+01 -0.14836614041E+02  0.45657095686E+02  0.48644260590E+02  0.41800000000E+01 0.  1.
         -5    1    3    3    0  502 -0.16258373727E+03 -0.47802400797E+02  0.18857875151E+02  0.17056269522E+03  0.41800000000E+01 0.  1.
        -11    1    1    2    0    0  0.93333375899E+02 -0.48429121989E+01  0.24506330247E+02  0.96618492419E+02  0.00000000000E+00 0. -1.
         11    1    1    2    0    0  0.62609865478E+02  0.67481927037E+02  0.72550532053E+02  0.11720659296E+03  0.00000000000E+00 0.  1.
</event>
<event>
 7    1  0.2856214E-009  0.1522007E+03  0.7561462E-02  0.1197795E+00
         -3   -1    0    0    0  501 -0.00000000000E+00  0.00000000000E+00  0.44533835553E+02  0.44533835553E+02  0.00000000000E+00 0.  1.
          3   -1    0    0  501    0  0.00000000000E+00 -0.00000000000E+00 -0.63018109942E+03  0.63018109942E+03  0.00000000000E+00 0. -1.
         25    2    1    2    0    0 -0.12446629045E+03  0.26111705627E+02 -0.30582131698E+03  0.35404470846E+03  0.12508916436E+03 0.  0.
          5    1    3    3  502    0 -0.82973644790E+02 -0.45144041539E+02 -0.14207465786E+03  0.17066133429E+03  0.41800000000E+01 0. -1.
         -5    1    3    3    0  502 -0.41492645663E+02  0.71255747166E+02 -0.16374665912E+03  0.18338337417E+03  0.41800000000E+01 0. -1.
        -11    1    1    2    0    0  0.73090471885E+02 -0.12649711185E+02 -0.24777094112E+03  0.25863617600E+03  0.00000000000E+00 0. -1.
         11    1    1    2    0    0  0.51375818568E+02 -0.13461994442E+02 -0.32055005767E+02  0.62034050510E+02  0.00000000000E+00 0.  1.
</event>
<event>
 7    1  0.2856214E-009  0.1075727E+03  0.7561462E-02  0.1265132E+00
         -1   -1    0    0    0  501 -0.00000000000E+00  0.00000000000E+00  0.10714821159E+03  0.10714821159E+03  0.00000000000E+00 0.  1.
          1   -1    0    0  501    0  0.00000000000E+00 -0.00000000000E+00 -0.13563813114E+03  0.13563813114E+03  0.00000000000E+00 0. -1.
         25    2    1    2    0    0  0.28402809421E+02  0.38879974846E+02  0.16176385047E+02  0.13500780622E+03  0.12508821000E+03 0.  0.
          5    1    3    3  502    0 -0.14332237055E+02 -0.36354717919E+02 -0.16228343551E+02  0.42519525731E+02  0.41800000000E+01 0. -1.
         -5    1    3    3    0  502  0.42735046476E+02  0.75234692765E+02  0.32404728599E+02  0.92488280491E+02  0.41800000000E+01 0. -1.
        -11    1    1    2    0    0  0.31551371984E+01 -0.54093423290E+02 -0.43386860177E+01  0.54358785217E+02  0.00000000000E+00 0.  1.
         11    1    1    2    0    0 -0.31557946619E+02  0.15213448444E+02 -0.40327618575E+02  0.53419751294E+02  0.00000000000E+00 0. -1.
</event>
<event>
 7    1  0.2856214E-009  0.1022096E+03  0.7561462E-02  0.1275717E+00
         -1   -1    0    0    0  501 -0.00000000000E+00  0.00000000000E+00  0.13150137534E+03  0.13150137534E+03  0.00000000000E+00 0.  1.
          1   -1    0    0  501    0  0.00000000000E+00 -0.00000000000E+00 -0.16747728220E+03  0.16747728220E+03  0.00000000000E+00 0. -1.
         25    2    1    2    0    0  0.65150268757E+02 -0.65208889627E+02  0.22167076059E+02  0.15695708093E+03  0.12508952470E+03 0.  0.
          5    1    3    3  502    0  0.20898984287E+02 -0.12521288191E+01  0.64758408102E+02  0.68186942963E+02  0.41800000000E+01 0.  1.
         -5    1    3    3    0  502  0.44251284470E+02 -0.63956760808E+02 -0.42591332043E+02  0.88770137971E+02  0.41800000000E+01 0.  1.
        -11    1    1    2    0    0 -0.11498094574E+02 -0.82980917517E+01  0.18314451146E+02  0.23162116188E+02  0.00000000000E+00 0.  1.
         11    1    1    2    0    0 -0.53652174183E+02  0.73506981379E+02 -0.76457434064E+02  0.11885946041E+03  0.00000000000E+00 0. -1.
</event>
<event>
 7    1  0.2856214E-009  0.1610374E+03  0.7561462E-02  0.1187530E+00
         -2   -1    0    0    0  501 -0.00000000000E+00  0.00000000000E+00  0.38212113571E+02  0.38212113571E+02  0.00000000000E+00 0.  1.
          2   -1    0    0  501    0  0.00000000000E+00 -0.00000000000E+00 -0.80493199830E+03  0.80493199830E+03  0.00000000000E+00 0. -1.
         25    2    1    2    0    0 -0.66791947166E+02 -0.12084746063E+03 -0.38740902668E+03  0.42988117748E+03  0.12508716901E+03 0.  0.
          5    1    3    3  502    0 -0.24269435271E+02 -0.11677227046E+03 -0.16656679745E+03  0.20490665936E+03  0.41800000000E+01 0. -1.
         -5    1    3    3    0  502 -0.42522511895E+02 -0.40751901717E+01 -0.22084222923E+03  0.22497451812E+03  0.41800000000E+01 0. -1.
        -11    1    1    2    0    0  0.68777233361E+02  0.41267681503E+02 -0.23694915179E+03  0.25015641087E+03  0.00000000000E+00 0. -1.
         11    1    1    2    0    0 -0.19852861950E+01  0.79579779126E+02 -0.14236170626E+03  0.16310652352E+03  0.00000000000E+00 0.  1.
</event>
<event>
 7    1  0.2856214E-009  0.4257811E+03  0.7561462E-02  0.1035201E+00
          2   -1    0    0  501    0  0.00000000000E+00  0.00000000000E+00  0.80598004835E+03  0.80598004835E+03  0.00000000000E+00 0. -1.
         -2   -1    0    0    0  501 -0.00000000000E+00 -0.00000000000E+00 -0.36417722801E+03  0.36417722801E+03  0.00000000000E+00 0.  1.
         25    2    1    2    0    0 -0.47795479179E+02  0.41333262362E+03  0.57849902160E+03  0.72348989318E+03  0.12509293328E+03 0.  0.
          5    1    3    3  502    0 -0.83326311146E+02  0.33315469961E+03  0.42249284864E+03  0.54447498340E+03  0.41800000000E+01 0. -1.
         -5    1    3    3    0  502  0.35530831967E+02  0.80177924008E+02  0.15600617297E+03  0.17901490978E+03  0.41800000000E+01 0. -1.
        -11    1    1    2    0    0  0.58894134659E+02 -0.25993425186E+03 -0.53612696451E+02  0.27186146400E+03  0.00000000000E+00 0.  1.
         11    1    1    2    0    0 -0.11098655479E+02 -0.15339837176E+03 -0.83083504813E+02  0.17480591919E+03  0.00000000000E+00 0. -1.
</event>
<event>
 7    1  0.3509436E-009  0.1480744E+03  0.7561462E-02  0.1202859E+00
          4   -1    0    0  501    0  0.00000000000E+00  0.00000000000E+00  0.15308018519E+04  0.15308018519E+04  0.00000000000E+00 0. -1.
         -4   -1    0    0    0  501 -0.00000000000E+00 -0.00000000000E+00 -0.20084494918E+02  0.20084494918E+02  0.00000000000E+00 0.  1.
         25    2    1    2    0    0  0.68501227071E+02  0.10325193007E+03  0.10641605075E+04  0.10786279257E+04  0.12508891766E+03 0.  0.
          5    1    3    3  502    0  0.18379108625E+01 -0.19501372704E+02  0.37627644865E+02  0.42626206866E+02  0.41800000000E+01 0. -1.
         -5    1    3    3    0  502  0.66663316209E+02  0.12275330277E+03  0.10265328626E+04  0.10360017189E+04  0.41800000000E+01 0. -1.
        -11    1    1    2    0    0 -0.41143338736E+02 -0.14702390904E+02  0.26328365667E+03  0.26688427921E+03  0.00000000000E+00 0.  1.
         11    1    1    2    0    0 -0.27357888335E+02 -0.88549539162E+02  0.18327319286E+03  0.20537414190E+03  0.00000000000E+00 0. -1.
</event>
<event>
 7    1  0.2856214E-009  0.1124870E+03  0.7561462E-02  0.1256033E+00
          2   -1    0    0  501    0  0.00000000000E+00  0.00000000000E+00  0.22347584206E+03  0.22347584206E+03  0.00000000000E+00 0.  1.
         -2   -1    0    0    0  501 -0.00000000000E+00 -0.00000000000E+00 -0.80754458516E+02  0.80754458516E+02  0.00000000000E+00 0. -1.
         25    2    1    2    0    0 -0.11126892885E+02  0.76666470277E+02  0.95697600488E+02  0.17551563196E+03  0.12508457504E+03 0.  0.
          5    1    3    3  502    0  0.49999558134E+02  0.33045795990E+02  0.77634586762E+02  0.98166093474E+02  0.41800000000E+01 0. -1.
         -5    1    3    3    0  502 -0.61126451019E+02  0.43620674287E+02  0.18063013726E+02  0.77349538488E+02  0.41800000000E+01 0. -1.
        -11    1    1    2    0    0 -0.76762075665E+01 -0.68923069109E+02 -0.82317478204E+01  0.69836060099E+02  0.00000000000E+00 0. -1.
         11    1    1    2    0    0  0.18803100452E+02 -0.77434011683E+01  0.55255530879E+02  0.58878608518E+02  0.00000000000E+00 0.  1.
</event>
<event>
 7    1  0.2856214E-009  0.1099306E+03  0.7561462E-02  0.1260699E+00
          1   -1    0    0  501    0  0.00000000000E+00  0.00000000000E+00  0.81574317648E+03  0.81574317648E+03  0.00000000000E+00 0. -1.
         -1   -1    0    0    0  501 -0.00000000000E+00 -0.00000000000E+00 -0.15035760755E+02  0.15035760755E+02  0.00000000000E+00 0.  1.
         25    2    1    2    0    0  0.55210127902E+01 -0.16058733831E+02  0.43183069071E+03  0.44990078086E+03  0.12507838607E+03 0.  0.
          5    1    3    3  502    0  0.32126058792E+02 -0.63716818937E+02  0.24262012253E+03  0.25293064845E+03  0.41800000000E+01 0.  1.
         -5    1    3    3    0  502 -0.26605046002E+02  0.47658085106E+02  0.18921056819E+03  0.19697013241E+03  0.41800000000E+01 0.  1.
        -11    1    1    2    0    0  0.39223754291E+02  0.26948476492E+02  0.15696843279E+03  0.16402381589E+03  0.00000000000E+00 0.  1.
         11    1    1    2    0    0 -0.44744767081E+02 -0.10889742662E+02  0.21190829222E+03  0.21685434049E+03  0.00000000000E+00 0. -1.
</event>
<event>
 7    1  0.2856214E-009  0.9693526E+02  0.7561462E-02  0.1286876E+00
         -1   -1    0    0    0  501 -0.00000000000E+00  0.00000000000E+00  0.79056242907E+01  0.79056242907E+01  0.00000000000E+00 0.  1.
          1   -1    0    0  501    0  0.00000000000E+00 -0.00000000000E+00 -0.17912560441E+04  0.17912560441E+04  0.00000000000E+00 0. -1.
         25    2    1    2    0    0 -0.19180897085E+02 -0.12618178549E+02 -0.13185110609E+04  0.13246306778E+04  0.12509152555E+03 0.  0.
          5    1    3    3  502    0  0.26604463030E+02 -0.37517040939E+02 -0.10534632269E+04  0.10544750204E+04  0.41800000000E+01 0. -1.
         -5    1    3    3    0  502 -0.45785360115E+02  0.24898862390E+02 -0.26504783396E+03  0.27015565742E+03  0.41800000000E+01 0. -1.
        -11    1    1    2    0    0  0.44222013901E+02 -0.24555389755E+02 -0.25017450009E+03  0.25523681979E+03  0.00000000000E+00 0. -1.
         11    1    1    2    0    0 -0.25041116816E+02  0.37173568304E+02 -0.21466485891E+03  0.21929417083E+03  0.00000000000E+00 0.  1.
</event>
<event>
 7    1  0.2856214E-009  0.9452517E+02  0.7561462E-02  0.1292249E+00
         -1   -1    0    0    0  501 -0.00000000000E+00  0.00000000000E+00  0.78959090265E+02  0.78959090265E+02  0.00000000000E+00 0.  1.
          1   -1    0    0  501    0  0.00000000000E+00 -0.00000000000E+00 -0.20393724396E+03  0.20393724396E+03  0.00000000000E+00 0. -1.
         25    2    1    2    0    0 -0.32357526273E+02 -0.12397089675E+02 -0.23976083236E+01  0.12982386979E+03  0.12509113199E+03 0.  0.
          5    1    3    3  502    0 -0.10116991249E+02  0.39382679082E+02 -0.43694393498E+02  0.59833279592E+02  0.41800000000E+01 0.  1.
         -5    1    3    3    0  502 -0.22240535025E+02 -0.51779768757E+02  0.41296785175E+02  0.69990590199E+02  0.41800000000E+01 0.  1.
        -11    1    1    2    0    0  0.15049986582E+01 -0.35043177351E+02 -0.48213183115E+02  0.59622146271E+02  0.00000000000E+00 0.  1.
         11    1    1    2    0    0  0.30852527615E+02  0.47440267026E+02 -0.74367362252E+02  0.93450318159E+02  0.00000000000E+00 0. -1.
</event>
<event>
 7    1  0.2856214E-009  0.1085234E+03  0.7561462E-02  0.1263329E+00
          1   -1    0    0  501    0  0.00000000000E+00  0.00000000000E+00  0.14310149832E+03  0.14310149832E+03  0.00000000000E+00 0. -1.
         -1   -1    0    0    0  501 -0.00000000000E+00 -0.00000000000E+00 -0.12145951246E+03  0.12145951246E+03  0.00000000000E+00 0.  1.
         25    2    1    2    0    0 -0.39122380965E+02  0.55745650046E+02  0.46890445933E+02  0.14994913253E+03  0.12509152743E+03 0.  0.
          5    1    3    3  502    0 -0.78891381327E+02  0.62946445305E+02  0.26210249063E+02  0.10435781993E+03  0.41800000000E+01 0.  1.
         -5    1    3    3    0  502  0.39769000363E+02 -0.72007952586E+01  0.20680196870E+02  0.45591312602E+02  0.41800000000E+01 0.  1.
        -11    1    1    2    0    0  0.44309433542E+02 -0.43451760603E+02 -0.54415584589E+02  0.82537489945E+02  0.00000000000E+00 0.  1.
         11    1    1    2    0    0 -0.51870525770E+01 -0.12293889444E+02  0.29167124523E+02  0.32074388304E+02  0.00000000000E+00 0. -1.
</event>
<event>
 7    1  0.2856214E-009  0.1015808E+03  0.7561462E-02  0.1277006E+00
          2   -1    0    0  501    0  0.00000000000E+00  0.00000000000E+00  0.59977565587E+03  0.59977565587E+03  0.00000000000E+00 0. -1.
         -2   -1    0    0    0  501 -0.00000000000E+00 -0.00000000000E+00 -0.45681000760E+02  0.45681000760E+02  0.00000000000E+00 0.  1.
         25    2    1    2    0    0  0.90494952007E+01  0.47179111314E+02  0.51836246253E+03  0.53539954004E+03  0.12508102576E+03 0.  0.
          5    1    3    3  502    0 -0.43963580788E+02 -0.18920770566E+02  0.22165437554E+03  0.22680151365E+03  0.41800000000E+01 0.  1.
         -5    1    3    3    0  502  0.53013075989E+02  0.66099881881E+02  0.29670808698E+03  0.30859802639E+03  0.41800000000E+01 0.  1.
        -11    1    1    2    0    0 -0.24304083943E+02 -0.49217826409E+02 -0.15112754281E+02  0.56933981722E+02  0.00000000000E+00 0.  1.
         11    1    1    2    0    0  0.15254588742E+02  0.20387150949E+01  0.50844946859E+02  0.53123134867E+02  0.00000000000E+00 0. -1.
</event>
<event>
 7    1  0.2856214E-009  0.1380093E+03  0.7561462E-02  0.1216033E+00
         -3   -1    0    0    0  501 -0.00000000000E+00  0.00000000000E+00  0.12500194668E+03  0.12500194668E+03  0.00000000000E+00 0.  1.
          3   -1    0    0  501    0  0.00000000000E+00 -0.00000000000E+00 -0.16234369357E+03  0.16234369357E+03  0.00000000000E+00 0. -1.
         25    2    1    2    0    0 -0.61549470404E+02 -0.64918306045E+02 -0.47236311123E+02  0.16087892800E+03  0.12509211254E+03 0.  0.
          5    1    3    3  502    0 -0.34637134627E+02  0.33795016139E+02 -0.29850808666E+02  0.57012081079E+02  0.41800000000E+01 0. -1.
         -5    1    3    3    0  502 -0.26912335777E+02 -0.98713322184E+02 -0.17385502457E+02  0.10386684692E+03  0.41800000000E+01 0. -1.
        -11    1    1    2    0    0  0.60016925843E+02 -0.91050909619E-01  0.12830173775E+02  0.61373064426E+02  0.00000000000E+00 0. -1.
         11    1    1    2    0    0  0.15325445608E+01  0.65009356955E+02 -0.29356095413E+01  0.65093647830E+02  0.00000000000E+00 0.  1.
</event>
<event>
 7    1  0.2856214E-009  0.9749466E+02  0.7561462E-02  0.1285654E+00
         -2   -1    0    0    0  501 -0.00000000000E+00  0.00000000000E+00  0.77871904313E+02  0.77871904313E+02  0.00000000000E+00 0.  1.
          2   -1    0    0  501    0  0.00000000000E+00 -0.00000000000E+00 -0.22119504680E+03  0.22119504680E+03  0.00000000000E+00 0. -1.
         25    2    1    2    0    0  0.13467457719E+02  0.60148187036E+01 -0.11519456104E+03  0.17069298213E+03  0.12509499108E+03 0.  0.
          5    1    3    3  502    0  0.60668501804E+02 -0.28489378767E+02 -0.66165958959E+02  0.94274696174E+02  0.41800000000E+01 0. -1.
         -5    1    3    3    0  502 -0.47201044085E+02  0.34504197471E+02 -0.49028602080E+02  0.76418285951E+02  0.41800000000E+01 0. -1.
        -11    1    1    2    0    0  0.25591068415E+02 -0.14263148460E+02 -0.66708228124E+02  0.72858272599E+02  0.00000000000E+00 0. -1.
         11    1    1    2    0    0 -0.39058526134E+02  0.82483297563E+01  0.38579646679E+02  0.55515696387E+02  0.00000000000E+00 0.  1.
</event>
<event>
 7    1  0.2856214E-009  0.1100255E+03  0.7561462E-02  0.1260523E+00
         -1   -1    0    0    0  501 -0.00000000000E+00  0.00000000000E+00  0.32646163026E+03  0.32646163026E+03  0.00000000000E+00 0.  1.
          1   -1    0    0  501    0  0.00000000000E+00 -0.00000000000E+00 -0.13952027382E+03  0.13952027382E+03  0.00000000000E+00 0. -1.
         25    2    1    2    0    0 -0.64593434410E+02  0.42554364083E+02  0.27844569793E+03  0.31490172615E+03  0.12509158550E+03 0.  0.
          5    1    3    3  502    0 -0.95623897886E+02  0.82723909318E+01  0.14807740953E+03  0.17651275850E+03  0.41800000000E+01 0.  1.
         -5    1    3    3    0  502  0.31030463476E+02  0.34281973151E+02  0.13036828840E+03  0.13838896765E+03  0.41800000000E+01 0.  1.
        -11    1    1    2    0    0  0.27428274898E+02 -0.21378258519E+02 -0.10138142541E+03  0.10717991239E+03  0.00000000000E+00 0. -1.
         11    1    1    2    0    0  0.37165159512E+02 -0.21176105564E+02  0.98770839197E+01  0.43900265548E+02  0.00000000000E+00 0.  1.
</event>
<event>
 7    1  0.2856214E-009  0.2094160E+03  0.7561462E-02  0.1142029E+00
         -1   -1    0    0    0  501 -0.00000000000E+00  0.00000000000E+00  0.10148123776E+03  0.10148123776E+03  0.00000000000E+00 0.  1.
          1   -1    0    0  501    0  0.00000000000E+00 -0.00000000000E+00 -0.48782574588E+03  0.48782574588E+03  0.00000000000E+00 0. -1.
         25    2    1    2    0    0 -0.16709234394E+03  0.96556009427E+02 -0.17555750006E+03  0.28933499597E+03  0.12510551429E+03 0.  0.
          5    1    3    3  502    0 -0.16620252663E+03  0.11680807098E+03 -0.17572859599E+03  0.26863621712E+03  0.41800000000E+01 0.  1.
         -5    1    3    3    0  502 -0.88981731057E+00 -0.20252061550E+02  0.17109592894E+00  0.20698778845E+02  0.41800000000E+01 0.  1.
        -11    1    1    2    0    0  0.10489392235E+03 -0.75655543846E+02 -0.75863431870E+02  0.14993917619E+03  0.00000000000E+00 0.  1.
         11    1    1    2    0    0  0.62198421582E+02 -0.20900465581E+02 -0.13492357619E+03  0.15003281148E+03  0.00000000000E+00 0. -1.
</event>
<event>
 7    1  0.3009970E-009  0.8854356E+02  0.7561462E-02  0.1306417E+00
          2   -1    0    0  501    0  0.00000000000E+00  0.00000000000E+00  0.59094857736E+03  0.59094857736E+03  0.00000000000E+00 0. -1.
         -2   -1    0    0    0  501 -0.00000000000E+00 -0.00000000000E+00 -0.25191532873E+02  0.25191532873E+02  0.00000000000E+00 0.  1.
         25    2    1    2    0    0 -0.37625532069E+02 -0.23251662217E+02  0.23336271175E+03  0.26844549141E+03  0.12509398931E+03 0.  0.
          5    1    3    3  502    0  0.52339145633E+01  0.15675374308E+02 -0.89662234153E+01  0.19260757609E+02  0.41800000000E+01 0.  1.
         -5    1    3    3    0  502 -0.42859446632E+02 -0.38927036525E+02  0.24232893517E+03  0.24918473380E+03  0.41800000000E+01 0.  1.
        -11    1    1    2    0    0 -0.26650053714E+02  0.26567155967E+02  0.12565091134E+03  0.13116474625E+03  0.00000000000E+00 0.  1.
         11    1    1    2    0    0  0.64275585783E+02 -0.33154937491E+01  0.20674342140E+03  0.21652987257E+03  0.00000000000E+00 0. -1.
</event>
<event>
 7    1  0.2856214E-009  0.1476316E+03  0.7561462E-02  0.1203414E+00
          2   -1    0    0  501    0  0.00000000000E+00  0.00000000000E+00  0.16066606318E+04  0.16066606318E+04  0.00000000000E+00 0. -1.
         -2   -1    0    0    0  501 -0.00000000000E+00 -0.00000000000E+00 -0.20881975719E+02  0.20881975719E+02  0.00000000000E+00 0.  1.
         25    2    1    2    0    0 -0.40503740180E+02 -0.13686484900E+03  0.99695738262E+03  0.10148593809E+04  0.12507198080E+03 0.  0.
          5    1    3    3  502    0 -0.17203695402E+02 -0.11757165281E+03  0.40441488621E+03  0.42153046541E+03  0.41800000000E+01 0.  1.
         -5    1    3    3    0  502 -0.23300044778E+02 -0.19293196187E+02  0.59254249641E+03  0.59332891549E+03  0.41800000000E+01 0.  1.
        -11    1    1    2    0    0  0.17423571532E+02  0.10526065843E+03  0.53833191711E+03  0.54880291548E+03  0.00000000000E+00 0. -1.
         11    1    1    2    0    0  0.23080168648E+02  0.31604190569E+02  0.50489356334E+02  0.63880311125E+02  0.00000000000E+00 0.  1.
</event>
<event>
 7    1  0.2856214E-009  0.9229661E+02  0.7561462E-02  0.1297384E+00
          2   -1    0    0  501    0  0.00000000000E+00  0.00000000000E+00  0.11060346914E+04  0.11060346914E+04  0.00000000000E+00 0. -1.
         -2   -1    0    0    0  501 -0.00000000000E+00 -0.00000000000E+00 -0.20093402986E+02  0.20093402986E+02  0.00000000000E+00 0.  1.
         25    2    1    2    0    0 -0.10771864474E+02 -0.13310018973E+02  0.96733422800E+03  0.97553897816E+03  0.12509036565E+03 0.  0.
          5    1    3    3  502    0  0.70130994143E+01  0.43907176625E+02  0.70515155319E+03  0.70656437009E+03  0.41800000000E+01 0. -1.
         -5    1    3    3    0  502 -0.17784963889E+02 -0.57217195598E+02  0.26218267481E+03  0.26897460807E+03  0.41800000000E+01 0. -1.
        -11    1    1    2    0    0  0.31339169786E+02  0.37006094653E+02  0.31056015845E+02  0.57585334283E+02  0.00000000000E+00 0.  1.
         11    1    1    2    0    0 -0.20567305312E+02 -0.23696075681E+02  0.87551044561E+02  0.93003781934E+02  0.00000000000E+00 0. -1.
</event>
<event>
 7    1  0.2856214E-009  0.3839182E+02  0.7561462E-02  0.1520391E+00
          1   -1    0    0  501    0  0.00000000000E+00  0.00000000000E+00  0.23200142405E+03  0.23200142405E+03  0.00000000000E+00 0. -1.
         -1   -1    0    0    0  501 -0.00000000000E+00 -0.00000000000E+00 -0.51860630628E+02  0.51860630628E+02  0.00000000000E+00 0.  1.
         25    2    1    2    0    0  0.65424372786E+00  0.52491024913E+01  0.11609921481E+03  0.17074732691E+03  0.12509053064E+03 0.  0.
          5    1    3    3  502    0 -0.88166501640E+01 -0.74591352788E+01  0.14067321676E+03  0.14120835079E+03  0.41800000000E+01 0.  1.
         -5    1    3    3    0  502  0.94708938918E+01  0.12708237770E+02 -0.24574001952E+02  0.29538976121E+02  0.41800000000E+01 0.  1.
        -11    1    1    2    0    0 -0.22463673820E+01 -0.26602887085E+02 -0.15411662076E+02  0.30826597211E+02  0.00000000000E+00 0.  1.
         11    1    1    2    0    0  0.15921236542E+01  0.21353784594E+02  0.79453240689E+02  0.82288130555E+02  0.00000000000E+00 0. -1.
</event>
<event>
 7    1  0.2856214E-009  0.1079846E+03  0.7561462E-02  0.1264348E+00
          1   -1    0    0  501    0  0.00000000000E+00  0.00000000000E+00  0.11165110542E+03  0.11165110542E+03  0.00000000000E+00 0. -1.
         -1   -1    0    0    0  501 -0.00000000000E+00 -0.00000000000E+00 -0.13995720443E+03  0.13995720443E+03  0.00000000000E+00 0.  1.
         25    2    1    2    0    0  0.52137262562E+02  0.33098295421E+02 -0.23270478990E+02  0.14143092886E+03  0.12508957246E+03 0.  0.
          5    1    3    3  502    0  0.27085685871E+02 -0.42500665245E+02  0.15310560950E+02  0.52837738426E+02  0.41800000000E+01 0.  1.
         -5    1    3    3    0  502  0.25051576692E+02  0.75598960666E+02 -0.38581039940E+02  0.88593190435E+02  0.41800000000E+01 0.  1.
        -11    1    1    2    0    0 -0.65496469898E+02 -0.25554503097E+02 -0.33471843948E+02  0.77866453206E+02  0.00000000000E+00 0.  1.
         11    1    1    2    0    0  0.13359207336E+02 -0.75437923245E+01  0.28436223924E+02  0.32310927785E+02  0.00000000000E+00 0. -1.
</event>
<event>
 7    1  0.2856214E-009  0.1263218E+03  0.7561462E-02  0.1233018E+00
         -1   -1    0    0    0  501 -0.00000000000E+00  0.00000000000E+00  0.12627432291E+02  0.12627432291E+02  0.00000000000E+00 0.  1.
          1   -1    0    0  501    0  0.00000000000E+00 -0.00000000000E+00 -0.15474514419E+04  0.15474514419E+04  0.00000000000E+00 0. -1.
         25    2    1    2    0    0  0.69937548965E+02 -0.23296376051E+02 -0.10917051779E+04  0.11013181665E+04  0.12509007394E+03 0.  0.
          5    1    3    3  502    0  0.16299194660E+02 -0.64494523794E+02 -0.75018566933E+03  0.75314090196E+03  0.41800000000E+01 0. -1.
         -5    1    3    3    0  502  0.53638354305E+02  0.41198147743E+02 -0.34151950853E+03  0.34817726453E+03  0.41800000000E+01 0. -1.
        -11    1    1    2    0    0 -0.49303297828E+02 -0.32288885573E+02 -0.19892501148E+03  0.20747179929E+03  0.00000000000E+00 0.  1.
         11    1    1    2    0    0 -0.20634251138E+02  0.55585261624E+02 -0.24419382030E+03  0.25128890843E+03  0.00000000000E+00 0. -1.
</event>
<event>
 7    1  0.2856214E-009  0.1007825E+03  0.7561462E-02  0.1278659E+00
          1   -1    0    0  501    0  0.00000000000E+00  0.00000000000E+00  0.13753404333E+03  0.13753404333E+03  0.00000000000E+00 0. -1.
         -1   -1    0    0    0  501 -0.00000000000E+00 -0.00000000000E+00 -0.11082773082E+03  0.11082773082E+03  0.00000000000E+00 0.  1.
         25    2    1    2    0    0  0.31784307610E+02 -0.36114025638E+02  0.23719680962E+02  0.13610332149E+03  0.12508807216E+03 0.  0.
          5    1    3    3  502    0  0.22246025672E+02 -0.60165516593E+02  0.62263315831E+02  0.89492837386E+02  0.41800000000E+01 0. -1.
         -5    1    3    3    0  502  0.95382819373E+01  0.24051490955E+02 -0.38543634870E+02  0.46610484104E+02  0.41800000000E+01 0. -1.
        -11    1    1    2    0    0  0.18554065117E+02  0.54430576263E+02 -0.64492180098E+01  0.57866513439E+02  0.00000000000E+00 0.  1.
         11    1    1    2    0    0 -0.50338372726E+02 -0.18316550625E+02  0.94358495513E+01  0.54391939221E+02  0.00000000000E+00 0. -1.
</event>
<event>
 7    1  0.2856214E-009  0.1108488E+03  0.7561462E-02  0.1259006E+00
          1   -1    0    0  501    0  0.00000000000E+00  0.00000000000E+00  0.21318505505E+03  0.21318505505E+03  0.00000000000E+00 0.  1.
         -1   -1    0    0    0  501 -0.00000000000E+00 -0.00000000000E+00 -0.11008997461E+03  0.11008997461E+03  0.00000000000E+00 0. -1.
         25    2    1    2    0    0  0.21955646437E+02  0.73076590994E+02 -0.25283480402E+02  0.14869222778E+03  0.12509150914E+03 0.  0.
          5    1    3    3  502    0 -0.18757931242E+02 -0.11044868654E+02 -0.47608704558E+02  0.52515809599E+02  0.41800000000E+01 0. -1.
         -5    1    3    3    0  502  0.40713577680E+02  0.84121459648E+02  0.22325224156E+02  0.96176418183E+02  0.41800000000E+01 0. -1.
        -11    1    1    2    0    0 -0.35023915026E+02 -0.35103426266E+01  0.83901004633E+02  0.90985579668E+02  0.00000000000E+00 0.  1.
         11    1    1    2    0    0  0.13068268589E+02 -0.69566248368E+02  0.44477556208E+02  0.83597222215E+02  0.00000000000E+00 0. -1.
</event>
<event>
 7    1  0.2856214E-009  0.1142616E+03  0.7561462E-02  0.1252875E+00
          2   -1    0    0  501    0  0.00000000000E+00  0.00000000000E+00  0.96308362001E+03  0.96308362001E+03  0.00000000000E+00 0. -1.
         -2   -1    0    0    0  501 -0.00000000000E+00 -0.00000000000E+00 -0.17657620067E+02  0.17657620067E+02  0.00000000000E+00 0.  1.
         25    2    1    2    0    0 -0.23595200295E+02  0.66162703902E+02  0.57956225765E+03  0.59705490910E+03  0.12509163487E+03 0.  0.
          5    1    3    3  502    0 -0.16244762560E+01 -0.24028909749E+02  0.32748372681E+03  0.32839471852E+03  0.41800000000E+01 0.  1.
         -5    1    3    3    0  502 -0.21970724039E+02  0.90191613651E+02  0.25207853085E+03  0.26866019058E+03  0.41800000000E+01 0.  1.
        -11    1    1    2    0    0  0.52876497043E+02 -0.20086523053E+02  0.23849493376E+03  0.24511063987E+03  0.00000000000E+00 0. -1.
         11    1    1    2    0    0 -0.29281296747E+02 -0.46076180849E+02  0.12736880853E+03  0.13857569111E+03  0.00000000000E+00 0.  1.
</event>
<event>
 7    1  0.2856214E-009  0.8234510E+02  0.7561462E-02  0.1322525E+00
         -1   -1    0    0    0  501 -0.00000000000E+00  0.00000000000E+00  0.56718964302E+02  0.56718964302E+02  0.00000000000E+00 0.  1.
          1   -1    0    0  501    0  0.00000000000E+00 -0.00000000000E+00 -0.27943116734E+03  0.27943116734E+03  0.00000000000E+00 0. -1.
         25    2    1    2    0    0  0.31024811551E+02 -0.29525425376E+02 -0.59114768903E+02  0.14481866712E+03  0.12507438095E+03 0.  0.
          5    1    3    3  502    0  0.51883359960E+02 -0.24433351194E+02  0.21423960101E+02  0.61362286118E+02  0.41800000000E+01 0. -1.
         -5    1    3    3    0  502 -0.20858548408E+02 -0.50920741823E+01 -0.80538729003E+02  0.83456381006E+02  0.41800000000E+01 0. -1.
        -11    1    1    2    0    0 -0.17806901130E+01  0.49735337088E+02 -0.14020876192E+03  0.14877927117E+03  0.00000000000E+00 0. -1.
         11    1    1    2    0    0 -0.29244121438E+02 -0.20209911712E+02 -0.23388672213E+02  0.42552193340E+02  0.00000000000E+00 0.  1.
</event>
<event>
 7    1  0.2856214E-009  0.2280245E+03  0.7561462E-02  0.1128038E+00
         -1   -1    0    0    0  501 -0.00000000000E+00  0.00000000000E+00  0.86806156288E+02  0.86806156288E+02  0.00000000000E+00 0.  1.
          1   -1    0    0  501    0  0.00000000000E+00 -0.00000000000E+00 -0.62962596337E+03  0.62962596337E+03  0.00000000000E+00 0. -1.
         25    2    1    2    0    0  0.42844606175E+02 -0.20393586526E+03 -0.34756914408E+03  0.42411951738E+03  0.12509019823E+03 0.  0.
          5    1    3    3  502    0 -0.26115021142E+02 -0.64036588370E+00 -0.23565170704E+02  0.35428718126E+02  0.41800000000E+01 0. -1.
         -5    1    3    3    0  502  0.68959627318E+02 -0.20329549938E+03 -0.32400397337E+03  0.38869079926E+03  0.41800000000E+01 0. -1.
        -11    1    1    2    0    0  0.12238038273E+02  0.46626106853E+02 -0.25998251665E+02  0.54769266114E+02  0.00000000000E+00 0. -1.
         11    1    1    2    0    0 -0.55082644448E+02  0.15730975841E+03 -0.16925241134E+03  0.23754333616E+03  0.00000000000E+00 0.  1.
</event>
<event>
 7    1  0.2856214E-009  0.1799337E+03  0.7561462E-02  0.1167867E+00
         -1   -1    0    0    0  501 -0.00000000000E+00  0.00000000000E+00  0.14268432789E+02  0.14268432789E+02  0.00000000000E+00 0.  1.
          1   -1    0    0  501    0  0.00000000000E+00 -0.00000000000E+00 -0.23270125147E+04  0.23270125147E+04  0.00000000000E+00 0. -1.
         25    2    1    2    0    0 -0.39473070682E+02  0.13897628809E+03 -0.13739998969E+04  0.13872258450E+04  0.12508915396E+03 0.  0.
          5    1    3    3  502    0 -0.27526513317E+02  0.16179948210E+03 -0.12257882780E+04  0.12367340685E+04  0.41800000000E+01 0.  1.
         -5    1    3    3    0  502 -0.11946557365E+02 -0.22823194008E+02 -0.14821161897E+03  0.15049177657E+03  0.41800000000E+01 0.  1.
        -11    1    1    2    0    0 -0.28183302821E+01 -0.12502843825E+03 -0.72709333801E+03  0.73777013733E+03  0.00000000000E+00 0. -1.
         11    1    1    2    0    0  0.42291400964E+02 -0.13947849837E+02 -0.21165084693E+03  0.21628496507E+03  0.00000000000E+00 0.  1.
</event>
<event>
 7    1  0.2856214E-009  0.1517844E+03  0.7561462E-02  0.1198297E+00
         -2   -1    0    0    0  501 -0.00000000000E+00  0.00000000000E+00  0.37480132586E+02  0.37480132586E+02  0.00000000000E+00 0.  1.
          2   -1    0    0  501    0  0.00000000000E+00 -0.00000000000E+00 -0.10850052159E+04  0.10850052159E+04  0.00000000000E+00 0. -1.
         25    2    1    2    0    0 -0.69618206736E+02  0.10084830812E+03 -0.87377259389E+03  0.89114717109E+03  0.12509060216E+03 0.  0.
          5    1    3    3  502    0 -0.75552556726E+02  0.12576709126E+03 -0.68118211739E+03  0.69681568548E+03  0.41800000000E+01 0. -1.
         -5    1    3    3    0  502  0.59343499893E+01 -0.24918783141E+02 -0.19259047650E+03  0.19433148561E+03  0.41800000000E+01 0. -1.
        -11    1    1    2    0    0  0.67037377860E+02 -0.60173935026E+02 -0.54436128354E+02  0.10525305011E+03  0.00000000000E+00 0.  1.
         11    1    1    2    0    0  0.25808288764E+01 -0.40674373092E+02 -0.11931636105E+03  0.12608512727E+03  0.00000000000E+00 0. -1.
</event>
<event>
 7    1  0.2856214E-009  0.1112121E+03  0.7561462E-02  0.1258342E+00
          2   -1    0    0  501    0  0.00000000000E+00  0.00000000000E+00  0.26658049404E+03  0.26658049404E+03  0.00000000000E+00 0.  1.
         -2   -1    0    0    0  501 -0.00000000000E+00 -0.00000000000E+00 -0.97293660554E+02  0.97293660554E+02  0.00000000000E+00 0. -1.
         25    2    1    2    0    0  0.42630543722E+01  0.97211399915E+02  0.13458879840E+02  0.15904863407E+03  0.12508835536E+03 0.  0.
          5    1    3    3  502    0  0.26712667673E+02  0.74458866666E+02 -0.45862617681E+02  0.91534373544E+02  0.41800000000E+01 0.  1.
         -5    1    3    3    0  502 -0.22449613301E+02  0.22752533249E+02  0.59321497521E+02  0.67514260529E+02  0.41800000000E+01 0.  1.
        -11    1    1    2    0    0 -0.19214463855E+02 -0.85009188977E+01 -0.40286436994E+01  0.21393719018E+02  0.00000000000E+00 0. -1.
         11    1    1    2    0    0  0.14951409483E+02 -0.88710481017E+02  0.15985659735E+03  0.18343180150E+03  0.00000000000E+00 0.  1.
</event>
<event>
 7    1  0.2856214E-009  0.1257820E+03  0.7561462E-02  0.1233852E+00
         -2   -1    0    0    0  501 -0.00000000000E+00  0.00000000000E+00  0.44943990163E+02  0.44943990163E+02  0.00000000000E+00 0.  1.
          2   -1    0    0  501    0  0.00000000000E+00 -0.00000000000E+00 -0.57006920025E+03  0.57006920025E+03  0.00000000000E+00 0. -1.
         25    2    1    2    0    0 -0.48350374762E+02  0.92017941825E+02 -0.17993383312E+03  0.24254991217E+03  0.12509682345E+03 0.  0.
          5    1    3    3  502    0 -0.60411703470E+02  0.90901117987E+02 -0.19454897464E+03  0.22311289318E+03  0.41800000000E+01 0.  1.
         -5    1    3    3    0  502  0.12061328708E+02  0.11168238377E+01  0.14615141524E+02  0.19437018996E+02  0.41800000000E+01 0.  1.
        -11    1    1    2    0    0  0.47710865925E+02 -0.11594637100E+02 -0.20540328937E+03  0.21119013618E+03  0.00000000000E+00 0.  1.
         11    1    1    2    0    0  0.63950883636E+00 -0.80423304725E+02 -0.13978808760E+03  0.16127314206E+03  0.00000000000E+00 0. -1.
</event>
<event>
 7    1  0.2856214E-009  0.1534512E+03  0.7561462E-02  0.1196295E+00
          1   -1    0    0  501    0  0.00000000000E+00  0.00000000000E+00  0.69088290337E+02  0.69088290337E+02  0.00000000000E+00 0. -1.
         -1   -1    0    0    0  501 -0.00000000000E+00 -0.00000000000E+00 -0.45217459721E+03  0.45217459721E+03  0.00000000000E+00 0.  1.
         25    2    1    2    0    0  0.11497490527E+03 -0.77948464667E+02 -0.21450175368E+03  0.28452414233E+03  0.12509113978E+03 0.  0.
          5    1    3    3  502    0  0.51244002855E+02 -0.22101046840E+02 -0.18721872297E+03  0.19540400900E+03  0.41800000000E+01 0. -1.
         -5    1    3    3    0  502  0.63730902415E+02 -0.55847417827E+02 -0.27283030702E+02  0.89120133331E+02  0.41800000000E+01 0. -1.
        -11    1    1    2    0    0 -0.86918463892E+02  0.98465279821E+02 -0.12976678074E+03  0.18463382160E+03  0.00000000000E+00 0. -1.
         11    1    1    2    0    0 -0.28056441379E+02 -0.20516815153E+02 -0.38817772460E+02  0.52104923621E+02  0.00000000000E+00 0.  1.
</event>
<event>
 7    1  0.2856214E-009  0.8901814E+02  0.7561462E-02  0.1305247E+00
         -3   -1    0    0    0  501 -0.00000000000E+00  0.00000000000E+00  0.12651273284E+03  0.12651273284E+03  0.00000000000E+00 0.  1.
          3   -1    0    0  501    0  0.00000000000E+00 -0.00000000000E+00 -0.12886225391E+03  0.12886225391E+03  0.00000000000E+00 0. -1.
         25    2    1    2    0    0 -0.57509472627E+02  0.32079097453E+02 -0.12496345370E+02  0.14190970111E+03  0.12508315909E+03 0.  0.
          5    1    3    3  502    0 -0.18886751981E+01  0.48205719934E+02 -0.52483830927E+02  0.71409967352E+02  0.41800000000E+01 0.  1.
         -5    1    3    3    0  502 -0.55620797429E+02 -0.16126622482E+02  0.39987485557E+02  0.70499733762E+02  0.41800000000E+01 0.  1.
        -11    1    1    2    0    0  0.20628634127E+01 -0.12621670117E+02  0.43882573336E+02  0.45708229069E+02  0.00000000000E+00 0.  1.
         11    1    1    2    0    0  0.55446609214E+02 -0.19457427336E+02 -0.33735749029E+02  0.67757056566E+02  0.00000000000E+00 0. -1.
</event>
<event>
 7    1  0.2856214E-009  0.1650211E+03  0.7561462E-02  0.1183142E+00
         -2   -1    0    0    0  501 -0.00000000000E+00  0.00000000000E+00  0.26945333686E+02  0.26945333686E+02  0.00000000000E+00 0. -1.
          2   -1    0    0  501    0  0.00000000000E+00 -0.00000000000E+00 -0.14324189313E+04  0.14324189313E+04  0.00000000000E+00 0.  1.
         25    2    1    2    0    0 -0.32482470216E+02  0.14964968066E+03 -0.94557147809E+03  0.96602423332E+03  0.12508901391E+03 0.  0.
          5    1    3    3  502    0  0.21895560563E+02  0.32314171114E+02 -0.51340032202E+03  0.51489900396E+03  0.41800000000E+01 0.  1.
         -5    1    3    3    0  502 -0.54378030778E+02  0.11733550955E+03 -0.43217115606E+03  0.45112522936E+03  0.41800000000E+01 0.  1.
        -11    1    1    2    0    0 -0.65985613314E+01 -0.88996376719E+02 -0.14486939639E+03  0.17015004581E+03  0.00000000000E+00 0. -1.
         11    1    1    2    0    0  0.39081031547E+02 -0.60653303941E+02 -0.31503272314E+03  0.32318998585E+03  0.00000000000E+00 0.  1.
</event>
<event>
 7    1  0.2856214E-009  0.1385993E+03  0.7561462E-02  0.1215226E+00
         -2   -1    0    0    0  501 -0.00000000000E+00  0.00000000000E+00  0.15633547209E+04  0.15633547209E+04  0.00000000000E+00 0. -1.
          2   -1    0    0  501    0  0.00000000000E+00 -0.00000000000E+00 -0.10919447823E+03  0.10919447823E+03  0.00000000000E+00 0.  1.
         25    2    1    2    0    0 -0.55226645064E+01  0.11634242532E+03  0.15103484636E+04  0.15199883624E+04  0.12508429438E+03 0.  0.
          5    1    3    3  502    0 -0.35358140103E+02  0.34810454194E+02  0.17874592412E+03  0.18555199698E+03  0.41800000000E+01 0. -1.
         -5    1    3    3    0  502  0.29835475597E+02  0.81531971130E+02  0.13316025395E+04  0.13344363654E+04  0.41800000000E+01 0. -1.
        -11    1    1    2    0    0  0.41346727655E+02 -0.76098824567E+02 -0.44739360551E+02  0.97479194554E+02  0.00000000000E+00 0.  1.
         11    1    1    2    0    0 -0.35824063149E+02 -0.40243600757E+02 -0.11448860329E+02  0.55081642180E+02  0.00000000000E+00 0. -1.
</event>
<event>
 7    1  0.2856214E-009  0.1052764E+03  0.7561462E-02  0.1269576E+00
         -4   -1    0    0    0  501 -0.00000000000E+00  0.00000000000E+00  0.14220940571E+03  0.14220940571E+03  0.00000000000E+00 0.  1.
          4   -1    0    0  501    0  0.00000000000E+00 -0.00000000000E+00 -0.93906351217E+02  0.93906351217E+02  0.00000000000E+00 0. -1.
         25    2    1    2    0    0 -0.59153511614E+01 -0.22913698402E+02  0.57263639509E+02  0.13959319100E+03  0.12508839119E+03 0.  0.
          5    1    3    3  502    0  0.25299085142E+01  0.49383689337E+02  0.42205738892E+02  0.65145575483E+02  0.41800000000E+01 0. -1.
         -5    1    3    3    0  502 -0.84452596756E+01 -0.72297387739E+02  0.15057900617E+02  0.74447615515E+02  0.41800000000E+01 0. -1.
        -11    1    1    2    0    0 -0.30725055024E+02  0.37589386276E+02  0.14422659403E+02  0.50645869240E+02  0.00000000000E+00 0.  1.
         11    1    1    2    0    0  0.36640406185E+02 -0.14675687873E+02 -0.23383244416E+02  0.45876696692E+02  0.00000000000E+00 0. -1.
</event>
<event>
 7    1  0.2856214E-009  0.2389473E+03  0.7561462E-02  0.1120496E+00
         -2   -1    0    0    0  501 -0.00000000000E+00  0.00000000000E+00  0.10949148590E+03  0.10949148590E+03  0.00000000000E+00 0.  1.
          2   -1    0    0  501    0  0.00000000000E+00 -0.00000000000E+00 -0.73642559961E+03  0.73642559961E+03  0.00000000000E+00 0. -1.
         25    2    1    2    0    0 -0.20047694369E+03 -0.76885617446E+02 -0.96654421059E+02  0.26663243307E+03  0.12509346158E+03 0.  0.
          5    1    3    3  502    0 -0.14528344742E+02 -0.56956355814E+02 -0.74712104900E+01  0.59400258036E+02  0.41800000000E+01 0. -1.
         -5    1    3    3    0  502 -0.18594859895E+03 -0.19929261632E+02 -0.89183210569E+02  0.20723217503E+03  0.41800000000E+01 0. -1.
        -11    1    1    2    0    0  0.15971655111E+03  0.96569387627E+02 -0.40094018524E+03  0.44225338378E+03  0.00000000000E+00 0.  1.
         11    1    1    2    0    0  0.40760392588E+02 -0.19683770181E+02 -0.12933950741E+03  0.13703126866E+03  0.00000000000E+00 0. -1.
</event>
<event>
 7    1  0.2856214E-009  0.1290140E+03  0.7561462E-02  0.1228926E+00
         -1   -1    0    0    0  501 -0.00000000000E+00  0.00000000000E+00  0.80685969984E+03  0.80685969984E+03  0.00000000000E+00 0.  1.
          1   -1    0    0  501    0  0.00000000000E+00 -0.00000000000E+00 -0.21836573554E+02  0.21836573554E+02  0.00000000000E+00 0. -1.
         25    2    1    2    0    0  0.42627387982E+02 -0.61738523148E+02  0.45910280146E+03  0.48171577484E+03  0.12508383579E+03 0.  0.
          5    1    3    3  502    0  0.69754795034E+02 -0.81217049496E+02  0.39551424876E+03  0.40976936676E+03  0.41800000000E+01 0.  1.
         -5    1    3    3    0  502 -0.27127407052E+02  0.19478526348E+02  0.63588552696E+02  0.71946408083E+02  0.41800000000E+01 0.  1.
        -11    1    1    2    0    0  0.16144302713E+02  0.55880991591E+02  0.13157690215E+03  0.14386036602E+03  0.00000000000E+00 0. -1.
         11    1    1    2    0    0 -0.58771690695E+02  0.58575315568E+01  0.19434342268E+03  0.20312013253E+03  0.00000000000E+00 0.  1.
</event>
<event>
 7    1  0.2856214E-009  0.1309076E+03  0.7561462E-02  0.1226115E+00
          1   -1    0    0  501    0  0.00000000000E+00  0.00000000000E+00  0.50364887304E+03  0.50364887304E+03  0.00000000000E+00 0. -1.
         -1   -1    0    0    0  501 -0.00000000000E+00 -0.00000000000E+00 -0.34858530602E+02  0.34858530602E+02  0.00000000000E+00 0.  1.
         25    2    1    2    0    0  0.42396318494E+01 -0.72228595405E+02  0.21776342141E+03  0.26134430434E+03  0.12507994737E+03 0.  0.
          5    1    3    3  502    0  0.31756580446E+02 -0.10007652618E+03  0.15533152370E+03  0.18753438657E+03  0.41800000000E+01 0. -1.
         -5    1    3    3    0  502 -0.27516948597E+02  0.27847930773E+02  0.62431897714E+02  0.73809917765E+02  0.41800000000E+01 0. -1.
        -11    1    1    2    0    0  0.28831079787E+02  0.78569695983E+02  0.18475139585E+03  0.20282383133E+03  0.00000000000E+00 0.  1.
         11    1    1    2    0    0 -0.33070711636E+02 -0.63411005782E+01  0.66275525174E+02  0.74339267966E+02  0.00000000000E+00 0. -1.
</event>
<event>
 7    1  0.2856214E-009  0.2099533E+03  0.7561462E-02  0.1141603E+00
         -2   -1    0    0    0  501 -0.00000000000E+00  0.00000000000E+00  0.31406566278E+02  0.31406566278E+02  0.00000000000E+00 0.  1.
          2   -1    0    0  501    0  0.00000000000E+00 -0.00000000000E+00 -0.17892932351E+04  0.17892932351E+04  0.00000000000E+00 0. -1.
         25    2    1    2    0    0  0.75239162130E+02  0.18306898952E+03 -0.11877812067E+04  0.12106394048E+04  0.12509351269E+03 0.  0.
          5    1    3    3  502    0  0.38608497877E+01  0.63213870192E+02 -0.71167502432E+03  0.71449962365E+03  0.41800000000E+01 0. -1.
         -5    1    3    3    0  502  0.71378312343E+02  0.11985511933E+03 -0.47610618239E+03  0.49613978112E+03  0.41800000000E+01 0. -1.
        -11    1    1    2    0    0 -0.28714357117E+02 -0.16416326343E+03 -0.42478909676E+03  0.45631115272E+03  0.00000000000E+00 0.  1.
         11    1    1    2    0    0 -0.46524805013E+02 -0.18905726098E+02 -0.14531636538E+03  0.15374924392E+03  0.00000000000E+00 0. -1.
</event>
<event>
 7    1  0.2856214E-009  0.1103911E+03  0.7561462E-02  0.1259847E+00
         -2   -1    0    0    0  501 -0.00000000000E+00  0.00000000000E+00  0.52094729731E+02  0.52094729731E+02  0.00000000000E+00 0.  1.
          2   -1    0    0  501    0  0.00000000000E+00 -0.00000000000E+00 -0.25157159737E+03  0.25157159737E+03  0.00000000000E+00 0. -1.
         25    2    1    2    0    0  0.32791688624E+02  0.20933225599E+02 -0.10831124183E+03  0.16998123403E+03  0.12509516393E+03 0.  0.
          5    1    3    3  502    0  0.54558398087E+02  0.60720794341E+02 -0.49359375416E+02  0.95485360180E+02  0.41800000000E+01 0.  1.
         -5    1    3    3    0  502 -0.21766709462E+02 -0.39787568742E+02 -0.58951866416E+02  0.74495873853E+02  0.41800000000E+01 0.  1.
        -11    1    1    2    0    0  0.55374248933E+01 -0.46885211075E+02 -0.65549381749E+02  0.80781232595E+02  0.00000000000E+00 0. -1.
         11    1    1    2    0    0 -0.38329113518E+02  0.25951985476E+02 -0.25616244059E+02  0.52903860473E+02  0.00000000000E+00 0.  1.
</event>
<event>
 7    1  0.2856214E-009  0.1119827E+03  0.7561462E-02  0.1256942E+00
          2   -1    0    0  501    0  0.00000000000E+00  0.00000000000E+00  0.17866931706E+03  0.17866931706E+03  0.00000000000E+00 0. -1.
         -2   -1    0    0    0  501 -0.00000000000E+00 -0.00000000000E+00 -0.83037325618E+02  0.83037325618E+02  0.00000000000E+00 0.  1.
         25    2    1    2    0    0 -0.37244995918E+02  0.10509042379E+02  0.10784768346E+02  0.13138588778E+03  0.12509320760E+03 0.  0.
          5    1    3    3  502    0  0.21659117204E+02  0.50162583263E+02 -0.13117508639E+02  0.56346637438E+02  0.41800000000E+01 0.  1.
         -5    1    3    3    0  502 -0.58904113122E+02 -0.39653540884E+02  0.23902276985E+02  0.75039250345E+02  0.41800000000E+01 0.  1.
        -11    1    1    2    0    0 -0.82629084519E+01 -0.41928996034E+02  0.28479831610E+02  0.51355790064E+02  0.00000000000E+00 0.  1.
         11    1    1    2    0    0  0.45507904369E+02  0.31419953655E+02  0.56367391483E+02  0.78964964829E+02  0.00000000000E+00 0. -1.
</event>
<event>
 7    1  0.2856214E-009  0.1638520E+03  0.7561462E-02  0.1184415E+00
          1   -1    0    0  501    0  0.00000000000E+00  0.00000000000E+00  0.39455138407E+03  0.39455138407E+03  0.00000000000E+00 0. -1.
         -1   -1    0    0    0  501 -0.00000000000E+00 -0.00000000000E+00 -0.97653920467E+02  0.97653920467E+02  0.00000000000E+00 0.  1.
         25    2    1    2    0    0  0.80061513725E+02 -0.14139384174E+03  0.16745208428E+03  0.26474511083E+03  0.12509080189E+03 0.  0.
          5    1    3    3  502    0  0.42271714848E+02 -0.92520087954E+02  0.17490629842E+03  0.20237724718E+03  0.41800000000E+01 0. -1.
         -5    1    3    3    0  502  0.37789798876E+02 -0.48873753786E+02 -0.74542141325E+01  0.62367863652E+02  0.41800000000E+01 0. -1.
        -11    1    1    2    0    0 -0.32346295174E+02  0.79486144726E+02  0.12386804597E+02  0.86705034127E+02  0.00000000000E+00 0.  1.
         11    1    1    2    0    0 -0.47715218551E+02  0.61907697014E+02  0.11705857473E+03  0.14075515958E+03  0.00000000000E+00 0. -1.
</event>
<event>
 7    1  0.2856214E-009  0.6671335E+02  0.7561462E-02  0.1371640E+00
         -2   -1    0    0    0  501 -0.00000000000E+00  0.00000000000E+00  0.37595581754E+02  0.37595581754E+02  0.00000000000E+00 0.  1.
          2   -1    0    0  501    0  0.00000000000E+00 -0.00000000000E+00 -0.44817388627E+03  0.44817388627E+03  0.00000000000E+00 0. -1.
         25    2    1    2    0    0 -0.56901922315E+02  0.77303517596E+01 -0.30564246677E+03  0.33520497481E+03  0.12508984986E+03 0.  0.
          5    1    3    3  502    0 -0.35577709109E+02  0.14045327733E+02 -0.11452097520E+02  0.40145579510E+02  0.41800000000E+01 0.  1.
         -5    1    3    3    0  502 -0.21324213206E+02 -0.63149759734E+01 -0.29419036925E+03  0.29505939530E+03  0.41800000000E+01 0.  1.
        -11    1    1    2    0    0  0.24528005967E+02  0.18444018548E+02  0.67060546023E+01  0.31412991981E+02  0.00000000000E+00 0.  1.
         11    1    1    2    0    0  0.32373916348E+02 -0.26174370307E+02 -0.11164189235E+03  0.11915150124E+03  0.00000000000E+00 0. -1.
</event>
<event>
 7    1  0.2856214E-009  0.8530974E+02  0.7561462E-02  0.1314625E+00
          1   -1    0    0  501    0  0.00000000000E+00  0.00000000000E+00  0.18182071945E+02  0.18182071945E+02  0.00000000000E+00 0. -1.
         -1   -1    0    0    0  501 -0.00000000000E+00 -0.00000000000E+00 -0.97243185412E+03  0.97243185412E+03  0.00000000000E+00 0.  1.
         25    2    1    2    0    0  0.93316438344E+01  0.71011361766E+01 -0.80500781124E+03  0.81475269048E+03  0.12508742855E+03 0.  0.
          5    1    3    3  502    0  0.43032325936E+02  0.22563189078E+01 -0.10072711092E+03  0.10963710743E+03  0.41800000000E+01 0. -1.
         -5    1    3    3    0  502 -0.33700682102E+02  0.48448172688E+01 -0.70428070032E+03  0.70511558305E+03  0.41800000000E+01 0. -1.
        -11    1    1    2    0    0  0.40475849318E+02  0.74016174396E+01 -0.66816997226E+02  0.78470309271E+02  0.00000000000E+00 0. -1.
         11    1    1    2    0    0 -0.49807493152E+02 -0.14502753616E+02 -0.82424973706E+02  0.97390926308E+02  0.00000000000E+00 0.  1.
</event>
<event>
 7    1  0.2856214E-009  0.1068833E+03  0.7561462E-02  0.1266453E+00
         -1   -1    0    0    0  501 -0.00000000000E+00  0.00000000000E+00  0.46818568252E+02  0.46818568252E+02  0.00000000000E+00 0.  1.
          1   -1    0    0  501    0  0.00000000000E+00 -0.00000000000E+00 -0.28536756427E+03  0.28536756427E+03  0.00000000000E+00 0. -1.
         25    2    1    2    0    0  0.16521178976E+02  0.60624897363E+01 -0.18647153520E+03  0.22523005382E+03  0.12508893064E+03 0.  0.
          5    1    3    3  502    0  0.61136413486E+02  0.31412574039E+02 -0.71554304930E+02  0.99307108586E+02  0.41800000000E+01 0.  1.
         -5    1    3    3    0  502 -0.44615234510E+02 -0.25350084302E+02 -0.11491723027E+03  0.12592294524E+03  0.41800000000E+01 0.  1.
        -11    1    1    2    0    0 -0.48413887665E+02  0.19853171918E+02 -0.29035282105E+02  0.59842297424E+02  0.00000000000E+00 0.  1.
         11    1    1    2    0    0  0.31892708689E+02 -0.25915661654E+02 -0.23042178721E+02  0.47113781282E+02  0.00000000000E+00 0. -1.
</event>
<event>
 7    1  0.2856214E-009  0.2272769E+03  0.7561462E-02  0.1128571E+00
          2   -1    0    0  501    0  0.00000000000E+00  0.00000000000E+00  0.27767892790E+03  0.27767892790E+03  0.00000000000E+00 0. -1.
         -2   -1    0    0    0  501 -0.00000000000E+00 -0.00000000000E+00 -0.22018043946E+03  0.22018043946E+03  0.00000000000E+00 0.  1.
         25    2    1    2    0    0 -0.18930297290E+03 -0.11340156689E+03  0.55118141549E+02  0.25957366761E+03  0.12507976842E+03 0.  0.
          5    1    3    3  502    0 -0.21041054749E+02  0.69659368062E+01 -0.28540737858E+02  0.36377140872E+02  0.41800000000E+01 0.  1.
         -5    1    3    3    0  502 -0.16826191815E+03 -0.12036750370E+03  0.83658879407E+02  0.22319652674E+03  0.41800000000E+01 0.  1.
        -11    1    1    2    0    0  0.91890147939E+02  0.29498367328E+02  0.39788118300E+02  0.10438892336E+03  0.00000000000E+00 0. -1.
         11    1    1    2    0    0  0.97412824958E+02  0.83903199566E+02 -0.37407771403E+02  0.13389677638E+03  0.00000000000E+00 0.  1.
</event>
<event>
 7    1  0.2856214E-009  0.2024957E+03  0.7561462E-02  0.1147650E+00
         -2   -1    0    0    0  501 -0.00000000000E+00  0.00000000000E+00  0.24160838437E+03  0.24160838437E+03  0.00000000000E+00 0.  1.
          2   -1    0    0  501    0  0.00000000000E+00 -0.00000000000E+00 -0.19733535884E+03  0.19733535884E+03  0.00000000000E+00 0. -1.
         25    2    1    2    0    0 -0.11488197343E+03  0.13598594439E+03  0.87505987351E+02  0.23451397926E+03  0.12509781676E+03 0.  0.
          5    1    3    3  502    0 -0.55940800350E+02 -0.11998585925E+02  0.14097844227E+02  0.59072504770E+02  0.41800000000E+01 0.  1.
         -5    1    3    3    0  502 -0.58941173076E+02  0.14798453031E+03  0.73408143124E+02  0.17544147449E+03  0.41800000000E+01 0.  1.
        -11    1    1    2    0    0  0.48842467992E+01 -0.45738946102E+02  0.18178541426E+02  0.49460756420E+02  0.00000000000E+00 0.  1.
         11    1    1    2    0    0  0.10999772663E+03 -0.90246998284E+02 -0.61411503251E+02  0.15496900753E+03  0.00000000000E+00 0. -1.
</event>
<event>
 7    1  0.2856214E-009  0.1587036E+03  0.7561462E-02  0.1190168E+00
          2   -1    0    0  501    0  0.00000000000E+00  0.00000000000E+00  0.11702286710E+04  0.11702286710E+04  0.00000000000E+00 0. -1.
         -2   -1    0    0    0  501 -0.00000000000E+00 -0.00000000000E+00 -0.26684515786E+02  0.26684515786E+02  0.00000000000E+00 0.  1.
         25    2    1    2    0    0  0.28274396951E+02  0.11500876262E+03  0.36321710171E+03  0.40199665734E+03  0.12509273574E+03 0.  0.
          5    1    3    3  502    0  0.18321922788E+02  0.14105326352E+03  0.27913407652E+03  0.31331297624E+03  0.41800000000E+01 0. -1.
         -5    1    3    3    0  502  0.99524741630E+01 -0.26044500895E+02  0.84083025192E+02  0.88683681105E+02  0.41800000000E+01 0. -1.
        -11    1    1    2    0    0 -0.39370529541E+02 -0.90770105986E+01  0.13706105275E+03  0.14289213729E+03  0.00000000000E+00 0.  1.
         11    1    1    2    0    0  0.11096132590E+02 -0.10593175202E+03  0.64326600072E+03  0.65202439213E+03  0.00000000000E+00 0. -1.
</event>
<event>
 7    1  0.2856214E-009  0.6819328E+02  0.7561462E-02  0.1366347E+00
          3   -1    0    0  501    0  0.00000000000E+00  0.00000000000E+00  0.65153703872E+02  0.65153703872E+02  0.00000000000E+00 0. -1.
         -3   -1    0    0    0  501 -0.00000000000E+00 -0.00000000000E+00 -0.18840312548E+03  0.18840312548E+03  0.00000000000E+00 0.  1.
         25    2    1    2    0    0 -0.11275406416E+02  0.21673635769E+02 -0.65055178133E+02  0.14310743528E+03  0.12510268005E+03 0.  0.
          5    1    3    3  502    0 -0.29372416086E+02  0.18418405540E+02  0.30099495802E+02  0.46102370188E+02  0.41800000000E+01 0.  1.
         -5    1    3    3    0  502  0.18097009669E+02  0.32552302289E+01 -0.95154673935E+02  0.97005065097E+02  0.41800000000E+01 0.  1.
        -11    1    1    2    0    0  0.45349401450E+02 -0.88667182754E+01 -0.57859363635E+02  0.74046558766E+02  0.00000000000E+00 0.  1.
         11    1    1    2    0    0 -0.34073995033E+02 -0.12806917494E+02 -0.33487983679E+00  0.36402835298E+02  0.00000000000E+00 0. -1.
</event>
<event>
 7    1  0.2856214E-009  0.2128910E+03  0.7561462E-02  0.1139297E+00
          1   -1    0    0  501    0  0.00000000000E+00  0.00000000000E+00  0.24077961355E+03  0.24077961355E+03  0.00000000000E+00 0. -1.
         -1   -1    0    0    0  501 -0.00000000000E+00 -0.00000000000E+00 -0.22200572526E+03  0.22200572526E+03  0.00000000000E+00 0.  1.
         25    2    1    2    0    0 -0.50889527809E+02 -0.19748043873E+03  0.96329737159E+01  0.23943316158E+03  0.12508867640E+03 0.  0.
          5    1    3    3  502    0 -0.13518677472E+02 -0.65005285166E+02 -0.55929417912E+02  0.86913830476E+02  0.41800000000E+01 0.  1.
         -5    1    3    3    0  502 -0.37370850337E+02 -0.13247515356E+03  0.65562391627E+02  0.15251933111E+03  0.41800000000E+01 0.  1.
        -11    1    1    2    0    0 -0.65647298228E+01  0.14041216336E+03 -0.71596890756E+01  0.14074776177E+03  0.00000000000E+00 0.  1.
         11    1    1    2    0    0  0.57454257632E+02  0.57068275367E+02  0.16300603655E+02  0.82604415457E+02  0.00000000000E+00 0. -1.
</event>
<event>
 7    1  0.2856214E-009  0.1490996E+03  0.7561462E-02  0.1201584E+00
          1   -1    0    0  501    0  0.00000000000E+00  0.00000000000E+00  0.30114610316E+03  0.30114610316E+03  0.00000000000E+00 0. -1.
         -1   -1    0    0    0  501 -0.00000000000E+00 -0.00000000000E+00 -0.78228223366E+02  0.78228223366E+02  0.00000000000E+00 0.  1.
         25    2    1    2    0    0 -0.17658966751E+02  0.10458118666E+03  0.91351303166E+02  0.18773028193E+03  0.12509410239E+03 0.  0.
          5    1    3    3  502    0 -0.52996193106E+02 -0.39448901664E+00  0.29574979402E+02  0.60835054960E+02  0.41800000000E+01 0. -1.
         -5    1    3    3    0  502  0.35337226355E+02  0.10497567568E+03  0.61776323763E+02  0.12689522697E+03  0.41800000000E+01 0. -1.
        -11    1    1    2    0    0  0.38165828861E+01  0.14151707360E+02  0.35100836018E+02  0.38038215196E+02  0.00000000000E+00 0. -1.
         11    1    1    2    0    0  0.13842383865E+02 -0.11873289402E+03  0.96465740608E+02  0.15360582940E+03  0.00000000000E+00 0.  1.
</event>
<event>
 7    1  0.2856214E-009  0.1019838E+03  0.7561462E-02  0.1276179E+00
         -2   -1    0    0    0  501 -0.00000000000E+00  0.00000000000E+00  0.14615381469E+02  0.14615381469E+02  0.00000000000E+00 0.  1.
          2   -1    0    0  501    0  0.00000000000E+00 -0.00000000000E+00 -0.10241282429E+04  0.10241282429E+04  0.00000000000E+00 0. -1.
         25    2    1    2    0    0 -0.21777061213E+01 -0.13101954268E+02 -0.80757731233E+03  0.81731532372E+03  0.12508724711E+03 0.  0.
          5    1    3    3  502    0 -0.57333320545E+02  0.15288456717E+01 -0.57225660951E+03  0.57513871939E+03  0.41800000000E+01 0. -1.
         -5    1    3    3    0  502  0.55155614423E+02 -0.14630799940E+02 -0.23532070282E+03  0.24217660433E+03  0.41800000000E+01 0. -1.
        -11    1    1    2    0    0 -0.26175292385E+01  0.50989123320E+02 -0.94552420048E+02  0.10745651350E+03  0.00000000000E+00 0.  1.
         11    1    1    2    0    0  0.47952353598E+01 -0.37887169052E+02 -0.10738312904E+03  0.11397178714E+03  0.00000000000E+00 0. -1.
</event>
<event>
 7    1  0.2856214E-009  0.2260481E+03  0.7561462E-02  0.1129453E+00
          1   -1    0    0  501    0  0.00000000000E+00  0.00000000000E+00  0.90501655820E+03  0.90501655820E+03  0.00000000000E+00 0. -1.
         -1   -1    0    0    0  501 -0.00000000000E+00 -0.00000000000E+00 -0.64265480027E+02  0.64265480027E+02  0.00000000000E+00 0.  1.
         25    2    1    2    0    0  0.63824363264E+02  0.19971405643E+03  0.53211132768E+03  0.58544797482E+03  0.12509041729E+03 0.  0.
          5    1    3    3  502    0  0.88383757333E+02  0.19822335572E+03  0.49731592218E+03  0.54262766808E+03  0.41800000000E+01 0. -1.
         -5    1    3    3    0  502 -0.24559394069E+02  0.14907007096E+01  0.34795405501E+02  0.42820306743E+02  0.41800000000E+01 0. -1.
        -11    1    1    2    0    0 -0.55536905449E+02 -0.15649298767E+03  0.29363770599E+03  0.33733885847E+03  0.00000000000E+00 0. -1.
         11    1    1    2    0    0 -0.82874578154E+01 -0.43221068766E+02  0.15002044503E+02  0.46495204931E+02  0.00000000000E+00 0.  1.
</event>
<event>
 7    1  0.2856214E-009  0.9729696E+02  0.7561462E-02  0.1286085E+00
          2   -1    0    0  501    0  0.00000000000E+00  0.00000000000E+00  0.50899503328E+03  0.50899503328E+03  0.00000000000E+00 0. -1.
         -2   -1    0    0    0  501 -0.00000000000E+00 -0.00000000000E+00 -0.26895187720E+02  0.26895187720E+02  0.00000000000E+00 0.  1.
         25    2    1    2    0    0 -0.33414697685E+02  0.49280795106E+01  0.19507555678E+03  0.23418512105E+03  0.12508944830E+03 0.  0.
          5    1    3    3  502    0 -0.21715887708E+02 -0.50945209637E+02  0.15407128176E+03  0.16377553672E+03  0.41800000000E+01 0. -1.
         -5    1    3    3    0  502 -0.11698809977E+02  0.55873289148E+02  0.41004275015E+02  0.70409584324E+02  0.41800000000E+01 0. -1.
        -11    1    1    2    0    0  0.41962432359E+02  0.26245378382E+02  0.23723752327E+03  0.24234543128E+03  0.00000000000E+00 0. -1.
         11    1    1    2    0    0 -0.85477346734E+01 -0.31173457892E+02  0.49786765507E+02  0.59359668670E+02  0.00000000000E+00 0.  1.
</event>
<event>
 7    1  0.2856214E-009  0.1133013E+03  0.7561462E-02  0.1254576E+00
         -1   -1    0    0    0  501 -0.00000000000E+00  0.00000000000E+00  0.22120830925E+02  0.22120830925E+02  0.00000000000E+00 0.  1.
          1   -1    0    0  501    0  0.00000000000E+00 -0.00000000000E+00 -0.93476256085E+03  0.93476256085E+03  0.00000000000E+00 0. -1.
         25    2    1    2    0    0  0.46328163592E+02  0.73817488577E+02 -0.40005531603E+03  0.42811989857E+03  0.12508825406E+03 0.  0.
          5    1    3    3  502    0  0.37269960354E+02  0.79087256391E+02 -0.40602711285E+03  0.41535446649E+03  0.41800000000E+01 0.  1.
         -5    1    3    3    0  502  0.90582032382E+01 -0.52697678146E+01  0.59717968207E+01  0.12765432072E+02  0.41800000000E+01 0.  1.
        -11    1    1    2    0    0 -0.72305265718E+02 -0.33166890269E+02 -0.36203984716E+03  0.37067633455E+03  0.00000000000E+00 0. -1.
         11    1    1    2    0    0  0.25977102125E+02 -0.40650598307E+02 -0.15054656674E+03  0.15808715866E+03  0.00000000000E+00 0.  1.
</event>
<event>
 7    1  0.2856214E-009  0.1458367E+03  0.7561462E-02  0.1205684E+00
          1   -1    0    0  501    0  0.00000000000E+00  0.00000000000E+00  0.16466275614E+04  0.16466275614E+04  0.00000000000E+00 0. -1.
         -1   -1    0    0    0  501 -0.00000000000E+00 -0.00000000000E+00 -0.14482362055E+02  0.14482362055E+02  0.00000000000E+00 0.  1.
         25    2    1    2    0    0  0.48885549787E+02 -0.97476575585E+02  0.95639010811E+03  0.97067931751E+03  0.12507925006E+03 0.  0.
          5    1    3    3  502    0  0.80134890412E+02 -0.83388177614E+02  0.86967939114E+03  0.87734537361E+03  0.41800000000E+01 0.  1.
         -5    1    3    3    0  502 -0.31249340625E+02 -0.14088397970E+02  0.86710716973E+02  0.93333943905E+02  0.41800000000E+01 0.  1.
        -11    1    1    2    0    0 -0.61142185871E+02  0.10875144909E+03  0.58422215372E+03  0.59739498615E+03  0.00000000000E+00 0. -1.
         11    1    1    2    0    0  0.12256636084E+02 -0.11274873503E+02  0.91532937497E+02  0.93035619777E+02  0.00000000000E+00 0.  1.
</event>
<event>
 7    1  0.2856214E-009  0.2199711E+03  0.7561462E-02  0.1133905E+00
          4   -1    0    0  501    0  0.00000000000E+00  0.00000000000E+00  0.40347504171E+02  0.40347504171E+02  0.00000000000E+00 0.  1.
         -4   -1    0    0    0  501 -0.00000000000E+00 -0.00000000000E+00 -0.12923312999E+04  0.12923312999E+04  0.00000000000E+00 0. -1.
         25    2    1    2    0    0  0.17998803015E+03  0.88412911267E+02 -0.73774749028E+03  0.77468185771E+03  0.12509231542E+03 0.  0.
          5    1    3    3  502    0  0.79332455652E+02 -0.26037884273E+02 -0.24364490374E+03  0.25758866717E+03  0.41800000000E+01 0.  1.
         -5    1    3    3    0  502  0.10065557449E+03  0.11445079554E+03 -0.49410258655E+03  0.51709319054E+03  0.41800000000E+01 0.  1.
        -11    1    1    2    0    0 -0.57277032660E+02 -0.97284324731E+01 -0.24539543705E+03  0.25217894717E+03  0.00000000000E+00 0. -1.
         11    1    1    2    0    0 -0.12271099749E+03 -0.78684478794E+02 -0.26884086837E+03  0.30581799917E+03  0.00000000000E+00 0.  1.
</event>
<event>
 7    1  0.2856214E-009  0.1201876E+03  0.7561462E-02  0.1242788E+00
         -1   -1    0    0    0  501 -0.00000000000E+00  0.00000000000E+00  0.85476239743E+02  0.85476239743E+02  0.00000000000E+00 0.  1.
          1   -1    0    0  501    0  0.00000000000E+00 -0.00000000000E+00 -0.17880088976E+03  0.17880088976E+03  0.00000000000E+00 0. -1.
         25    2    1    2    0    0  0.21351106112E+02  0.46520418088E+02 -0.28747463684E+02  0.13818206710E+03  0.12509135849E+03 0.  0.
          5    1    3    3  502    0  0.69883353248E+02  0.49661933343E+02 -0.24072126547E+02  0.89145557158E+02  0.41800000000E+01 0. -1.
         -5    1    3    3    0  502 -0.48532247135E+02 -0.31415152544E+01 -0.46753371372E+01  0.49036509944E+02  0.41800000000E+01 0. -1.
        -11    1    1    2    0    0  0.36532207820E+02 -0.23484230085E+02 -0.13337533261E+02  0.45431278480E+02  0.00000000000E+00 0.  1.
         11    1    1    2    0    0 -0.57883313932E+02 -0.23036188003E+02 -0.51239653069E+02  0.80663783919E+02  0.00000000000E+00 0. -1.
</event>
<event>
 7    1  0.2856214E-009  0.9192913E+02  0.7561462E-02  0.1298246E+00
          2   -1    0    0  501    0  0.00000000000E+00  0.00000000000E+00  0.27938242348E+03  0.27938242348E+03  0.00000000000E+00 0. -1.
         -2   -1    0    0    0  501 -0.00000000000E+00 -0.00000000000E+00 -0.65142064613E+02  0.65142064613E+02  0.00000000000E+00 0.  1.
         25    2    1    2    0    0 -0.69004658810E+02  0.40199382177E+02  0.11378460245E+03  0.18700887143E+03  0.12509096280E+03 0.  0.
          5    1    3    3  502    0 -0.60549990007E+02  0.16655476594E+02  0.13816722843E+03  0.15182674864E+03  0.41800000000E+01 0. -1.
         -5    1    3    3    0  502 -0.84546688033E+01  0.23543905582E+02 -0.24382625977E+02  0.35182122793E+02  0.41800000000E+01 0. -1.
        -11    1    1    2    0    0  0.70831114599E+02 -0.17733067567E+02  0.11081534711E+03  0.13270851380E+03  0.00000000000E+00 0. -1.
         11    1    1    2    0    0 -0.18264557891E+01 -0.22466314610E+02 -0.10359590695E+02  0.24807102859E+02  0.00000000000E+00 0.  1.
</event>
<event>
 7    1  0.2856214E-009  0.9742154E+02  0.7561462E-02  0.1285813E+00
         -2   -1    0    0    0  501 -0.00000000000E+00  0.00000000000E+00  0.14162932223E+02  0.14162932223E+02  0.00000000000E+00 0.  1.
          2   -1    0    0  501    0  0.00000000000E+00 -0.00000000000E+00 -0.12743347869E+04  0.12743347869E+04  0.00000000000E+00 0. -1.
         25    2    1    2    0    0 -0.47260227588E+02 -0.41975478076E+02 -0.93238347037E+03  0.94285817561E+03  0.12508850318E+03 0.  0.
          5    1    3    3  502    0 -0.50152992202E+02 -0.79925717715E+01 -0.87117832716E+03  0.87266737876E+03  0.41800000000E+01 0. -1.
         -5    1    3    3    0  502  0.28927646136E+01 -0.33982906304E+02 -0.61205143207E+02  0.70190796854E+02  0.41800000000E+01 0. -1.
        -11    1    1    2    0    0  0.73976602984E+02  0.26092102090E+02 -0.24184340999E+03  0.25424706594E+03  0.00000000000E+00 0. -1.
         11    1    1    2    0    0 -0.26716375396E+02  0.15883375986E+02 -0.85944974304E+02  0.91392477563E+02  0.00000000000E+00 0.  1.
</event>
<event>
 7    1  0.2856214E-009  0.2223138E+03  0.7561462E-02  0.1132170E+00
         -2   -1    0    0    0  501 -0.00000000000E+00  0.00000000000E+00  0.47183008695E+03  0.47183008695E+03  0.00000000000E+00 0.  1.
          2   -1    0    0  501    0  0.00000000000E+00 -0.00000000000E+00 -0.13434691346E+03  0.13434691346E+03  0.00000000000E+00 0. -1.
         25    2    1    2    0    0 -0.34660828825E+02 -0.20686901758E+03  0.71170917928E+02  0.25437875859E+03  0.12508832789E+03 0.  0.
          5    1    3    3  502    0 -0.33064871732E+02 -0.22824477081E+02  0.56828153963E+02  0.69721976302E+02  0.41800000000E+01 0.  1.
         -5    1    3    3    0  502 -0.15959570930E+01 -0.18404454050E+03  0.14342763964E+02  0.18465678229E+03  0.41800000000E+01 0.  1.
        -11    1    1    2    0    0  0.18936413419E+02  0.78567582341E+01  0.65525456996E+02  0.68657861295E+02  0.00000000000E+00 0.  1.
         11    1    1    2    0    0  0.15724415406E+02  0.19901225934E+03  0.20078679857E+03  0.28314038053E+03  0.00000000000E+00 0. -1.
</event>
<event>
 7    1  0.2856214E-009  0.9798770E+02  0.7561462E-02  0.1284585E+00
         -3   -1    0    0    0  501 -0.00000000000E+00  0.00000000000E+00  0.22717429125E+03  0.22717429125E+03  0.00000000000E+00 0.  1.
          3   -1    0    0  501    0  0.00000000000E+00 -0.00000000000E+00 -0.74936777191E+02  0.74936777191E+02  0.00000000000E+00 0. -1.
         25    2    1    2    0    0  0.40957232431E+02  0.60525920086E+02  0.10078009496E+03  0.17647831316E+03  0.12508831114E+03 0.  0.
          5    1    3    3  502    0 -0.13817434720E+02 -0.66116210752E+01 -0.21392234324E+02  0.26640854432E+02  0.41800000000E+01 0.  1.
         -5    1    3    3    0  502  0.54774667152E+02  0.67137541161E+02  0.12217232929E+03  0.14983745873E+03  0.41800000000E+01 0.  1.
        -11    1    1    2    0    0 -0.27940275253E+02 -0.71219122712E+02  0.67754844372E+02  0.10219364636E+03  0.00000000000E+00 0.  1.
         11    1    1    2    0    0 -0.13016957178E+02  0.10693202626E+02 -0.16297425272E+02  0.23439108922E+02  0.00000000000E+00 0. -1.
</event>
<event>
 7    1  0.2856214E-009  0.3672812E+03  0.7561462E-02  0.1055737E+00
          2   -1    0    0  501    0  0.00000000000E+00  0.00000000000E+00  0.80303155463E+03  0.80303155463E+03  0.00000000000E+00 0. -1.
         -2   -1    0    0    0  501 -0.00000000000E+00 -0.00000000000E+00 -0.21785417936E+03  0.21785417936E+03  0.00000000000E+00 0.  1.
         25    2    1    2    0    0  0.21908307746E+03  0.27689280770E+03  0.53431290097E+03  0.65253740980E+03  0.12509105993E+03 0.  0.
          5    1    3    3  502    0  0.20261802405E+03  0.17053365618E+03  0.34796606391E+03  0.43730269332E+03  0.41800000000E+01 0. -1.
         -5    1    3    3    0  502  0.16465053406E+02  0.10635915152E+03  0.18634683706E+03  0.21523471648E+03  0.41800000000E+01 0. -1.
        -11    1    1    2    0    0 -0.82793907821E+02 -0.16890364910E+03  0.35416360127E+01  0.18813776079E+03  0.00000000000E+00 0. -1.
         11    1    1    2    0    0 -0.13628916964E+03 -0.10798915860E+03  0.47322838289E+02  0.18021056339E+03  0.00000000000E+00 0.  1.
</event>
<event>
 7    1  0.2856214E-009  0.1657016E+03  0.7561462E-02  0.1182406E+00
         -1   -1    0    0    0  501 -0.00000000000E+00  0.00000000000E+00  0.41874160350E+02  0.41874160350E+02  0.00000000000E+00 0.  1.
          1   -1    0    0  501    0  0.00000000000E+00 -0.00000000000E+00 -0.66276651152E+03  0.66276651152E+03  0.00000000000E+00 0. -1.
         25    2    1    2    0    0  0.12593983338E+03 -0.23414641495E+01 -0.32977345016E+03  0.37451904184E+03  0.12509060790E+03 0.  0.
          5    1    3    3  502    0 -0.11040305528E+02  0.32528497058E+02 -0.85971801232E+02  0.92674777983E+02  0.41800000000E+01 0. -1.
         -5    1    3    3    0  502  0.13698013891E+03 -0.34869961208E+02 -0.24380164892E+03  0.28184426386E+03  0.41800000000E+01 0. -1.
        -11    1    1    2    0    0  0.14713278128E+02  0.55374739433E+00 -0.33728494967E+02  0.36802154314E+02  0.00000000000E+00 0. -1.
         11    1    1    2    0    0 -0.14065311151E+03  0.17877167551E+01 -0.25739040604E+03  0.29331947571E+03  0.00000000000E+00 0.  1.
</event>
<event>
 7    1  0.2856214E-009  0.9979475E+02  0.7561462E-02  0.1280728E+00
         -2   -1    0    0    0  501 -0.00000000000E+00  0.00000000000E+00  0.14359502732E+02  0.14359502732E+02  0.00000000000E+00 0.  1.
          2   -1    0    0  501    0  0.00000000000E+00 -0.00000000000E+00 -0.88516410443E+03  0.88516410443E+03  0.00000000000E+00 0. -1.
         25    2    1    2    0    0  0.20864815210E+02  0.27616120425E+02 -0.61337262310E+03  0.62695403980E+03  0.12508957843E+03 0.  0.
          5    1    3    3  502    0  0.48247697561E+02  0.64318208261E+02 -0.45387469623E+03  0.46096028518E+03  0.41800000000E+01 0. -1.
         -5    1    3    3    0  502 -0.27382882351E+02 -0.36702087836E+02 -0.15949792687E+03  0.16599375462E+03  0.41800000000E+01 0. -1.
        -11    1    1    2    0    0  0.62838658924E+01 -0.41934492783E+02 -0.22053888133E+03  0.22457824212E+03  0.00000000000E+00 0. -1.
         11    1    1    2    0    0 -0.27148681102E+02  0.14318372357E+02 -0.36893097273E+02  0.47991325247E+02  0.00000000000E+00 0.  1.
</event>
<event>
 7    1  0.2856214E-009  0.1024178E+03  0.7561462E-02  0.1275292E+00
         -2   -1    0    0    0  501 -0.00000000000E+00  0.00000000000E+00  0.28295641565E+02  0.28295641565E+02  0.00000000000E+00 0.  1.
          2   -1    0    0  501    0  0.00000000000E+00 -0.00000000000E+00 -0.52927984731E+03  0.52927984731E+03  0.00000000000E+00 0. -1.
         25    2    1    2    0    0  0.24151440017E+02  0.39974731712E+02 -0.29898463217E+03  0.32744456898E+03  0.12508742642E+03 0.  0.
          5    1    3    3  502    0  0.68026476072E+02  0.13735123891E+02 -0.23700883513E+03  0.24699578013E+03  0.41800000000E+01 0.  1.
         -5    1    3    3    0  502 -0.43875036055E+02  0.26239607821E+02 -0.61975797047E+02  0.80448788848E+02  0.41800000000E+01 0.  1.
        -11    1    1    2    0    0 -0.34649475737E+02  0.74526031481E+01 -0.16581281382E+03  0.16955829879E+03  0.00000000000E+00 0. -1.
         11    1    1    2    0    0  0.10498035720E+02 -0.47427334860E+02 -0.36186759749E+02  0.60572621101E+02  0.00000000000E+00 0.  1.
</event>
<event>
 7    1  0.2856214E-009  0.1047805E+03  0.7561462E-02  0.1270553E+00
          2   -1    0    0  501    0  0.00000000000E+00  0.00000000000E+00  0.23854559751E+03  0.23854559751E+03  0.00000000000E+00 0. -1.
         -2   -1    0    0    0  501 -0.00000000000E+00 -0.00000000000E+00 -0.69352556176E+02  0.69352556176E+02  0.00000000000E+00 0.  1.
         25    2    1    2    0    0  0.42372377094E+02 -0.56924600170E+02  0.12527857631E+03  0.19073113120E+03  0.12509122384E+03 0.  0.
          5    1    3    3  502    0  0.70318953404E+02 -0.60168384248E+02  0.13222759639E+03  0.16145153861E+03  0.41800000000E+01 0.  1.
         -5    1    3    3    0  502 -0.27946576310E+02  0.32437840780E+01 -0.69490200803E+01  0.29279592597E+02  0.41800000000E+01 0.  1.
        -11    1    1    2    0    0 -0.13400060133E+02  0.57956804184E+02 -0.56429169665E+01  0.59752784660E+02  0.00000000000E+00 0.  1.
         11    1    1    2    0    0 -0.28972316961E+02 -0.10322040132E+01  0.49557381990E+02  0.57414237824E+02  0.00000000000E+00 0. -1.
</event>
<event>
 7    1  0.2856214E-009  0.1195313E+03  0.7561462E-02  0.1243872E+00
          2   -1    0    0  501    0  0.00000000000E+00  0.00000000000E+00  0.25470251874E+03  0.25470251874E+03  0.00000000000E+00 0. -1.
         -2   -1    0    0    0  501 -0.00000000000E+00 -0.00000000000E+00 -0.61217848436E+02  0.61217848436E+02  0.00000000000E+00 0.  1.
         25    2    1    2    0    0  0.52104941530E+02 -0.24913041446E+02  0.80466986150E+02  0.15955667467E+03  0.12509121474E+03 0.  0.
          5    1    3    3  502    0 -0.27566406135E+02  0.29032790968E+02  0.14333175941E+02  0.42728468627E+02  0.41800000000E+01 0. -1.
         -5    1    3    3    0  502  0.79671347665E+02 -0.53945832414E+02  0.66133810209E+02  0.11682820604E+03  0.41800000000E+01 0. -1.
        -11    1    1    2    0    0 -0.87768966357E+01  0.51118111686E+02  0.32373814195E+02  0.61140486606E+02  0.00000000000E+00 0. -1.
         11    1    1    2    0    0 -0.43328044894E+02 -0.26205070240E+02  0.80643869957E+02  0.95223205902E+02  0.00000000000E+00 0.  1.
</event>
<event>
 7    1  0.2856214E-009  0.9962965E+02  0.7561462E-02  0.1281077E+00
          4   -1    0    0  501    0  0.00000000000E+00  0.00000000000E+00  0.21712201422E+03  0.21712201422E+03  0.00000000000E+00 0. -1.
         -4   -1    0    0    0  501 -0.00000000000E+00 -0.00000000000E+00 -0.78398093337E+02  0.78398093337E+02  0.00000000000E+00 0.  1.
         25    2    1    2    0    0 -0.34746290834E+02  0.58216576138E+02  0.98779998751E+02  0.17321285613E+03  0.12509488764E+03 0.  0.
          5    1    3    3  502    0 -0.24163022036E+02  0.78245674676E+02  0.11767006896E+03  0.14342229523E+03  0.41800000000E+01 0.  1.
         -5    1    3    3    0  502 -0.10583268798E+02 -0.20029098538E+02 -0.18890070208E+02  0.29790560907E+02  0.41800000000E+01 0.  1.
        -11    1    1    2    0    0 -0.93735043672E+01  0.95375017344E+01 -0.18296357192E+02  0.22662374323E+02  0.00000000000E+00 0.  1.
         11    1    1    2    0    0  0.44119795201E+02 -0.67754077872E+02  0.58240279327E+02  0.99644877104E+02  0.00000000000E+00 0. -1.
</event>
<event>
 7    1  0.2856214E-009  0.1708975E+03  0.7561462E-02  0.1176915E+00
          2   -1    0    0  501    0  0.00000000000E+00  0.00000000000E+00  0.36689385384E+03  0.36689385384E+03  0.00000000000E+00 0. -1.
         -2   -1    0    0    0  501 -0.00000000000E+00 -0.00000000000E+00 -0.11475896933E+03  0.11475896933E+03  0.00000000000E+00 0.  1.
         25    2    1    2    0    0 -0.13518556477E+03 -0.34415864557E+02  0.25327565423E+03  0.31504705018E+03  0.12508596301E+03 0.  0.
          5    1    3    3  502    0 -0.33475715076E+02 -0.68994747802E+02  0.13417693241E+03  0.15460213555E+03  0.41800000000E+01 0. -1.
         -5    1    3    3    0  502 -0.10170984970E+03  0.34578883245E+02  0.11909872182E+03  0.16044491463E+03  0.41800000000E+01 0. -1.
        -11    1    1    2    0    0  0.10029022893E+03 -0.10241186649E+02 -0.26920074995E+02  0.10434415346E+03  0.00000000000E+00 0.  1.
         11    1    1    2    0    0  0.34895335841E+02  0.44657051207E+02  0.25779305274E+02  0.62261619529E+02  0.00000000000E+00 0. -1.
</event>
<event>
 7    1  0.2856214E-009  0.1030613E+03  0.7561462E-02  0.1273987E+00
          1   -1    0    0  501    0  0.00000000000E+00  0.00000000000E+00  0.15616798358E+03  0.15616798358E+03  0.00000000000E+00 0. -1.
         -1   -1    0    0    0  501 -0.00000000000E+00 -0.00000000000E+00 -0.83693226074E+02  0.83693226074E+02  0.00000000000E+00 0.  1.
         25    2    1    2    0    0 -0.30619529781E+02 -0.18773663197E+02  0.45584044930E+02  0.13789813684E+03  0.12509190605E+03 0.  0.
          5    1    3    3  502    0  0.38968047229E+02 -0.11626141340E+02 -0.16683055337E+02  0.44152832329E+02  0.41800000000E+01 0. -1.
         -5    1    3    3    0  502 -0.69587577011E+02 -0.71475218571E+01  0.62267100268E+02  0.93745304515E+02  0.41800000000E+01 0. -1.
        -11    1    1    2    0    0 -0.17932817086E+02  0.38722661861E+02 -0.66543675089E+00  0.42678721588E+02  0.00000000000E+00 0.  1.
         11    1    1    2    0    0  0.48552346868E+02 -0.19948998665E+02  0.27556149326E+02  0.59284351222E+02  0.00000000000E+00 0. -1.
</event>
<event>
 7    1  0.2856214E-009  0.5924593E+02  0.7561462E-02  0.1401024E+00
          1   -1    0    0  501    0  0.00000000000E+00  0.00000000000E+00  0.97622972479E+02  0.97622972479E+02  0.00000000000E+00 0. -1.
         -1   -1    0    0    0  501 -0.00000000000E+00 -0.00000000000E+00 -0.15063677673E+03  0.15063677673E+03  0.00000000000E+00 0.  1.
         25    2    1    2    0    0 -0.27291226969E+02 -0.31641843831E+02 -0.48846219243E+02  0.14064199670E+03  0.12509276858E+03 0.  0.
          5    1    3    3  502    0 -0.19460791887E+02 -0.10278960636E+02 -0.90372032910E+02  0.93107229498E+02  0.41800000000E+01 0.  1.
         -5    1    3    3    0  502 -0.78304350819E+01 -0.21362883195E+02  0.41525813667E+02  0.47534767199E+02  0.41800000000E+01 0.  1.
        -11    1    1    2    0    0 -0.18158781787E+02  0.17842136240E+02  0.36898221693E+02  0.44828137879E+02  0.00000000000E+00 0. -1.
         11    1    1    2    0    0  0.45450008756E+02  0.13799707592E+02 -0.41065806699E+02  0.62789614630E+02  0.00000000000E+00 0.  1.
</event>
<event>
 7    1  0.2856214E-009  0.8682744E+02  0.7561462E-02  0.1310722E+00
         -1   -1    0    0    0  501 -0.00000000000E+00  0.00000000000E+00  0.36493180987E+02  0.36493180987E+02  0.00000000000E+00 0.  1.
          1   -1    0    0  501    0  0.00000000000E+00 -0.00000000000E+00 -0.43180303691E+03  0.43180303691E+03  0.00000000000E+00 0. -1.
         25    2    1    2    0    0 -0.25745680167E+02  0.45846243571E+02 -0.27317509894E+03  0.30501565908E+03  0.12508077194E+03 0.  0.
          5    1    3    3  502    0  0.14172717394E+02 -0.22419038110E+02 -0.18319004718E+03  0.18514736016E+03  0.41800000000E+01 0.  1.
         -5    1    3    3    0  502 -0.39918397561E+02  0.68265281681E+02 -0.89985051764E+02  0.11986829893E+03  0.41800000000E+01 0.  1.
        -11    1    1    2    0    0  0.28603857579E+02 -0.80570596516E+01 -0.12180952443E+03  0.12538204465E+03  0.00000000000E+00 0. -1.
         11    1    1    2    0    0 -0.28581774123E+01 -0.37789183919E+02 -0.32523254941E+00  0.37898514161E+02  0.00000000000E+00 0.  1.
</event>
<event>
 7    1  0.2856214E-009  0.1127218E+03  0.7561462E-02  0.1255611E+00
         -2   -1    0    0    0  501 -0.00000000000E+00  0.00000000000E+00  0.36397293436E+02  0.36397293436E+02  0.00000000000E+00 0.  1.
          2   -1    0    0  501    0  0.00000000000E+00 -0.00000000000E+00 -0.46874507006E+03  0.46874507006E+03  0.00000000000E+00 0. -1.
         25    2    1    2    0    0  0.31625695534E+02  0.62489366442E+02 -0.28429465498E+03  0.31839596886E+03  0.12508971421E+03 0.  0.
          5    1    3    3  502    0  0.58105660053E+02  0.81729350823E+02 -0.25584503333E+03  0.27482741493E+03  0.41800000000E+01 0.  1.
         -5    1    3    3    0  502 -0.26479964519E+02 -0.19239984380E+02 -0.28449621650E+02  0.43568553934E+02  0.41800000000E+01 0.  1.
        -11    1    1    2    0    0 -0.15676782916E+02 -0.71881253891E+02 -0.15103330453E+03  0.16799921208E+03  0.00000000000E+00 0. -1.
         11    1    1    2    0    0 -0.15948912618E+02  0.93918874491E+01  0.29801828851E+01  0.18747182550E+02  0.00000000000E+00 0.  1.
</event>
<event>
 7    1  0.2856214E-009  0.2150253E+03  0.7561462E-02  0.1137647E+00
         -1   -1    0    0    0  501 -0.00000000000E+00  0.00000000000E+00  0.43889267676E+02  0.43889267676E+02  0.00000000000E+00 0.  1.
          1   -1    0    0  501    0  0.00000000000E+00 -0.00000000000E+00 -0.12919852302E+04  0.12919852302E+04  0.00000000000E+00 0. -1.
         25    2    1    2    0    0 -0.16567770668E+03 -0.12893905901E+03 -0.72320982663E+03  0.76338383496E+03  0.12509213691E+03 0.  0.
          5    1    3    3  502    0 -0.11282643880E+03 -0.10051496226E+03 -0.65597275399E+03  0.67316475644E+03  0.41800000000E+01 0. -1.
         -5    1    3    3    0  502 -0.52851267883E+02 -0.28424096743E+02 -0.67237072640E+02  0.90219078524E+02  0.41800000000E+01 0. -1.
        -11    1    1    2    0    0  0.23217684054E+02 -0.43706907349E+01 -0.19107628727E+02  0.30385280415E+02  0.00000000000E+00 0.  1.
         11    1    1    2    0    0  0.14246002263E+03  0.13330974974E+03 -0.50577850713E+03  0.54210538247E+03  0.00000000000E+00 0. -1.
</event>
<event>
 7    1  0.2856214E-009  0.1946597E+03  0.7561462E-02  0.1154324E+00
         -2   -1    0    0    0  501 -0.00000000000E+00  0.00000000000E+00  0.59789434163E+02  0.59789434163E+02  0.00000000000E+00 0.  1.
          2   -1    0    0  501    0  0.00000000000E+00 -0.00000000000E+00 -0.75354557105E+03  0.75354557105E+03  0.00000000000E+00 0. -1.
         25    2    1    2    0    0 -0.59924187594E+02 -0.15045347756E+03 -0.51177388336E+03  0.55116787162E+03  0.12508540225E+03 0.  0.
          5    1    3    3  502    0 -0.98084690258E+02 -0.12071489423E+03 -0.37344695521E+03  0.40456494276E+03  0.41800000000E+01 0. -1.
         -5    1    3    3    0  502  0.38160502663E+02 -0.29738583327E+02 -0.13832692814E+03  0.14660292886E+03  0.41800000000E+01 0. -1.
        -11    1    1    2    0    0  0.22621247976E+02  0.14583092849E+03 -0.12244932267E+03  0.19176083330E+03  0.00000000000E+00 0.  1.
         11    1    1    2    0    0  0.37302939618E+02  0.46225490626E+01 -0.59532930865E+02  0.70406300296E+02  0.00000000000E+00 0. -1.
</event>
<event>
 7    1  0.2856214E-009  0.1511815E+03  0.7561462E-02  0.1199029E+00
          2   -1    0    0  501    0  0.00000000000E+00  0.00000000000E+00  0.68850659506E+02  0.68850659506E+02  0.00000000000E+00 0. -1.
         -2   -1    0    0    0  501 -0.00000000000E+00 -0.00000000000E+00 -0.43806159520E+03  0.43806159520E+03  0.00000000000E+00 0.  1.
         25    2    1    2    0    0  0.10259155530E+03 -0.90583684631E+02 -0.19967731183E+03  0.27248729667E+03  0.12509143395E+03 0.  0.
          5    1    3    3  502    0  0.85210133829E+02 -0.37239326395E+02 -0.36677216249E+02  0.10005111158E+03  0.41800000000E+01 0. -1.
         -5    1    3    3    0  502  0.17381421474E+02 -0.53344358235E+02 -0.16300009558E+03  0.17243618509E+03  0.41800000000E+01 0. -1.
        -11    1    1    2    0    0  0.52148160483E+01  0.27750391550E+02 -0.62470989741E+01  0.28918934683E+02  0.00000000000E+00 0.  1.
         11    1    1    2    0    0 -0.10780637135E+03  0.62833293080E+02 -0.16328652489E+03  0.20550602336E+03  0.00000000000E+00 0. -1.
</event>
<event>
 7    1  0.2856214E-009  0.1221335E+03  0.7561462E-02  0.1239618E+00
         -2   -1    0    0    0  501 -0.00000000000E+00  0.00000000000E+00  0.21844442569E+03  0.21844442569E+03  0.00000000000E+00 0. -1.
          2   -1    0    0  501    0  0.00000000000E+00 -0.00000000000E+00 -0.78319006040E+02  0.78319006040E+02  0.00000000000E+00 0.  1.
         25    2    1    2    0    0 -0.67991594069E+02 -0.10245191436E+02  0.11426073465E+03  0.18283839606E+03  0.12508614144E+03 0.  0.
          5    1    3    3  502    0 -0.67750548735E+01  0.53236178372E+02  0.51673727969E+02  0.74616610875E+02  0.41800000000E+01 0. -1.
         -5    1    3    3    0  502 -0.61216539195E+02 -0.63481369808E+02  0.62587006685E+02  0.10822178519E+03  0.41800000000E+01 0. -1.
        -11    1    1    2    0    0  0.62512823644E+02  0.38468209277E+02 -0.26284516945E+01  0.73447702505E+02  0.00000000000E+00 0. -1.
         11    1    1    2    0    0  0.54787704250E+01 -0.28223017841E+02  0.28493136693E+02  0.40477333164E+02  0.00000000000E+00 0.  1.
</event>
<event>
 7    1  0.2856214E-009  0.1340214E+03  0.7561462E-02  0.1221608E+00
         -1   -1    0    0    0  501 -0.00000000000E+00  0.00000000000E+00  0.50009245204E+03  0.50009245204E+03  0.00000000000E+00 0.  1.
          1   -1    0    0  501    0  0.00000000000E+00 -0.00000000000E+00 -0.56393081024E+02  0.56393081024E+02  0.00000000000E+00 0. -1.
         25    2    1    2    0    0 -0.64838959676E+02  0.60131300334E+02  0.38906401563E+03  0.41813649158E+03  0.12508978117E+03 0.  0.
          5    1    3    3  502    0 -0.38803538072E+02 -0.32792966554E+02  0.19229942315E+03  0.19894128221E+03  0.41800000000E+01 0.  1.
         -5    1    3    3    0  502 -0.26035421604E+02  0.92924266888E+02  0.19676459248E+03  0.21919520937E+03  0.41800000000E+01 0.  1.
        -11    1    1    2    0    0 -0.19666668861E+01  0.17753661931E+02  0.26486749963E+02  0.31946959389E+02  0.00000000000E+00 0.  1.
         11    1    1    2    0    0  0.66805626562E+02 -0.77884962265E+02  0.28148605414E+02  0.10640208209E+03  0.00000000000E+00 0. -1.
</event>
<event>
 7    1  0.2856214E-009  0.9569603E+02  0.7561462E-02  0.1289616E+00
          1   -1    0    0  501    0  0.00000000000E+00  0.00000000000E+00  0.56480305094E+03  0.56480305094E+03  0.00000000000E+00 0. -1.
         -1   -1    0    0    0  501 -0.00000000000E+00 -0.00000000000E+00 -0.21386144465E+02  0.21386144465E+02  0.00000000000E+00 0.  1.
         25    2    1    2    0    0  0.10637791538E+02  0.28158977364E+02  0.31549192784E+03  0.34071865413E+03  0.12509178280E+03 0.  0.
          5    1    3    3  502    0  0.53843000943E+02  0.86770495763E+01  0.26788602097E+03  0.27341315362E+03  0.41800000000E+01 0.  1.
         -5    1    3    3    0  502 -0.43205209405E+02  0.19481927787E+02  0.47605906869E+02  0.67305500509E+02  0.41800000000E+01 0.  1.
        -11    1    1    2    0    0  0.16969583915E+02  0.24415650039E+02  0.10201767742E+03  0.10626239810E+03  0.00000000000E+00 0. -1.
         11    1    1    2    0    0 -0.27607375453E+02 -0.52574627403E+02  0.12590730122E+03  0.13920814318E+03  0.00000000000E+00 0.  1.
</event>
<event>
 7    1  0.2856214E-009  0.1090476E+03  0.7561462E-02  0.1262344E+00
         -2   -1    0    0    0  501 -0.00000000000E+00  0.00000000000E+00  0.70413189136E+02  0.70413189136E+02  0.00000000000E+00 0.  1.
          2   -1    0    0  501    0  0.00000000000E+00 -0.00000000000E+00 -0.28027666707E+03  0.28027666707E+03  0.00000000000E+00 0. -1.
         25    2    1    2    0    0  0.88398107755E+02  0.15252266270E+02 -0.10856546180E+03  0.18836423799E+03  0.12509104514E+03 0.  0.
          5    1    3    3  502    0  0.58143945834E+02 -0.29653216975E+01 -0.13298116486E+03  0.14522731898E+03  0.41800000000E+01 0. -1.
         -5    1    3    3    0  502  0.30254161921E+02  0.18217587968E+02  0.24415703066E+02  0.43136919004E+02  0.41800000000E+01 0. -1.
        -11    1    1    2    0    0 -0.79685287376E+02 -0.46133931687E+02 -0.88710010681E+02  0.12785754054E+03  0.00000000000E+00 0. -1.
         11    1    1    2    0    0 -0.87128203783E+01  0.30881665417E+02 -0.12588005455E+02  0.34468077684E+02  0.00000000000E+00 0.  1.
</event>
<event>
 7    1  0.2856214E-009  0.1697622E+03  0.7561462E-02  0.1178096E+00
          1   -1    0    0  501    0  0.00000000000E+00  0.00000000000E+00  0.29997824245E+03  0.29997824245E+03  0.00000000000E+00 0. -1.
         -1   -1    0    0    0  501 -0.00000000000E+00 -0.00000000000E+00 -0.11926047486E+03  0.11926047486E+03  0.00000000000E+00 0.  1.
         25    2    1    2    0    0  0.13709854954E+03 -0.49273680542E+02  0.14731918107E+03  0.24201943200E+03  0.12508619618E+03 0.  0.
          5    1    3    3  502    0  0.12053218887E+03  0.16142269122E+02  0.11360382031E+03  0.16646886134E+03  0.41800000000E+01 0. -1.
         -5    1    3    3    0  502  0.16566360674E+02 -0.65415949663E+02  0.33715360759E+02  0.75550570663E+02  0.41800000000E+01 0. -1.
        -11    1    1    2    0    0 -0.80181323630E+02  0.47695503496E+02  0.63459720321E+02  0.11283191843E+03  0.00000000000E+00 0.  1.
         11    1    1    2    0    0 -0.56917225915E+02  0.15781770464E+01 -0.30061133800E+02  0.64387366882E+02  0.00000000000E+00 0. -1.
</event>
<event>
 7    1  0.2856214E-009  0.1919278E+03  0.7561462E-02  0.1156734E+00
          2   -1    0    0  501    0  0.00000000000E+00  0.00000000000E+00  0.11233459529E+04  0.11233459529E+04  0.00000000000E+00 0. -1.
         -2   -1    0    0    0  501 -0.00000000000E+00 -0.00000000000E+00 -0.33749875512E+02  0.33749875512E+02  0.00000000000E+00 0.  1.
         25    2    1    2    0    0  0.12463271969E+02 -0.16047802293E+03  0.52914866329E+03  0.56705858402E+03  0.12509436777E+03 0.  0.
          5    1    3    3  502    0 -0.21985289344E+02 -0.16613151363E+03  0.41360885056E+03  0.44628778432E+03  0.41800000000E+01 0. -1.
         -5    1    3    3    0  502  0.34448561313E+02  0.56534906953E+01  0.11553981274E+03  0.12077079970E+03  0.41800000000E+01 0. -1.
        -11    1    1    2    0    0 -0.30063802003E+02  0.13361664757E+02  0.15271288067E+03  0.15621648504E+03  0.00000000000E+00 0. -1.
         11    1    1    2    0    0  0.17600530034E+02  0.14711635818E+03  0.40773453343E+03  0.43382075936E+03  0.00000000000E+00 0.  1.
</event>
<event>
 7    1  0.2856214E-009  0.9364259E+02  0.7561462E-02  0.1294263E+00
         -2   -1    0    0    0  501 -0.00000000000E+00  0.00000000000E+00  0.34425718745E+03  0.34425718745E+03  0.00000000000E+00 0. -1.
          2   -1    0    0  501    0  0.00000000000E+00 -0.00000000000E+00 -0.37892881771E+02  0.37892881771E+02  0.00000000000E+00 0.  1.
         25    2    1    2    0    0 -0.87560699358E+01 -0.30842869984E+02  0.14938277265E+03  0.19746476369E+03  0.12509663763E+03 0.  0.
          5    1    3    3  502    0  0.45155789481E+02  0.21171265647E-04  0.12067139328E+03  0.12891122093E+03  0.41800000000E+01 0.  1.
         -5    1    3    3    0  502 -0.53911859417E+02 -0.30842891155E+02  0.28711379362E+02  0.68553542764E+02  0.41800000000E+01 0.  1.
        -11    1    1    2    0    0  0.82110127483E+01  0.54955778890E+02  0.49133437210E+02  0.74173128664E+02  0.00000000000E+00 0.  1.
         11    1    1    2    0    0  0.54505718748E+00 -0.24112908906E+02  0.10784809582E+03  0.11051217686E+03  0.00000000000E+00 0. -1.
</event>
<event>
 7    1  0.2856214E-009  0.8210439E+02  0.7561462E-02  0.1323183E+00
          2   -1    0    0  501    0  0.00000000000E+00  0.00000000000E+00  0.66429263978E+03  0.66429263978E+03  0.00000000000E+00 0. -1.
         -2   -1    0    0    0  501 -0.00000000000E+00 -0.00000000000E+00 -0.23006937235E+02  0.23006937235E+02  0.00000000000E+00 0.  1.
         25    2    1    2    0    0  0.42779405305E+02  0.45118737753E+02  0.39890152815E+03  0.42265194424E+03  0.12508580572E+03 0.  0.
          5    1    3    3  502    0  0.72557974372E+01  0.43738622381E+02  0.37917451859E+03  0.38178069835E+03  0.41800000000E+01 0.  1.
         -5    1    3    3    0  502  0.35523607868E+02  0.13801153715E+01  0.19727009564E+02  0.40871245891E+02  0.41800000000E+01 0.  1.
        -11    1    1    2    0    0  0.12640247777E+02 -0.18483970375E+02  0.10467799492E+02  0.24718572994E+02  0.00000000000E+00 0.  1.
         11    1    1    2    0    0 -0.55419653082E+02 -0.26634767378E+02  0.23191637490E+03  0.23992905979E+03  0.00000000000E+00 0. -1.
</event>
<event>
 7    1  0.2856214E-009  0.1473896E+03  0.7561462E-02  0.1203718E+00
          2   -1    0    0  501    0  0.00000000000E+00  0.00000000000E+00  0.74369893689E+02  0.74369893689E+02  0.00000000000E+00 0. -1.
         -2   -1    0    0    0  501 -0.00000000000E+00 -0.00000000000E+00 -0.36579392844E+03  0.36579392844E+03  0.00000000000E+00 0.  1.
         25    2    1    2    0    0 -0.10164264484E+03  0.62833415574E+02 -0.19466235167E+03  0.26042475715E+03  0.12509339558E+03 0.  0.
          5    1    3    3  502    0 -0.91673158814E+02 -0.68544451742E+01 -0.15292439221E+03  0.17847771177E+03  0.41800000000E+01 0.  1.
         -5    1    3    3    0  502 -0.99694860237E+01  0.69687860749E+02 -0.41737959458E+02  0.81947045383E+02  0.41800000000E+01 0.  1.
        -11    1    1    2    0    0  0.89605509595E+02 -0.25729716182E+02 -0.10442630556E+03  0.13998578120E+03  0.00000000000E+00 0.  1.
         11    1    1    2    0    0  0.12037135242E+02 -0.37103699393E+02  0.76646224786E+01  0.39753283779E+02  0.00000000000E+00 0. -1.
</event>
<event>
 7    1  0.2856214E-009  0.1438946E+03  0.7561462E-02  0.1208183E+00
          1   -1    0    0  501    0  0.00000000000E+00  0.00000000000E+00  0.86085090300E+02  0.86085090300E+02  0.00000000000E+00 0. -1.
         -1   -1    0    0    0  501 -0.00000000000E+00 -0.00000000000E+00 -0.34821362849E+03  0.34821362849E+03  0.00000000000E+00 0.  1.
         25    2    1    2    0    0  0.15129591913E+02  0.10432766020E+03 -0.23883628339E+03  0.28948910047E+03  0.12509198133E+03 0.  0.
          5    1    3    3  502    0  0.26513452792E+02  0.12166615498E+03 -0.13576889881E+03  0.18427230593E+03  0.41800000000E+01 0. -1.
         -5    1    3    3    0  502 -0.11383860879E+02 -0.17338494780E+02 -0.10306738458E+03  0.10521679454E+03  0.41800000000E+01 0. -1.
        -11    1    1    2    0    0  0.27640108748E+02 -0.94083327240E+02 -0.85777430420E+01  0.98433864863E+02  0.00000000000E+00 0. -1.
         11    1    1    2    0    0 -0.42769700661E+02 -0.10244332964E+02 -0.14714511761E+02  0.46375753459E+02  0.00000000000E+00 0.  1.
</event>
<event>
 7    1  0.2856214E-009  0.8978771E+02  0.7561462E-02  0.1303367E+00
          1   -1    0    0  501    0  0.00000000000E+00  0.00000000000E+00  0.26567258555E+03  0.26567258555E+03  0.00000000000E+00 0. -1.
         -1   -1    0    0    0  501 -0.00000000000E+00 -0.00000000000E+00 -0.64128563766E+02  0.64128563766E+02  0.00000000000E+00 0.  1.
         25    2    1    2    0    0 -0.30474471982E+02 -0.36521041943E+02  0.17712130174E+03  0.22199758104E+03  0.12509392675E+03 0.  0.
          5    1    3    3  502    0 -0.37640532052E+02  0.86348332558E+01  0.17138170874E+03  0.17572857619E+03  0.41800000000E+01 0. -1.
         -5    1    3    3    0  502  0.71660600696E+01 -0.45155875198E+02  0.57395929999E+01  0.46269004848E+02  0.41800000000E+01 0. -1.
        -11    1    1    2    0    0 -0.25757866136E+02  0.27828792283E+02 -0.12554262398E+02  0.39943946377E+02  0.00000000000E+00 0.  1.
         11    1    1    2    0    0  0.56232338118E+02  0.86922496599E+01  0.36976982442E+02  0.67859621904E+02  0.00000000000E+00 0. -1.
</event>
<event>
 7    1  0.2856214E-009  0.1104957E+03  0.7561462E-02  0.1259655E+00
          1   -1    0    0  501    0  0.00000000000E+00  0.00000000000E+00  0.16237497025E+02  0.16237497025E+02  0.00000000000E+00 0. -1.
         -1   -1    0    0    0  501 -0.00000000000E+00 -0.00000000000E+00 -0.10066009821E+04  0.10066009821E+04  0.00000000000E+00 0.  1.
         25    2    1    2    0    0 -0.32184638908E+02  0.60700476274E+02 -0.51638261030E+03  0.53574254969E+03  0.12509468627E+03 0.  0.
          5    1    3    3  502    0 -0.43748980901E+02 -0.10754052532E+02 -0.36608529174E+03  0.36887062258E+03  0.41800000000E+01 0.  1.
         -5    1    3    3    0  502  0.11564341994E+02  0.71454528806E+02 -0.15029731856E+03  0.16687192711E+03  0.41800000000E+01 0.  1.
        -11    1    1    2    0    0 -0.21967625715E+01  0.17594116481E+02 -0.29136747596E+02  0.34107605618E+02  0.00000000000E+00 0. -1.
         11    1    1    2    0    0  0.34381401479E+02 -0.78294592756E+02 -0.44484412718E+03  0.45298832381E+03  0.00000000000E+00 0.  1.
</event>
<event>
 7    1  0.2856214E-009  0.1084343E+03  0.7561462E-02  0.1263497E+00
         -2   -1    0    0    0  501 -0.00000000000E+00  0.00000000000E+00  0.76047946841E+02  0.76047946841E+02  0.00000000000E+00 0.  1.
          2   -1    0    0  501    0  0.00000000000E+00 -0.00000000000E+00 -0.19531801480E+03  0.19531801480E+03  0.00000000000E+00 0. -1.
         25    2    1    2    0    0  0.57423012683E+02 -0.23741995112E+02 -0.72431262266E+02  0.15734161230E+03  0.12509600510E+03 0.  0.
          5    1    3    3  502    0  0.33430165332E+02 -0.62274461932E+02  0.11174471547E+01  0.70812468190E+02  0.41800000000E+01 0.  1.
         -5    1    3    3    0  502  0.23992847350E+02  0.38532466820E+02 -0.73548709421E+02  0.86529144112E+02  0.41800000000E+01 0.  1.
        -11    1    1    2    0    0 -0.76251701416E+02  0.94343876107E+01 -0.22433189255E+02  0.80041099559E+02  0.00000000000E+00 0.  1.
         11    1    1    2    0    0  0.18828688734E+02  0.14307607501E+02 -0.24405616435E+02  0.33983249777E+02  0.00000000000E+00 0. -1.
</event>
<event>
 7    1  0.2856214E-009  0.1009795E+03  0.7561462E-02  0.1278250E+00
          1   -1    0    0  501    0  0.00000000000E+00  0.00000000000E+00  0.99120530706E+02  0.99120530706E+02  0.00000000000E+00 0. -1.
         -1   -1    0    0    0  501 -0.00000000000E+00 -0.00000000000E+00 -0.15067032570E+03  0.15067032570E+03  0.00000000000E+00 0.  1.
         25    2    1    2    0    0  0.75076459676E+01 -0.88095598641E+01 -0.85631192684E+02  0.15203930256E+03  0.12509706339E+03 0.  0.
          5    1    3    3  502    0 -0.59480986995E+01  0.56656753252E+02 -0.51349733649E+02  0.76809082230E+02  0.41800000000E+01 0. -1.
         -5    1    3    3    0  502  0.13455744667E+02 -0.65466313116E+02 -0.34281459035E+02  0.75230220332E+02  0.41800000000E+01 0. -1.
        -11    1    1    2    0    0  0.11547625254E+02 -0.31356592359E+02 -0.10266578980E+02  0.34956918876E+02  0.00000000000E+00 0.  1.
         11    1    1    2    0    0 -0.19055271222E+02  0.40166152223E+02  0.44347976671E+02  0.62794634966E+02  0.00000000000E+00 0. -1.
</event>
<event>
 7    1  0.2856214E-009  0.1789857E+03  0.7561462E-02  0.1168788E+00
         -2   -1    0    0    0  501 -0.00000000000E+00  0.00000000000E+00  0.12910818796E+03  0.12910818796E+03  0.00000000000E+00 0. -1.
          2   -1    0    0  501    0  0.00000000000E+00 -0.00000000000E+00 -0.27795363022E+03  0.27795363022E+03  0.00000000000E+00 0.  1.
         25    2    1    2    0    0  0.14806902420E+03 -0.34557313725E+02 -0.12337058991E+03  0.23235145581E+03  0.12509297624E+03 0.  0.
          5    1    3    3  502    0  0.11926215523E+03 -0.78069973987E+02 -0.10413350795E+03  0.17657758177E+03  0.41800000000E+01 0.  1.
         -5    1    3    3    0  502  0.28806868972E+02  0.43512660262E+02 -0.19237081962E+02  0.55773874040E+02  0.41800000000E+01 0.  1.
        -11    1    1    2    0    0 -0.49869265126E+02  0.41065342571E+02 -0.38861160366E+02  0.75388963050E+02  0.00000000000E+00 0.  1.
         11    1    1    2    0    0 -0.98199759072E+02 -0.65080288468E+01  0.13386308017E+02  0.99321399324E+02  0.00000000000E+00 0. -1.
</event>
<event>
 7    1  0.2856214E-009  0.1830730E+03  0.7561462E-02  0.1164862E+00
         -2   -1    0    0    0  501 -0.00000000000E+00  0.00000000000E+00  0.34671723914E+03  0.34671723914E+03  0.00000000000E+00 0.  1.
          2   -1    0    0  501    0  0.00000000000E+00 -0.00000000000E+00 -0.98121877372E+02  0.98121877372E+02  0.00000000000E+00 0. -1.
         25    2    1    2    0    0 -0.94599680407E+02  0.11455478397E+03  0.14345526525E+03  0.24145011873E+03  0.12508736404E+03 0.  0.
          5    1    3    3  502    0 -0.90537876710E+02  0.13645326802E+02  0.83131357715E+02  0.12374003838E+03  0.41800000000E+01 0. -1.
         -5    1    3    3    0  502 -0.40618036964E+01  0.10090945717E+03  0.60323907537E+02  0.11771008035E+03  0.41800000000E+01 0. -1.
        -11    1    1    2    0    0  0.77808882177E+02 -0.24162704269E+02  0.58468783914E+02  0.10028288546E+03  0.00000000000E+00 0.  1.
         11    1    1    2    0    0  0.16790798229E+02 -0.90392079704E+02  0.46671312602E+02  0.10310611232E+03  0.00000000000E+00 0. -1.
</event>
<event>
 7    1  0.2856214E-009  0.1396770E+03  0.7561462E-02  0.1213764E+00
          1   -1    0    0  501    0  0.00000000000E+00  0.00000000000E+00  0.14517090906E+03  0.14517090906E+03  0.00000000000E+00 0. -1.
         -1   -1    0    0    0  501 -0.00000000000E+00 -0.00000000000E+00 -0.16817657672E+03  0.16817657672E+03  0.00000000000E+00 0.  1.
         25    2    1    2    0    0  0.91783012454E+02  0.18287281072E+02  0.43093540560E+02  0.16205495975E+03  0.12508481409E+03 0.  0.
          5    1    3    3  502    0 -0.30422362965E+02  0.80925110412E+00 -0.14397187844E+01  0.30752564868E+02  0.41800000000E+01 0. -1.
         -5    1    3    3    0  502  0.12220537542E+03  0.17478029968E+02  0.44533259344E+02  0.13130239488E+03  0.41800000000E+01 0. -1.
        -11    1    1    2    0    0  0.83590370407E+01 -0.23394822622E+02 -0.40979222628E+02  0.47921685205E+02  0.00000000000E+00 0.  1.
         11    1    1    2    0    0 -0.10014204949E+03  0.51075415495E+01 -0.25119985592E+02  0.10337084083E+03  0.00000000000E+00 0. -1.
</event>
<event>
 7    1  0.2856214E-009  0.1686316E+03  0.7561462E-02  0.1179282E+00
         -1   -1    0    0    0  501 -0.00000000000E+00  0.00000000000E+00  0.20119298335E+03  0.20119298335E+03  0.00000000000E+00 0.  1.
          1   -1    0    0  501    0  0.00000000000E+00 -0.00000000000E+00 -0.16993557405E+03  0.16993557405E+03  0.00000000000E+00 0. -1.
         25    2    1    2    0    0  0.97337454394E+02 -0.10895698110E+03 -0.15007046586E+02  0.19292299063E+03  0.12509142700E+03 0.  0.
          5    1    3    3  502    0  0.41761769388E+02  0.21133402610E+02  0.12773712245E+02  0.48696059520E+02  0.41800000000E+01 0. -1.
         -5    1    3    3    0  502  0.55575685006E+02 -0.13009038371E+03 -0.27780758830E+02  0.14422693111E+03  0.41800000000E+01 0. -1.
        -11    1    1    2    0    0 -0.28633013464E+02  0.14926204230E+02  0.52441681465E+02  0.61585477084E+02  0.00000000000E+00 0.  1.
         11    1    1    2    0    0 -0.68704440930E+02  0.94030776868E+02 -0.61772255763E+01  0.11662008968E+03  0.00000000000E+00 0. -1.
</event>
<event>
 7    1  0.2856214E-009  0.1673440E+03  0.7561462E-02  0.1180646E+00
         -2   -1    0    0    0  501 -0.00000000000E+00  0.00000000000E+00  0.13744685619E+03  0.13744685619E+03  0.00000000000E+00 0.  1.
          2   -1    0    0  501    0  0.00000000000E+00 -0.00000000000E+00 -0.29053916804E+03  0.29053916804E+03  0.00000000000E+00 0. -1.
         25    2    1    2    0    0  0.13855025564E+03 -0.78313044453E+02 -0.24055989976E+02  0.20384891604E+03  0.12508630479E+03 0.  0.
          5    1    3    3  502    0  0.10492429399E+02  0.13728214830E+02  0.31851396114E+02  0.36476551256E+02  0.41800000000E+01 0. -1.
         -5    1    3    3    0  502  0.12805782624E+03 -0.92041259283E+02 -0.55907386090E+02  0.16737236478E+03  0.41800000000E+01 0. -1.
        -11    1    1    2    0    0 -0.77375826506E+02  0.43475259208E+02 -0.14840307209E+02  0.89985284401E+02  0.00000000000E+00 0.  1.
         11    1    1    2    0    0 -0.61174429135E+02  0.34837785245E+02 -0.11419601467E+03  0.13415182379E+03  0.00000000000E+00 0. -1.
</event>
<event>
 7    1  0.2856214E-009  0.7905823E+02  0.7561462E-02  0.1331745E+00
          3   -1    0    0  501    0  0.00000000000E+00  0.00000000000E+00  0.11576479002E+03  0.11576479002E+03  0.00000000000E+00 0. -1.
         -3   -1    0    0    0  501 -0.00000000000E+00 -0.00000000000E+00 -0.19182472773E+03  0.19182472773E+03  0.00000000000E+00 0.  1.
         25    2    1    2    0    0  0.24230975028E+02  0.16666272915E+01  0.59435914944E+02  0.14061084198E+03  0.12509541599E+03 0.  0.
          5    1    3    3  502    0 -0.79797487403E+01 -0.30948880512E+02 -0.27415681059E+02  0.42315500266E+02  0.41800000000E+01 0.  1.
         -5    1    3    3    0  502  0.32210723768E+02  0.32615507803E+02  0.86851596002E+02  0.98295341716E+02  0.41800000000E+01 0.  1.
        -11    1    1    2    0    0 -0.97488950688E+01  0.37157880874E+02 -0.11399750016E+03  0.12029621403E+03  0.00000000000E+00 0.  1.
         11    1    1    2    0    0 -0.14482079959E+02 -0.38824508166E+02 -0.21498352495E+02  0.46682461742E+02  0.00000000000E+00 0. -1.
</event>
<event>
 7    1  0.2856214E-009  0.1334501E+03  0.7561462E-02  0.1222424E+00
          2   -1    0    0  501    0  0.00000000000E+00  0.00000000000E+00  0.34414784881E+03  0.34414784881E+03  0.00000000000E+00 0. -1.
         -2   -1    0    0    0  501 -0.00000000000E+00 -0.00000000000E+00 -0.63678439813E+02  0.63678439813E+02  0.00000000000E+00 0.  1.
         25    2    1    2    0    0 -0.42161645530E+02  0.10651936148E+03  0.14670843718E+03  0.22426593088E+03  0.12509142052E+03 0.  0.
          5    1    3    3  502    0  0.12500616409E+02  0.87706358826E+02  0.29429344746E+02  0.93446399188E+02  0.41800000000E+01 0. -1.
         -5    1    3    3    0  502 -0.54662261939E+02  0.18813002655E+02  0.11727909243E+03  0.13081953169E+03  0.41800000000E+01 0. -1.
        -11    1    1    2    0    0  0.22800918430E+02 -0.95048589812E+02  0.83741898397E+02  0.12871216669E+03  0.00000000000E+00 0.  1.
         11    1    1    2    0    0  0.19360727099E+02 -0.11470771668E+02  0.50019073417E+02  0.54848191055E+02  0.00000000000E+00 0. -1.
</event>
<event>
 7    1  0.2856214E-009  0.7809921E+02  0.7561462E-02  0.1334534E+00
         -2   -1    0    0    0  501 -0.00000000000E+00  0.00000000000E+00  0.26585238402E+02  0.26585238402E+02  0.00000000000E+00 0.  1.
          2   -1    0    0  501    0  0.00000000000E+00 -0.00000000000E+00 -0.55593836864E+03  0.55593836864E+03  0.00000000000E+00 0. -1.
         25    2    1    2    0    0 -0.14393442403E+02  0.41908899573E+02 -0.40183341516E+03  0.42317934944E+03  0.12508853348E+03 0.  0.
          5    1    3    3  502    0  0.22857418363E+02  0.27798376445E+02 -0.24525165853E+02  0.43751199610E+02  0.41800000000E+01 0.  1.
         -5    1    3    3    0  502 -0.37250860766E+02  0.14110523128E+02 -0.37730824931E+03  0.37942814983E+03  0.41800000000E+01 0.  1.
        -11    1    1    2    0    0  0.24750916571E+02 -0.56694906418E+02 -0.49401160776E+02  0.79166880517E+02  0.00000000000E+00 0.  1.
         11    1    1    2    0    0 -0.10357474168E+02  0.14786006845E+02 -0.78118554302E+02  0.80177377082E+02  0.00000000000E+00 0. -1.
</event>
<event>
 7    1  0.2856214E-009  0.1129055E+03  0.7561462E-02  0.1255282E+00
         -1   -1    0    0    0  501 -0.00000000000E+00  0.00000000000E+00  0.48505734519E+02  0.48505734519E+02  0.00000000000E+00 0.  1.
          1   -1    0    0  501    0  0.00000000000E+00 -0.00000000000E+00 -0.37358126375E+03  0.37358126375E+03  0.00000000000E+00 0. -1.
         25    2    1    2    0    0 -0.44522114931E+02 -0.62833253401E+02 -0.15078905015E+03  0.21051346035E+03  0.12509333673E+03 0.  0.
          5    1    3    3  502    0  0.19427087923E+02  0.89313831353E+00 -0.10925204158E+03  0.11104814465E+03  0.41800000000E+01 0. -1.
         -5    1    3    3    0  502 -0.63949202853E+02 -0.63726391715E+02 -0.41537008572E+02  0.99465315702E+02  0.41800000000E+01 0. -1.
        -11    1    1    2    0    0  0.69969450560E+02  0.36481137462E+02 -0.90142576029E+02  0.11980100757E+03  0.00000000000E+00 0.  1.
         11    1    1    2    0    0 -0.25447335629E+02  0.26352115939E+02 -0.84143903052E+02  0.91772530345E+02  0.00000000000E+00 0. -1.
</event>
<event>
 7    1  0.2856214E-009  0.7919863E+02  0.7561462E-02  0.1331341E+00
          2   -1    0    0  501    0  0.00000000000E+00  0.00000000000E+00  0.61448086931E+02  0.61448086931E+02  0.00000000000E+00 0. -1.
         -2   -1    0    0    0  501 -0.00000000000E+00 -0.00000000000E+00 -0.21299127083E+03  0.21299127083E+03  0.00000000000E+00 0.  1.
         25    2    1    2    0    0  0.90907846086E+00 -0.34071788465E+02 -0.73080295876E+02  0.14882467570E+03  0.12508533590E+03 0.  0.
          5    1    3    3  502    0 -0.22826538670E+02  0.17524980762E+02 -0.85696347826E+02  0.90495923936E+02  0.41800000000E+01 0.  1.
         -5    1    3    3    0  502  0.23735617131E+02 -0.51596769227E+02  0.12616051950E+02  0.58328751762E+02  0.41800000000E+01 0.  1.
        -11    1    1    2    0    0 -0.30910604518E+02  0.28110458464E+02 -0.41101145000E+00  0.41783157817E+02  0.00000000000E+00 0. -1.
         11    1    1    2    0    0  0.30001526057E+02  0.59613300015E+01 -0.78051876572E+02  0.83831524246E+02  0.00000000000E+00 0.  1.
</event>
<event>
 7    1  0.2856214E-009  0.9380670E+02  0.7561462E-02  0.1293887E+00
         -1   -1    0    0    0  501 -0.00000000000E+00  0.00000000000E+00  0.46196431588E+03  0.46196431588E+03  0.00000000000E+00 0.  1.
          1   -1    0    0  501    0  0.00000000000E+00 -0.00000000000E+00 -0.29491154608E+02  0.29491154608E+02  0.00000000000E+00 0. -1.
         25    2    1    2    0    0  0.29085656698E+02 -0.29083765143E+02  0.21934893834E+03  0.25583872311E+03  0.12509058586E+03 0.  0.
          5    1    3    3  502    0  0.45348356012E+02  0.10415247541E+02  0.20549499208E+03  0.21073826170E+03  0.41800000000E+01 0.  1.
         -5    1    3    3    0  502 -0.16262699314E+02 -0.39499012684E+02  0.13853946254E+02  0.45100461404E+02  0.41800000000E+01 0.  1.
        -11    1    1    2    0    0 -0.41118188564E+02  0.55428433010E+02  0.12409486163E+03  0.14199489885E+03  0.00000000000E+00 0. -1.
         11    1    1    2    0    0  0.12032531866E+02 -0.26344667867E+02  0.89029361301E+02  0.93621848528E+02  0.00000000000E+00 0.  1.
</event>
<event>
 7    1  0.2856214E-009  0.1012411E+03  0.7561462E-02  0.1277708E+00
         -1   -1    0    0    0  501 -0.00000000000E+00  0.00000000000E+00  0.34896877172E+02  0.34896877172E+02  0.00000000000E+00 0.  1.
          1   -1    0    0  501    0  0.00000000000E+00 -0.00000000000E+00 -0.48640237088E+03  0.48640237088E+03  0.00000000000E+00 0. -1.
         25    2    1    2    0    0 -0.56862319393E+02  0.35061980806E+02 -0.21204712398E+03  0.25509675119E+03  0.12509078228E+03 0.  0.
          5    1    3    3  502    0  0.82487500276E+01 -0.89016506024E+01 -0.16055952265E+03  0.16107176654E+03  0.41800000000E+01 0.  1.
         -5    1    3    3    0  502 -0.65111069421E+02  0.43963631408E+02 -0.51487601328E+02  0.94024984649E+02  0.41800000000E+01 0.  1.
        -11    1    1    2    0    0  0.31147422664E+02  0.28616303617E+02 -0.13256983323E+03  0.13915392719E+03  0.00000000000E+00 0. -1.
         11    1    1    2    0    0  0.25714896729E+02 -0.63678284423E+02 -0.10688853649E+03  0.12704856967E+03  0.00000000000E+00 0.  1.
</event>
<event>
 7    1  0.2856214E-009  0.9185008E+02  0.7561462E-02  0.1298432E+00
          3   -1    0    0  501    0  0.00000000000E+00  0.00000000000E+00  0.21881067215E+03  0.21881067215E+03  0.00000000000E+00 0. -1.
         -3   -1    0    0    0  501 -0.00000000000E+00 -0.00000000000E+00 -0.83037421981E+02  0.83037421981E+02  0.00000000000E+00 0.  1.
         25    2    1    2    0    0  0.66800194843E+01  0.59293593708E+02  0.14760458552E+02  0.13939040900E+03  0.12510580350E+03 0.  0.
          5    1    3    3  502    0  0.32549859744E+02  0.71082260158E+02  0.50776394704E+02  0.93316106528E+02  0.41800000000E+01 0.  1.
         -5    1    3    3    0  502 -0.25869840260E+02 -0.11788666449E+02 -0.36015936152E+02  0.46074302476E+02  0.41800000000E+01 0.  1.
        -11    1    1    2    0    0 -0.25796403529E+02 -0.47938804811E+02  0.18400994240E+02  0.57464598065E+02  0.00000000000E+00 0.  1.
         11    1    1    2    0    0  0.19116384044E+02 -0.11354788897E+02  0.10261179738E+03  0.10499308707E+03  0.00000000000E+00 0. -1.
</event>
<event>
 7    1  0.2856214E-009  0.9770677E+02  0.7561462E-02  0.1285194E+00
          4   -1    0    0  501    0  0.00000000000E+00  0.00000000000E+00  0.95706311247E+02  0.95706311247E+02  0.00000000000E+00 0. -1.
         -4   -1    0    0    0  501 -0.00000000000E+00 -0.00000000000E+00 -0.19768811432E+03  0.19768811432E+03  0.00000000000E+00 0.  1.
         25    2    1    2    0    0  0.45271660861E+02 -0.33011763570E+01  0.19533352956E+02  0.13449761727E+03  0.12509051175E+03 0.  0.
          5    1    3    3  502    0 -0.20518977853E+02  0.15771997577E+02  0.52259941838E+02  0.58466727979E+02  0.41800000000E+01 0.  1.
         -5    1    3    3    0  502  0.65790638714E+02 -0.19073173934E+02 -0.32726588882E+02  0.76030889290E+02  0.41800000000E+01 0.  1.
        -11    1    1    2    0    0 -0.71474423234E+02  0.12969064849E+02 -0.73434711077E+02  0.10329301337E+03  0.00000000000E+00 0.  1.
         11    1    1    2    0    0  0.26202762373E+02 -0.96678884922E+01 -0.48080444947E+02  0.55603794925E+02  0.00000000000E+00 0. -1.
</event>
<event>
 7    1  0.2856214E-009  0.1314628E+03  0.7561462E-02  0.1225301E+00
         -2   -1    0    0    0  501 -0.00000000000E+00  0.00000000000E+00  0.48109523251E+03  0.48109523251E+03  0.00000000000E+00 0.  1.
          2   -1    0    0  501    0  0.00000000000E+00 -0.00000000000E+00 -0.42487889745E+02  0.42487889745E+02  0.00000000000E+00 0. -1.
         25    2    1    2    0    0  0.24358808012E+02 -0.85055255195E+02  0.28961940886E+03  0.32765318268E+03  0.12509779443E+03 0.  0.
          5    1    3    3  502    0 -0.54084404050E+01 -0.11150222533E+03  0.23193074597E+03  0.25743220624E+03  0.41800000000E+01 0.  1.
         -5    1    3    3    0  502  0.29767248417E+02  0.26446970134E+02  0.57688662886E+02  0.70220976447E+02  0.41800000000E+01 0.  1.
        -11    1    1    2    0    0  0.18008418328E+01  0.84997774899E+02  0.62352103351E+02  0.10543078090E+03  0.00000000000E+00 0. -1.
         11    1    1    2    0    0 -0.26159649845E+02  0.57480295481E-01  0.86635830553E+02  0.90499158668E+02  0.00000000000E+00 0.  1.
</event>
<event>
 7    1  0.2856214E-009  0.1106115E+03  0.7561462E-02  0.1259442E+00
          1   -1    0    0  501    0  0.00000000000E+00  0.00000000000E+00  0.47957714399E+02  0.47957714399E+02  0.00000000000E+00 0. -1.
         -1   -1    0    0    0  501 -0.00000000000E+00 -0.00000000000E+00 -0.33315546516E+03  0.33315546516E+03  0.00000000000E+00 0.  1.
         25    2    1    2    0    0  0.37650602010E+02  0.49860422402E+02 -0.18304198659E+03  0.23033561688E+03  0.12508596243E+03 0.  0.
          5    1    3    3  502    0  0.41917871229E+02 -0.24849194123E+02 -0.23916414843E+02  0.54443160047E+02  0.41800000000E+01 0. -1.
         -5    1    3    3    0  502 -0.42672692190E+01  0.74709616525E+02 -0.15912557175E+03  0.17589245684E+03  0.41800000000E+01 0. -1.
        -11    1    1    2    0    0 -0.36023585648E+02 -0.69169902470E+02 -0.10541468220E+03  0.13112753088E+03  0.00000000000E+00 0.  1.
         11    1    1    2    0    0 -0.16270163620E+01  0.19309480068E+02  0.32589180341E+01  0.19650031794E+02  0.00000000000E+00 0. -1.
</event>
<event>
 7    1  0.2856214E-009  0.1155392E+03  0.7561462E-02  0.1250643E+00
          1   -1    0    0  501    0  0.00000000000E+00  0.00000000000E+00  0.10409778449E+04  0.10409778449E+04  0.00000000000E+00 0. -1.
         -1   -1    0    0    0  501 -0.00000000000E+00 -0.00000000000E+00 -0.13731753959E+02  0.13731753959E+02  0.00000000000E+00 0.  1.
         25    2    1    2    0    0 -0.19474814098E+02 -0.40794745764E+02  0.49680343680E+03  0.51429994130E+03  0.12508914877E+03 0.  0.
          5    1    3    3  502    0 -0.55237933179E+02  0.19349454031E+02  0.29185133127E+03  0.29769162333E+03  0.41800000000E+01 0.  1.
         -5    1    3    3    0  502  0.35763119081E+02 -0.60144199794E+02  0.20495210552E+03  0.21660831797E+03  0.41800000000E+01 0.  1.
        -11    1    1    2    0    0  0.30523884075E+02 -0.22582123984E+02  0.16177461877E+03  0.16617065656E+03  0.00000000000E+00 0.  1.
         11    1    1    2    0    0 -0.11049069977E+02  0.63376869747E+02  0.36866803539E+03  0.37423900102E+03  0.00000000000E+00 0. -1.
</event>
<event>
 7    1  0.2856214E-009  0.1039959E+03  0.7561462E-02  0.1272111E+00
         -2   -1    0    0    0  501 -0.00000000000E+00  0.00000000000E+00  0.59572771410E+02  0.59572771410E+02  0.00000000000E+00 0.  1.
          2   -1    0    0  501    0  0.00000000000E+00 -0.00000000000E+00 -0.29021992110E+03  0.29021992110E+03  0.00000000000E+00 0. -1.
         25    2    1    2    0    0  0.38841328174E+02 -0.54076446585E+01 -0.44496240722E+02  0.13843388043E+03  0.12508450111E+03 0.  0.
          5    1    3    3  502    0  0.33238137828E+02 -0.61878281099E+02 -0.40970049623E+02  0.81423048605E+02  0.41800000000E+01 0. -1.
         -5    1    3    3    0  502  0.56031903453E+01  0.56470636441E+02 -0.35261910989E+01  0.57010831828E+02  0.41800000000E+01 0. -1.
        -11    1    1    2    0    0 -0.51614160259E+02 -0.17497777932E+02 -0.54329255954E+02  0.76953634250E+02  0.00000000000E+00 0.  1.
         11    1    1    2    0    0  0.12772832085E+02  0.22905422590E+02 -0.13182165301E+03  0.13440517783E+03  0.00000000000E+00 0. -1.
</event>
<event>
 7    1  0.2856214E-009  0.1045967E+03  0.7561462E-02  0.1270916E+00
          2   -1    0    0  501    0  0.00000000000E+00  0.00000000000E+00  0.11466528456E+04  0.11466528456E+04  0.00000000000E+00 0. -1.
         -2   -1    0    0    0  501 -0.00000000000E+00 -0.00000000000E+00 -0.16249041067E+02  0.16249041067E+02  0.00000000000E+00 0.  1.
         25    2    1    2    0    0  0.28067134017E+02  0.46902977186E+02  0.89313264241E+03  0.90350476518E+03  0.12508913016E+03 0.  0.
          5    1    3    3  502    0  0.14303760944E+02  0.73034606004E+02  0.83351411861E+03  0.83684043256E+03  0.41800000000E+01 0. -1.
         -5    1    3    3    0  502  0.13763373073E+02 -0.26131628818E+02  0.59618523802E+02  0.66664332618E+02  0.41800000000E+01 0. -1.
        -11    1    1    2    0    0  0.28350500088E+02 -0.38458688353E+02  0.10692265158E+03  0.11711223244E+03  0.00000000000E+00 0.  1.
         11    1    1    2    0    0 -0.56417634106E+02 -0.84442888329E+01  0.13034851056E+03  0.14228488906E+03  0.00000000000E+00 0. -1.
</event>
<event>
 7    1  0.2856214E-009  0.1186043E+03  0.7561462E-02  0.1245417E+00
          1   -1    0    0  501    0  0.00000000000E+00  0.00000000000E+00  0.37737508500E+03  0.37737508500E+03  0.00000000000E+00 0.  1.
         -1   -1    0    0    0  501 -0.00000000000E+00 -0.00000000000E+00 -0.49601699206E+02  0.49601699206E+02  0.00000000000E+00 0. -1.
         25    2    1    2    0    0  0.80330811951E+02 -0.18763640308E+02  0.16665687262E+03  0.22411403214E+03  0.12508985836E+03 0.  0.
          5    1    3    3  502    0  0.43208248589E+02  0.53223477451E+02  0.79509374276E+02  0.10506619007E+03  0.41800000000E+01 0.  1.
         -5    1    3    3    0  502  0.37122563362E+02 -0.71987117759E+02  0.87147498348E+02  0.11904784207E+03  0.41800000000E+01 0.  1.
        -11    1    1    2    0    0 -0.51089100788E+02 -0.26846157839E+01  0.16478713117E+02  0.53748035938E+02  0.00000000000E+00 0. -1.
         11    1    1    2    0    0 -0.29241711163E+02  0.21448256092E+02  0.14463780005E+03  0.14911471613E+03  0.00000000000E+00 0.  1.
</event>
<event>
 7    1  0.2856214E-009  0.1058966E+03  0.7561462E-02  0.1268363E+00
         -1   -1    0    0    0  501 -0.00000000000E+00  0.00000000000E+00  0.29281086667E+02  0.29281086667E+02  0.00000000000E+00 0.  1.
          1   -1    0    0  501    0  0.00000000000E+00 -0.00000000000E+00 -0.66201417655E+03  0.66201417655E+03  0.00000000000E+00 0. -1.
         25    2    1    2    0    0  0.88073547697E+02  0.47466209836E+01 -0.36851921395E+03  0.39904093656E+03  0.12509107795E+03 0.  0.
          5    1    3    3  502    0  0.61298228041E+01 -0.13609748958E+02 -0.26601057281E+03  0.26646181198E+03  0.41800000000E+01 0. -1.
         -5    1    3    3    0  502  0.81943724893E+02  0.18356369941E+02 -0.10250864114E+03  0.13257912458E+03  0.41800000000E+01 0. -1.
        -11    1    1    2    0    0 -0.66244480014E+02  0.28764678279E+02 -0.10069889491E+03  0.12391934992E+03  0.00000000000E+00 0.  1.
         11    1    1    2    0    0 -0.21829067684E+02 -0.33511299263E+02 -0.16351498102E+03  0.16833497673E+03  0.00000000000E+00 0. -1.
</event>
<event>
 7    1  0.2856214E-009  0.9786725E+02  0.7561462E-02  0.1284846E+00
         -1   -1    0    0    0  501 -0.00000000000E+00  0.00000000000E+00  0.50695035221E+02  0.50695035221E+02  0.00000000000E+00 0.  1.
          1   -1    0    0  501    0  0.00000000000E+00 -0.00000000000E+00 -0.29317896907E+03  0.29317896907E+03  0.00000000000E+00 0. -1.
         25    2    1    2    0    0  0.49010359681E+02  0.46719665973E+01 -0.93388482733E+02  0.16368394167E+03  0.12508869424E+03 0.  0.
          5    1    3    3  502    0 -0.10354551080E+02 -0.41749157967E+02  0.50016567749E+00  0.43219572935E+02  0.41800000000E+01 0.  1.
         -5    1    3    3    0  502  0.59364910761E+02  0.46421124564E+02 -0.93888648410E+02  0.12046436874E+03  0.41800000000E+01 0.  1.
        -11    1    1    2    0    0 -0.18655217880E+02  0.27229138519E+02 -0.12642305452E+03  0.13066075101E+03  0.00000000000E+00 0. -1.
         11    1    1    2    0    0 -0.30355141801E+02 -0.31901105116E+02 -0.22672396594E+02  0.49529311611E+02  0.00000000000E+00 0.  1.
</event>
<event>
 7    1  0.2856214E-009  0.9297210E+02  0.7561462E-02  0.1295810E+00
          2   -1    0    0  501    0  0.00000000000E+00  0.00000000000E+00  0.10400811382E+04  0.10400811382E+04  0.00000000000E+00 0. -1.
         -2   -1    0    0    0  501 -0.00000000000E+00 -0.00000000000E+00 -0.16675732579E+02  0.16675732579E+02  0.00000000000E+00 0.  1.
         25    2    1    2    0    0  0.33340476970E+02 -0.11646085140E+01  0.76086104386E+03  0.77179693255E+03  0.12509209933E+03 0.  0.
          5    1    3    3  502    0  0.15711343131E+02 -0.40262258374E+02  0.93988440381E+02  0.10353354566E+03  0.41800000000E+01 0.  1.
         -5    1    3    3    0  502  0.17629133838E+02  0.39097649860E+02  0.66687260348E+03  0.66826338689E+03  0.41800000000E+01 0.  1.
        -11    1    1    2    0    0 -0.20751200453E+02 -0.46080907349E+02  0.70204736588E+02  0.86502990594E+02  0.00000000000E+00 0.  1.
         11    1    1    2    0    0 -0.12589276517E+02  0.47245515863E+02  0.19233962516E+03  0.19845694762E+03  0.00000000000E+00 0. -1.
</event>
<event>
 7    1  0.2856214E-009  0.1093450E+03  0.7561462E-02  0.1261788E+00
          1   -1    0    0  501    0  0.00000000000E+00  0.00000000000E+00  0.58916229739E+03  0.58916229739E+03  0.00000000000E+00 0. -1.
         -1   -1    0    0    0  501 -0.00000000000E+00 -0.00000000000E+00 -0.26523048729E+02  0.26523048729E+02  0.00000000000E+00 0.  1.
         25    2    1    2    0    0 -0.36725072372E+02 -0.47384315616E+02  0.37583773645E+03  0.40062154268E+03  0.12509840930E+03 0.  0.
          5    1    3    3  502    0  0.28970366890E+02  0.25968159386E+02  0.85966854286E+02  0.94453162443E+02  0.41800000000E+01 0.  1.
         -5    1    3    3    0  502 -0.65695439262E+02 -0.73352475002E+02  0.28987088217E+03  0.30616838024E+03  0.41800000000E+01 0.  1.
        -11    1    1    2    0    0  0.41483482700E+02  0.91609159442E+01  0.26210222112E+02  0.49917706888E+02  0.00000000000E+00 0.  1.
         11    1    1    2    0    0 -0.47584103281E+01  0.38223399672E+02  0.16059129010E+03  0.16514609655E+03  0.00000000000E+00 0. -1.
</event>
<event>
 7    1  0.2856214E-009  0.1138937E+03  0.7561462E-02  0.1253525E+00
          2   -1    0    0  501    0  0.00000000000E+00  0.00000000000E+00  0.93774039850E+03  0.93774039850E+03  0.00000000000E+00 0. -1.
         -2   -1    0    0    0  501 -0.00000000000E+00 -0.00000000000E+00 -0.15428562698E+02  0.15428562698E+02  0.00000000000E+00 0.  1.
         25    2    1    2    0    0 -0.20651525448E+02 -0.43182395232E+02  0.43548869226E+03  0.45561892225E+03  0.12508795489E+03 0.  0.
          5    1    3    3  502    0  0.46328660722E+02 -0.37477328860E+02  0.13421300801E+03  0.14690642907E+03  0.41800000000E+01 0.  1.
         -5    1    3    3    0  502 -0.66980186170E+02 -0.57050663729E+01  0.30127568425E+03  0.30871249318E+03  0.41800000000E+01 0.  1.
        -11    1    1    2    0    0 -0.33750150619E+02  0.28952742548E+02  0.16687445851E+03  0.17269747789E+03  0.00000000000E+00 0.  1.
         11    1    1    2    0    0  0.54401676067E+02  0.14229652684E+02  0.31994868503E+03  0.32485256106E+03  0.00000000000E+00 0. -1.
</event>
<event>
 7    1  0.2856214E-009  0.9823731E+02  0.7561462E-02  0.1284047E+00
         -2   -1    0    0    0  501 -0.00000000000E+00  0.00000000000E+00  0.25956510834E+03  0.25956510834E+03  0.00000000000E+00 0. -1.
          2   -1    0    0  501    0  0.00000000000E+00 -0.00000000000E+00 -0.56323755215E+02  0.56323755215E+02  0.00000000000E+00 0.  1.
         25    2    1    2    0    0  0.50734604223E+02 -0.21192131938E+02  0.14122184773E+03  0.19650336202E+03  0.12508738739E+03 0.  0.
          5    1    3    3  502    0 -0.29158337752E+00  0.49186293307E+02  0.45546708873E+02  0.67166595562E+02  0.41800000000E+01 0.  1.
         -5    1    3    3    0  502  0.51026187601E+02 -0.70378425245E+02  0.95675138860E+02  0.12933676645E+03  0.41800000000E+01 0.  1.
        -11    1    1    2    0    0 -0.35494395013E+02  0.19697237452E+01 -0.14977395204E+02  0.38575306299E+02  0.00000000000E+00 0.  1.
         11    1    1    2    0    0 -0.15240209210E+02  0.19222408193E+02  0.76996900591E+02  0.80810195237E+02  0.00000000000E+00 0. -1.
</event>
<event>
 7    1  0.2856214E-009  0.6795526E+02  0.7561462E-02  0.1367188E+00
          2   -1    0    0  501    0  0.00000000000E+00  0.00000000000E+00  0.40019293791E+02  0.40019293791E+02  0.00000000000E+00 0. -1.
         -2   -1    0    0    0  501 -0.00000000000E+00 -0.00000000000E+00 -0.25956635777E+03  0.25956635777E+03  0.00000000000E+00 0.  1.
         25    2    1    2    0    0  0.33201091135E+01 -0.17765984902E+02 -0.15008338550E+03  0.19621000530E+03  0.12508673085E+03 0.  0.
          5    1    3    3  502    0  0.40007701066E+02 -0.19085371890E+02 -0.15280694713E+03  0.15916124860E+03  0.41800000000E+01 0. -1.
         -5    1    3    3    0  502 -0.36687591952E+02  0.13193869876E+01  0.27235616298E+01  0.37048756703E+02  0.41800000000E+01 0. -1.
        -11    1    1    2    0    0  0.71683307525E+01  0.34199784695E+02 -0.75310526690E+02  0.83022199858E+02  0.00000000000E+00 0.  1.
         11    1    1    2    0    0 -0.10488439866E+02 -0.16433799793E+02  0.58468482083E+01  0.20353446402E+02  0.00000000000E+00 0. -1.
</event>
<event>
 7    1  0.2856214E-009  0.8479467E+02  0.7561462E-02  0.1315970E+00
          1   -1    0    0  501    0  0.00000000000E+00  0.00000000000E+00  0.81152810736E+02  0.81152810736E+02  0.00000000000E+00 0. -1.
         -1   -1    0    0    0  501 -0.00000000000E+00 -0.00000000000E+00 -0.22000198928E+03  0.22000198928E+03  0.00000000000E+00 0.  1.
         25    2    1    2    0    0 -0.56474715752E+02  0.60157057418E+02 -0.87905399140E+02  0.17373231505E+03  0.12508914029E+03 0.  0.
          5    1    3    3  502    0 -0.36395101065E+02  0.19764851376E+02 -0.11406330132E+03  0.12142142249E+03  0.41800000000E+01 0. -1.
         -5    1    3    3    0  502 -0.20079614688E+02  0.40392206042E+02  0.26157902176E+02  0.52310892567E+02  0.41800000000E+01 0. -1.
        -11    1    1    2    0    0  0.13277527263E+02 -0.11184141079E+02  0.22971034631E+02  0.28793161930E+02  0.00000000000E+00 0. -1.
         11    1    1    2    0    0  0.43197188489E+02 -0.48972916339E+02 -0.73914814036E+02  0.98629323034E+02  0.00000000000E+00 0.  1.
</event>
<event>
 7    1  0.2856214E-009  0.1466938E+03  0.7561462E-02  0.1204596E+00
         -1   -1    0    0    0  501 -0.00000000000E+00  0.00000000000E+00  0.26415076845E+02  0.26415076845E+02  0.00000000000E+00 0.  1.
          1   -1    0    0  501    0  0.00000000000E+00 -0.00000000000E+00 -0.22068947506E+04  0.22068947506E+04  0.00000000000E+00 0. -1.
         25    2    1    2    0    0 -0.13785884944E+03 -0.32218666440E+02 -0.18657775797E+04  0.18753179338E+04  0.12509304902E+03 0.  0.
          5    1    3    3  502    0 -0.39740515052E+01 -0.97522583252E+00 -0.87699376901E+03  0.87701327666E+03  0.41800000000E+01 0.  1.
         -5    1    3    3    0  502 -0.13388479793E+03 -0.31243440607E+02 -0.98878381069E+03  0.99830465710E+03  0.41800000000E+01 0.  1.
        -11    1    1    2    0    0  0.85840801735E+02  0.44288522373E+02 -0.10977376010E+03  0.14622036405E+03  0.00000000000E+00 0.  1.
         11    1    1    2    0    0  0.52018047702E+02 -0.12069855934E+02 -0.20492833394E+03  0.21177152963E+03  0.00000000000E+00 0. -1.
</event>
<event>
 7    1  0.2856214E-009  0.8091330E+02  0.7561462E-02  0.1326479E+00
          2   -1    0    0  501    0  0.00000000000E+00  0.00000000000E+00  0.11563720323E+03  0.11563720323E+03  0.00000000000E+00 0. -1.
         -2   -1    0    0    0  501 -0.00000000000E+00 -0.00000000000E+00 -0.10935765363E+03  0.10935765363E+03  0.00000000000E+00 0.  1.
         25    2    1    2    0    0  0.25323217433E+02 -0.17346632830E+02 -0.12296782052E+02  0.12938587413E+03  0.12508925839E+03 0.  0.
          5    1    3    3  502    0  0.34342258368E+02  0.19578609777E+02  0.45288828966E+02  0.60259962660E+02  0.41800000000E+01 0.  1.
         -5    1    3    3    0  502 -0.90190409351E+01 -0.36925242607E+02 -0.57585611018E+02  0.69125911475E+02  0.41800000000E+01 0.  1.
        -11    1    1    2    0    0  0.21053076753E+02  0.29171468954E+02 -0.13021378930E+02  0.38259155126E+02  0.00000000000E+00 0.  1.
         11    1    1    2    0    0 -0.46376294187E+02 -0.11824836124E+02  0.31597710586E+02  0.57349827603E+02  0.00000000000E+00 0. -1.
</event>
<event>
 7    1  0.2856214E-009  0.1095950E+03  0.7561462E-02  0.1261322E+00
         -3   -1    0    0    0  501 -0.00000000000E+00  0.00000000000E+00  0.90377981274E+02  0.90377981274E+02  0.00000000000E+00 0.  1.
          3   -1    0    0  501    0  0.00000000000E+00 -0.00000000000E+00 -0.17971772193E+03  0.17971772193E+03  0.00000000000E+00 0. -1.
         25    2    1    2    0    0  0.20143908105E+02 -0.50704483053E+02 -0.89396026596E+02  0.16314147480E+03  0.12508704806E+03 0.  0.
          5    1    3    3  502    0 -0.30190513472E+02 -0.63745550831E+02 -0.14921746706E+02  0.72215602741E+02  0.41800000000E+01 0.  1.
         -5    1    3    3    0  502  0.50334421577E+02  0.13041067779E+02 -0.74474279890E+02  0.90925872058E+02  0.41800000000E+01 0.  1.
        -11    1    1    2    0    0  0.29479794298E+02  0.71317005486E+01  0.21884913825E+02  0.37401455556E+02  0.00000000000E+00 0. -1.
         11    1    1    2    0    0 -0.49623702403E+02  0.43572782504E+02 -0.21828627882E+02  0.69552772846E+02  0.00000000000E+00 0.  1.
</event>
<event>
 7    1  0.2856214E-009  0.8984664E+02  0.7561462E-02  0.1303223E+00
         -2   -1    0    0    0  501 -0.00000000000E+00  0.00000000000E+00  0.18624598593E+03  0.18624598593E+03  0.00000000000E+00 0. -1.
          2   -1    0    0  501    0  0.00000000000E+00 -0.00000000000E+00 -0.72589339992E+02  0.72589339992E+02  0.00000000000E+00 0.  1.
         25    2    1    2    0    0 -0.41094627215E+02  0.11854165923E+02  0.72389642718E+02  0.15071868163E+03  0.12508625418E+03 0.  0.
          5    1    3    3  502    0  0.58432275139E+01  0.37937992696E+02 -0.20219387218E+02  0.43585899292E+02  0.41800000000E+01 0.  1.
         -5    1    3    3    0  502 -0.46937854729E+02 -0.26083826773E+02  0.92609029936E+02  0.10713278234E+03  0.41800000000E+01 0.  1.
        -11    1    1    2    0    0  0.21363893951E+02 -0.44336224853E+02 -0.35643311896E+01  0.49343907991E+02  0.00000000000E+00 0.  1.
         11    1    1    2    0    0  0.19730733264E+02  0.32482058930E+02  0.44831334410E+02  0.58772736302E+02  0.00000000000E+00 0. -1.
</event>
<event>
 7    1  0.2856214E-009  0.9294088E+02  0.7561462E-02  0.1295882E+00
         -1   -1    0    0    0  501 -0.00000000000E+00  0.00000000000E+00  0.60705884471E+02  0.60705884471E+02  0.00000000000E+00 0.  1.
          1   -1    0    0  501    0  0.00000000000E+00 -0.00000000000E+00 -0.28305814539E+03  0.28305814539E+03  0.00000000000E+00 0. -1.
         25    2    1    2    0    0  0.55926164260E+02 -0.40668922986E+02 -0.85705471553E+02  0.16665709353E+03  0.12508981502E+03 0.  0.
          5    1    3    3  502    0  0.75990101331E+02 -0.16730139301E+02 -0.28091166606E+01  0.77972793959E+02  0.41800000000E+01 0.  1.
         -5    1    3    3    0  502 -0.20063937071E+02 -0.23938783685E+02 -0.82896354892E+02  0.88684299566E+02  0.41800000000E+01 0.  1.
        -11    1    1    2    0    0 -0.36228543200E+02  0.62132828428E+01 -0.13214712917E+03  0.13716404767E+03  0.00000000000E+00 0. -1.
         11    1    1    2    0    0 -0.19697621061E+02  0.34455640143E+02 -0.44996601991E+01  0.39942888667E+02  0.00000000000E+00 0.  1.
</event>
<event>
 7    1  0.2856214E-009  0.8749277E+02  0.7561462E-02  0.1309039E+00
          2   -1    0    0  501    0  0.00000000000E+00  0.00000000000E+00  0.20310369517E+03  0.20310369517E+03  0.00000000000E+00 0. -1.
         -2   -1    0    0    0  501 -0.00000000000E+00 -0.00000000000E+00 -0.60426695656E+02  0.60426695656E+02  0.00000000000E+00 0.  1.
         25    2    1    2    0    0 -0.84991605778E+01  0.92476885517E+01  0.11820000836E+03  0.17255836961E+03  0.12508954182E+03 0.  0.
          5    1    3    3  502    0 -0.93239203624E+01 -0.51040792142E+02  0.94008619459E+02  0.10745785632E+03  0.41800000000E+01 0.  1.
         -5    1    3    3    0  502  0.82475978463E+00  0.60288480693E+02  0.24191388898E+02  0.65100513284E+02  0.41800000000E+01 0.  1.
        -11    1    1    2    0    0  0.17296719532E+02  0.23163675073E+02 -0.20063366845E+02  0.35189075558E+02  0.00000000000E+00 0.  1.
         11    1    1    2    0    0 -0.87975589544E+01 -0.32411363624E+02  0.44540357998E+02  0.55782945657E+02  0.00000000000E+00 0. -1.
</event>
<event>
 7    1  0.2856214E-009  0.1594363E+03  0.7561462E-02  0.1189335E+00
         -3   -1    0    0    0  501 -0.00000000000E+00  0.00000000000E+00  0.45114559121E+03  0.45114559121E+03  0.00000000000E+00 0.  1.
          3   -1    0    0  501    0  0.00000000000E+00 -0.00000000000E+00 -0.85668976633E+02  0.85668976633E+02  0.00000000000E+00 0. -1.
         25    2    1    2    0    0  0.81567636116E+02  0.10763538552E+03  0.65377996386E+02  0.19534504127E+03  0.12508695879E+03 0.  0.
          5    1    3    3  502    0  0.40405464402E+02  0.10831516649E+03  0.90553571516E+02  0.14690881035E+03  0.41800000000E+01 0. -1.
         -5    1    3    3    0  502  0.41162171714E+02 -0.67978096657E+00 -0.25175575130E+02  0.48436230918E+02  0.41800000000E+01 0. -1.
        -11    1    1    2    0    0 -0.51776938938E+02 -0.17407496666E+01  0.11536546589E+03  0.12646371944E+03  0.00000000000E+00 0. -1.
         11    1    1    2    0    0 -0.29790697178E+02 -0.10589463585E+03  0.18473315230E+03  0.21500580713E+03  0.00000000000E+00 0.  1.
</event>
<event>
 7    1  0.2856214E-009  0.1536930E+03  0.7561462E-02  0.1196007E+00
          1   -1    0    0  501    0  0.00000000000E+00  0.00000000000E+00  0.17235944073E+03  0.17235944073E+03  0.00000000000E+00 0. -1.
         -1   -1    0    0    0  501 -0.00000000000E+00 -0.00000000000E+00 -0.16147310700E+03  0.16147310700E+03  0.00000000000E+00 0.  1.
         25    2    1    2    0    0 -0.32676568378E+02 -0.12145903291E+03  0.20736829228E+02  0.17859890761E+03  0.12508996329E+03 0.  0.
          5    1    3    3  502    0  0.18571911532E+02  0.18453788132E+02 -0.59362753536E+01  0.27169283381E+02  0.41800000000E+01 0. -1.
         -5    1    3    3    0  502 -0.51248479909E+02 -0.13991282105E+03  0.26673104581E+02  0.15142962423E+03  0.41800000000E+01 0. -1.
        -11    1    1    2    0    0 -0.92351267506E+01  0.19617013225E+02 -0.36016138103E+02  0.42038993540E+02  0.00000000000E+00 0.  1.
         11    1    1    2    0    0  0.41911695128E+02  0.10184201969E+03  0.26165642602E+02  0.11319464659E+03  0.00000000000E+00 0. -1.
</event>
<event>
 7    1  0.2856214E-009  0.1061803E+03  0.7561462E-02  0.1267811E+00
         -1   -1    0    0    0  501 -0.00000000000E+00  0.00000000000E+00  0.89000844326E+02  0.89000844326E+02  0.00000000000E+00 0.  1.
          1   -1    0    0  501    0  0.00000000000E+00 -0.00000000000E+00 -0.26306482931E+03  0.26306482931E+03  0.00000000000E+00 0. -1.
         25    2    1    2    0    0 -0.75791083699E+02 -0.25838402843E+02 -0.17813762602E+03  0.23193842106E+03  0.12510198212E+03 0.  0.
          5    1    3    3  502    0 -0.72779081692E+01 -0.55546406335E+02 -0.24952759852E+02  0.61469373092E+02  0.41800000000E+01 0. -1.
         -5    1    3    3    0  502 -0.68513175530E+02  0.29708003492E+02 -0.15318486617E+03  0.17046904797E+03  0.41800000000E+01 0. -1.
        -11    1    1    2    0    0  0.62098999644E+02  0.14890725786E+02 -0.38165223438E+02  0.74394917510E+02  0.00000000000E+00 0. -1.
         11    1    1    2    0    0  0.13692084056E+02  0.10947677057E+02  0.42238864473E+02  0.45732335067E+02  0.00000000000E+00 0.  1.
</event>
<event>
 7    1  0.2856214E-009  0.1241944E+03  0.7561462E-02  0.1236334E+00
         -1   -1    0    0    0  501 -0.00000000000E+00  0.00000000000E+00  0.42215559198E+02  0.42215559198E+02  0.00000000000E+00 0.  1.
          1   -1    0    0  501    0  0.00000000000E+00 -0.00000000000E+00 -0.46751372113E+03  0.46751372113E+03  0.00000000000E+00 0. -1.
         25    2    1    2    0    0  0.29415161624E+02  0.74301093669E+02 -0.16999288731E+03  0.22567869438E+03  0.12508951639E+03 0.  0.
          5    1    3    3  502    0 -0.41938309049E+02 -0.39135138610E+01 -0.53249991025E+02  0.68023314391E+02  0.41800000000E+01 0.  1.
         -5    1    3    3    0  502  0.71353470673E+02  0.78214607530E+02 -0.11674289628E+03  0.15765537999E+03  0.41800000000E+01 0.  1.
        -11    1    1    2    0    0 -0.16576626720E+02  0.68575992443E+01 -0.23595215627E+01  0.18093605578E+02  0.00000000000E+00 0.  1.
         11    1    1    2    0    0 -0.12838534904E+02 -0.81158692913E+02 -0.25294575306E+03  0.26595698036E+03  0.00000000000E+00 0. -1.
</event>
<event>
 7    1  0.2856214E-009  0.1375736E+03  0.7561462E-02  0.1216632E+00
         -2   -1    0    0    0  501 -0.00000000000E+00  0.00000000000E+00  0.21118532760E+03  0.21118532760E+03  0.00000000000E+00 0.  1.
          2   -1    0    0  501    0  0.00000000000E+00 -0.00000000000E+00 -0.12773224823E+03  0.12773224823E+03  0.00000000000E+00 0. -1.
         25    2    1    2    0    0  0.11513698966E+03 -0.42512632061E+02  0.37911606808E+02  0.17930050714E+03  0.12509009416E+03 0.  0.
          5    1    3    3  502    0  0.82929097444E+02  0.14266894649E+01  0.76098056892E+02  0.11263950155E+03  0.41800000000E+01 0.  1.
         -5    1    3    3    0  502  0.32207892219E+02 -0.43939321526E+02 -0.38186450084E+02  0.66661005598E+02  0.41800000000E+01 0.  1.
        -11    1    1    2    0    0 -0.81159389962E+02 -0.23383212497E+01  0.60663229113E+02  0.10135256135E+03  0.00000000000E+00 0.  1.
         11    1    1    2    0    0 -0.33977599700E+02  0.44850953310E+02 -0.15121756555E+02  0.58264507340E+02  0.00000000000E+00 0. -1.
</event>
<event>
 7    1  0.2856214E-009  0.2417644E+03  0.7561462E-02  0.1118623E+00
          1   -1    0    0  501    0  0.00000000000E+00  0.00000000000E+00  0.24531588211E+03  0.24531588211E+03  0.00000000000E+00 0. -1.
         -1   -1    0    0    0  501 -0.00000000000E+00 -0.00000000000E+00 -0.43377294243E+03  0.43377294243E+03  0.00000000000E+00 0.  1.
         25    2    1    2    0    0 -0.23525151422E+03  0.29990426956E+02 -0.29996107418E+03  0.40232781614E+03  0.12509326509E+03 0.  0.
          5    1    3    3  502    0 -0.15162659941E+03  0.37180619867E+02 -0.27220572926E+03  0.31382551774E+03  0.41800000000E+01 0.  1.
         -5    1    3    3    0  502 -0.83624914808E+02 -0.71901929114E+01 -0.27755344912E+02  0.88502298399E+02  0.41800000000E+01 0.  1.
        -11    1    1    2    0    0  0.21495438146E+03 -0.10552449427E+02  0.69375207054E+02  0.22611868488E+03  0.00000000000E+00 0.  1.
         11    1    1    2    0    0  0.20297132760E+02 -0.19437977528E+02  0.42128806799E+02  0.50642323515E+02  0.00000000000E+00 0. -1.
</event>
<event>
 7    1  0.2856214E-009  0.9172624E+02  0.7561462E-02  0.1298724E+00
         -4   -1    0    0    0  501 -0.00000000000E+00  0.00000000000E+00  0.30871657225E+03  0.30871657225E+03  0.00000000000E+00 0.  1.
          4   -1    0    0  501    0  0.00000000000E+00 -0.00000000000E+00 -0.48758655152E+02  0.48758655152E+02  0.00000000000E+00 0. -1.
         25    2    1    2    0    0 -0.35859402112E+02 -0.70796542218E+01  0.21096849801E+03  0.24797365735E+03  0.12508880591E+03 0.  0.
          5    1    3    3  502    0  0.68912856621E+01 -0.55498747372E+02  0.52599201708E+02  0.76887900207E+02  0.41800000000E+01 0.  1.
         -5    1    3    3    0  502 -0.42750687774E+02  0.48419093151E+02  0.15836929630E+03  0.17108575715E+03  0.41800000000E+01 0.  1.
        -11    1    1    2    0    0 -0.10969773177E+02  0.11147337137E+02  0.59343011449E+02  0.61369308752E+02  0.00000000000E+00 0.  1.
         11    1    1    2    0    0  0.46829175289E+02 -0.40676829150E+01 -0.10353592364E+02  0.48132261295E+02  0.00000000000E+00 0. -1.
</event>
<event>
 7    1  0.2856214E-009  0.1348967E+03  0.7561462E-02  0.1220366E+00
          1   -1    0    0  501    0  0.00000000000E+00  0.00000000000E+00  0.40273506497E+02  0.40273506497E+02  0.00000000000E+00 0. -1.
         -1   -1    0    0    0  501 -0.00000000000E+00 -0.00000000000E+00 -0.53632701819E+03  0.53632701819E+03  0.00000000000E+00 0.  1.
         25    2    1    2    0    0 -0.86221955707E+02  0.29100627992E+02 -0.19807690036E+03  0.25132318230E+03  0.12509121196E+03 0.  0.
          5    1    3    3  502    0 -0.11483483203E+03  0.29389690517E+02 -0.12301201715E+03  0.17088072249E+03  0.41800000000E+01 0. -1.
         -5    1    3    3    0  502  0.28612876324E+02 -0.28906252506E+00 -0.75064883209E+02  0.80442459808E+02  0.41800000000E+01 0. -1.
        -11    1    1    2    0    0  0.10197577966E+03 -0.30527852466E+02 -0.20524924565E+03  0.23121042852E+03  0.00000000000E+00 0. -1.
         11    1    1    2    0    0 -0.15753823953E+02  0.14272244744E+01 -0.92727365688E+02  0.94066913876E+02  0.00000000000E+00 0.  1.
</event>
<event>
 7    1  0.2856214E-009  0.1380701E+03  0.7561462E-02  0.1215950E+00
          2   -1    0    0  501    0  0.00000000000E+00  0.00000000000E+00  0.72565443521E+03  0.72565443521E+03  0.00000000000E+00 0.  1.
         -2   -1    0    0    0  501 -0.00000000000E+00 -0.00000000000E+00 -0.33191591521E+02  0.33191591521E+02  0.00000000000E+00 0. -1.
         25    2    1    2    0    0 -0.56974223851E+01 -0.10793309287E+03  0.33305920152E+03  0.37182993676E+03  0.12508819686E+03 0.  0.
          5    1    3    3  502    0  0.38240235483E+02 -0.92099692121E+02  0.13263963519E+03  0.16599823530E+03  0.41800000000E+01 0.  1.
         -5    1    3    3    0  502 -0.43937657868E+02 -0.15833400746E+02  0.20041956633E+03  0.20583170146E+03  0.41800000000E+01 0.  1.
        -11    1    1    2    0    0 -0.29461484486E+02  0.77598963127E+02  0.14003330960E+03  0.16278484556E+03  0.00000000000E+00 0. -1.
         11    1    1    2    0    0  0.35158906871E+02  0.30334129740E+02  0.21937033257E+03  0.22423124442E+03  0.00000000000E+00 0.  1.
</event>
<event>
 7    1  0.2856214E-009  0.1320824E+03  0.7561462E-02  0.1224398E+00
         -2   -1    0    0    0  501 -0.00000000000E+00  0.00000000000E+00  0.59669810557E+02  0.59669810557E+02  0.00000000000E+00 0.  1.
          2   -1    0    0  501    0  0.00000000000E+00 -0.00000000000E+00 -0.50844552502E+03  0.50844552502E+03  0.00000000000E+00 0. -1.
         25    2    1    2    0    0  0.29045044765E+02 -0.10977831839E+03 -0.36353093191E+03  0.40086965762E+03  0.12508737000E+03 0.  0.
          5    1    3    3  502    0  0.40910608761E+02 -0.18080353286E+02 -0.28294769005E+02  0.53090897876E+02  0.41800000000E+01 0. -1.
         -5    1    3    3    0  502 -0.11865563996E+02 -0.91697965099E+02 -0.33523616290E+03  0.34777875974E+03  0.41800000000E+01 0. -1.
        -11    1    1    2    0    0 -0.37566407115E+02  0.34748749379E+02  0.28057782015E+01  0.51250199202E+02  0.00000000000E+00 0.  1.
         11    1    1    2    0    0  0.85213623502E+01  0.75029569006E+02 -0.88050560757E+02  0.11599547875E+03  0.00000000000E+00 0. -1.
</event>
<event>
 7    1  0.2856214E-009  0.1161577E+03  0.7561462E-02  0.1249574E+00
          2   -1    0    0  501    0  0.00000000000E+00  0.00000000000E+00  0.13358237677E+02  0.13358237677E+02  0.00000000000E+00 0. -1.
         -2   -1    0    0    0  501 -0.00000000000E+00 -0.00000000000E+00 -0.13764204455E+04  0.13764204455E+04  0.00000000000E+00 0.  1.
         25    2    1    2    0    0 -0.41787971055E+02 -0.44486310654E+02 -0.10190885769E+04  0.10285494603E+04  0.12508876204E+03 0.  0.
          5    1    3    3  502    0 -0.65109902870E+02 -0.71518857837E+02 -0.86101936207E+03  0.86644449374E+03  0.41800000000E+01 0. -1.
         -5    1    3    3    0  502  0.23321931814E+02  0.27032547183E+02 -0.15806921481E+03  0.16210496656E+03  0.41800000000E+01 0. -1.
        -11    1    1    2    0    0 -0.16386939924E+02  0.37555590352E+02 -0.70430670322E+02  0.81482718958E+02  0.00000000000E+00 0. -1.
         11    1    1    2    0    0  0.58174910979E+02  0.69307203024E+01 -0.27354296064E+03  0.27974650394E+03  0.00000000000E+00 0.  1.
</event>
<event>
 7    1  0.2856214E-009  0.8087144E+02  0.7561462E-02  0.1326596E+00
         -1   -1    0    0    0  501 -0.00000000000E+00  0.00000000000E+00  0.11527625110E+03  0.11527625110E+03  0.00000000000E+00 0.  1.
          1   -1    0    0  501    0  0.00000000000E+00 -0.00000000000E+00 -0.10965974309E+03  0.10965974309E+03  0.00000000000E+00 0. -1.
         25    2    1    2    0    0 -0.28180286648E+02  0.36059597877E+01 -0.12174138263E+02  0.12885190322E+03  0.12508985498E+03 0.  0.
          5    1    3    3  502    0  0.16857070474E+02  0.38663529805E+02 -0.45859941338E+02  0.62447065435E+02  0.41800000000E+01 0. -1.
         -5    1    3    3    0  502 -0.45037357122E+02 -0.35057570017E+02  0.33685803075E+02  0.66404837782E+02  0.41800000000E+01 0. -1.
        -11    1    1    2    0    0 -0.12718267158E+02 -0.15008862243E+02  0.42589760976E+02  0.46913835969E+02  0.00000000000E+00 0.  1.
         11    1    1    2    0    0  0.40898553806E+02  0.11402902455E+02 -0.24799114704E+02  0.49170255012E+02  0.00000000000E+00 0. -1.
</event>
<event>
 7    1  0.2856214E-009  0.1613222E+03  0.7561462E-02  0.1187212E+00
          1   -1    0    0  501    0  0.00000000000E+00  0.00000000000E+00  0.32376145503E+03  0.32376145503E+03  0.00000000000E+00 0. -1.
         -1   -1    0    0    0  501 -0.00000000000E+00 -0.00000000000E+00 -0.11710692253E+03  0.11710692253E+03  0.00000000000E+00 0.  1.
         25    2    1    2    0    0  0.14131751966E+03  0.69284285638E+02  0.14888669668E+03  0.25017017197E+03  0.12508762088E+03 0.  0.
          5    1    3    3  502    0  0.77608054353E+02  0.10559609572E+02  0.14315562429E+03  0.16323455706E+03  0.41800000000E+01 0. -1.
         -5    1    3    3    0  502  0.63709465304E+02  0.58724676066E+02  0.57310723929E+01  0.86935614906E+02  0.41800000000E+01 0. -1.
        -11    1    1    2    0    0 -0.87594648157E+02 -0.45567699430E+02 -0.12045584555E+02  0.99470265528E+02  0.00000000000E+00 0.  1.
         11    1    1    2    0    0 -0.53722871500E+02 -0.23716586208E+02  0.69813420371E+02  0.91227940059E+02  0.00000000000E+00 0. -1.
</event>
<event>
 7    1  0.2856214E-009  0.1077896E+03  0.7561462E-02  0.1264719E+00
          2   -1    0    0  501    0  0.00000000000E+00  0.00000000000E+00  0.10289340812E+03  0.10289340812E+03  0.00000000000E+00 0.  1.
         -2   -1    0    0    0  501 -0.00000000000E+00 -0.00000000000E+00 -0.22775079885E+03  0.22775079885E+03  0.00000000000E+00 0. -1.
         25    2    1    2    0    0  0.34800179862E+02 -0.76465110651E+02 -0.14047002906E+03  0.20600457799E+03  0.12509233160E+03 0.  0.
          5    1    3    3  502    0  0.44896992756E+02 -0.63470728962E+02 -0.16131445196E+03  0.17912034559E+03  0.41800000000E+01 0. -1.
         -5    1    3    3    0  502 -0.10096812894E+02 -0.12994381688E+02  0.20844422896E+02  0.26884232404E+02  0.41800000000E+01 0. -1.
        -11    1    1    2    0    0  0.28500820462E+02  0.13782186370E+02  0.16178598207E+02  0.35552671743E+02  0.00000000000E+00 0.  1.
         11    1    1    2    0    0 -0.63301000323E+02  0.62682924281E+02 -0.56595988417E+00  0.89086957233E+02  0.00000000000E+00 0. -1.
</event>
<event>
 7    1  0.2856214E-009  0.1061661E+03  0.7561462E-02  0.1267839E+00
          2   -1    0    0  501    0  0.00000000000E+00  0.00000000000E+00  0.40630351507E+03  0.40630351507E+03  0.00000000000E+00 0. -1.
         -2   -1    0    0    0  501 -0.00000000000E+00 -0.00000000000E+00 -0.11102614363E+03  0.11102614363E+03  0.00000000000E+00 0.  1.
         25    2    1    2    0    0 -0.13728858727E+02 -0.68423525759E+02  0.35815753272E+03  0.38573616005E+03  0.12508119956E+03 0.  0.
          5    1    3    3  502    0  0.39683430177E+02 -0.49268877155E+01  0.39262111779E+02  0.56196393786E+02  0.41800000000E+01 0.  1.
         -5    1    3    3    0  502 -0.53412288903E+02 -0.63496638043E+02  0.31889542094E+03  0.32953976626E+03  0.41800000000E+01 0.  1.
        -11    1    1    2    0    0 -0.21628913433E+02  0.25724977122E+02  0.14334544052E+02  0.36538520734E+02  0.00000000000E+00 0. -1.
         11    1    1    2    0    0  0.35357772160E+02  0.42698548636E+02 -0.77214705338E+02  0.95054977924E+02  0.00000000000E+00 0.  1.
</event>
<event>
 7    1  0.2856214E-009  0.1648513E+03  0.7561462E-02  0.1183326E+00
         -1   -1    0    0    0  501 -0.00000000000E+00  0.00000000000E+00  0.12168197947E+03  0.12168197947E+03  0.00000000000E+00 0.  1.
          1   -1    0    0  501    0  0.00000000000E+00 -0.00000000000E+00 -0.24663680145E+03  0.24663680145E+03  0.00000000000E+00 0. -1.
         25    2    1    2    0    0  0.73027887337E+02  0.11398889107E+03 -0.63801640910E+02  0.19505184845E+03  0.12509210441E+03 0.  0.
          5    1    3    3  502    0  0.37759560234E+02 -0.21887642075E+02 -0.13537739004E+02  0.45886774151E+02  0.41800000000E+01 0.  1.
         -5    1    3    3    0  502  0.35268327104E+02  0.13587653314E+03 -0.50263901906E+02  0.14916507430E+03  0.41800000000E+01 0.  1.
        -11    1    1    2    0    0  0.73814347369E+00 -0.43112555255E+02  0.15088859926E+02  0.45682720697E+02  0.00000000000E+00 0. -1.
         11    1    1    2    0    0 -0.73766030811E+02 -0.70876335811E+02 -0.76242040992E+02  0.12758421177E+03  0.00000000000E+00 0.  1.
</event>
<event>
 7    1  0.2856214E-009  0.1520486E+03  0.7561462E-02  0.1197978E+00
          1   -1    0    0  501    0  0.00000000000E+00  0.00000000000E+00  0.77265871428E+02  0.77265871428E+02  0.00000000000E+00 0. -1.
         -1   -1    0    0    0  501 -0.00000000000E+00 -0.00000000000E+00 -0.33088316797E+03  0.33088316797E+03  0.00000000000E+00 0.  1.
         25    2    1    2    0    0 -0.10395019270E+03 -0.55857935306E+02 -0.10966554640E+03  0.20395101808E+03  0.12507491439E+03 0.  0.
          5    1    3    3  502    0 -0.13128107822E+03 -0.32247300298E+02 -0.80970524698E+02  0.15763346137E+03  0.41800000000E+01 0. -1.
         -5    1    3    3    0  502  0.27330885521E+02 -0.23610635008E+02 -0.28695021704E+02  0.46317556708E+02  0.41800000000E+01 0. -1.
        -11    1    1    2    0    0  0.30743314607E+02  0.50456865904E+02 -0.10649561537E+03  0.12178818827E+03  0.00000000000E+00 0.  1.
         11    1    1    2    0    0  0.73206878089E+02  0.54010694017E+01 -0.37456134766E+02  0.82409833041E+02  0.00000000000E+00 0. -1.
</event>
<event>
 7    1  0.2856214E-009  0.1582058E+03  0.7561462E-02  0.1190737E+00
         -2   -1    0    0    0  501 -0.00000000000E+00  0.00000000000E+00  0.58102832911E+03  0.58102832911E+03  0.00000000000E+00 0.  1.
          2   -1    0    0  501    0  0.00000000000E+00 -0.00000000000E+00 -0.54180615518E+02  0.54180615518E+02  0.00000000000E+00 0. -1.
         25    2    1    2    0    0 -0.11522808870E+03  0.31143226496E+02  0.40891006631E+03  0.44396189619E+03  0.12508920799E+03 0.  0.
          5    1    3    3  502    0 -0.79813536817E+02 -0.41957720319E+02  0.24205820606E+03  0.25834143778E+03  0.41800000000E+01 0. -1.
         -5    1    3    3    0  502 -0.35414551882E+02  0.73100946815E+02  0.16685186025E+03  0.18562045841E+03  0.41800000000E+01 0. -1.
        -11    1    1    2    0    0  0.12469224180E+03 -0.14326511310E+02  0.11752408249E+03  0.17194567182E+03  0.00000000000E+00 0.  1.
         11    1    1    2    0    0 -0.94641531043E+01 -0.16816715186E+02  0.41356479228E+00  0.19301376621E+02  0.00000000000E+00 0. -1.
</event>
<event>
 7    1  0.2856214E-009  0.9851376E+02  0.7561462E-02  0.1283453E+00
         -1   -1    0    0    0  501 -0.00000000000E+00  0.00000000000E+00  0.43887558071E+02  0.43887558071E+02  0.00000000000E+00 0.  1.
          1   -1    0    0  501    0  0.00000000000E+00 -0.00000000000E+00 -0.35872721973E+03  0.35872721973E+03  0.00000000000E+00 0. -1.
         25    2    1    2    0    0 -0.23713132811E+01  0.21042708729E+02 -0.82454462304E+02  0.15131045184E+03  0.12509075011E+03 0.  0.
          5    1    3    3  502    0 -0.45264641351E+02  0.39973848724E+02 -0.50841799254E+01  0.60746338359E+02  0.41800000000E+01 0. -1.
         -5    1    3    3    0  502  0.42893328070E+02 -0.18931139995E+02 -0.77370282378E+02  0.90564113476E+02  0.41800000000E+01 0. -1.
        -11    1    1    2    0    0  0.30235156191E+02 -0.43954179980E+02 -0.17970407405E+03  0.18745583170E+03  0.00000000000E+00 0. -1.
         11    1    1    2    0    0 -0.27863842910E+02  0.22911471251E+02 -0.52681125300E+02  0.63848494261E+02  0.00000000000E+00 0.  1.
</event>
<event>
 7    1  0.2856214E-009  0.2339300E+03  0.7561462E-02  0.1123904E+00
         -2   -1    0    0    0  501 -0.00000000000E+00  0.00000000000E+00  0.54421775317E+02  0.54421775317E+02  0.00000000000E+00 0.  1.
          2   -1    0    0  501    0  0.00000000000E+00 -0.00000000000E+00 -0.11577259935E+04  0.11577259935E+04  0.00000000000E+00 0. -1.
         25    2    1    2    0    0 -0.22221441849E+03 -0.30041356659E+01 -0.46157391723E+03  0.52733917455E+03  0.12509137193E+03 0.  0.
          5    1    3    3  502    0 -0.20048440876E+03  0.31587272381E+02 -0.31197242001E+03  0.37220426808E+03  0.41800000000E+01 0. -1.
         -5    1    3    3    0  502 -0.21730009729E+02 -0.34591408047E+02 -0.14960149722E+03  0.15513490647E+03  0.41800000000E+01 0. -1.
        -11    1    1    2    0    0  0.43330080507E+02  0.11096443587E+02 -0.25160908659E+03  0.25555382875E+03  0.00000000000E+00 0. -1.
         11    1    1    2    0    0  0.17888433798E+03 -0.80923079213E+01 -0.39012121439E+03  0.42925476554E+03  0.00000000000E+00 0.  1.
</event>
<event>
 7    1  0.2856214E-009  0.9842642E+02  0.7561462E-02  0.1283640E+00
          1   -1    0    0  501    0  0.00000000000E+00  0.00000000000E+00  0.12823206161E+03  0.12823206161E+03  0.00000000000E+00 0. -1.
         -1   -1    0    0    0  501 -0.00000000000E+00 -0.00000000000E+00 -0.13566059515E+03  0.13566059515E+03  0.00000000000E+00 0.  1.
         25    2    1    2    0    0 -0.11151564134E+01  0.19336607180E+02  0.73599587529E+02  0.14640845198E+03  0.12507352868E+03 0.  0.
          5    1    3    3  502    0  0.23181253737E+02  0.67690114729E+02  0.48985473943E+02  0.86812275712E+02  0.41800000000E+01 0. -1.
         -5    1    3    3    0  502 -0.24296410150E+02 -0.48353507549E+02  0.24614113585E+02  0.59596176270E+02  0.41800000000E+01 0. -1.
        -11    1    1    2    0    0  0.12147379612E+02  0.23617050529E+02 -0.17134182269E+01  0.26613149178E+02  0.00000000000E+00 0. -1.
         11    1    1    2    0    0 -0.11032223199E+02 -0.42953657709E+02 -0.79314702838E+02  0.90871055599E+02  0.00000000000E+00 0.  1.
</event>
<event>
 7    1  0.2856214E-009  0.1496363E+03  0.7561462E-02  0.1200921E+00
          2   -1    0    0  501    0  0.00000000000E+00  0.00000000000E+00  0.64283795745E+03  0.64283795745E+03  0.00000000000E+00 0. -1.
         -2   -1    0    0    0  501 -0.00000000000E+00 -0.00000000000E+00 -0.52745138105E+02  0.52745138105E+02  0.00000000000E+00 0.  1.
         25    2    1    2    0    0 -0.46018477163E+02  0.12654475514E+03  0.42686873562E+03  0.46475337485E+03  0.12508999435E+03 0.  0.
          5    1    3    3  502    0 -0.43742760958E+02  0.14022937541E+03  0.27157285424E+03  0.30878308636E+03  0.41800000000E+01 0. -1.
         -5    1    3    3    0  502 -0.22757162047E+01 -0.13684620268E+02  0.15529588138E+03  0.15597028848E+03  0.41800000000E+01 0. -1.
        -11    1    1    2    0    0  0.70125561932E+01 -0.62145999005E+02  0.13785842800E+03  0.15138113260E+03  0.00000000000E+00 0. -1.
         11    1    1    2    0    0  0.39005920969E+02 -0.64398756136E+02  0.25365655731E+02  0.79448588113E+02  0.00000000000E+00 0.  1.
</event>
<event>
 7    1  0.2856214E-009  0.1262919E+03  0.7561462E-02  0.1233064E+00
         -2   -1    0    0    0  501 -0.00000000000E+00  0.00000000000E+00  0.17078083155E+03  0.17078083155E+03  0.00000000000E+00 0.  1.
          2   -1    0    0  501    0  0.00000000000E+00 -0.00000000000E+00 -0.11022042968E+03  0.11022042968E+03  0.00000000000E+00 0. -1.
         25    2    1    2    0    0  0.26544379662E+02  0.72637333132E+02  0.70422456954E+02  0.16305405342E+03  0.12508603294E+03 0.  0.
          5    1    3    3  502    0  0.63258106144E+02 -0.16214515763E+01  0.22676255060E+02  0.67349105723E+02  0.41800000000E+01 0. -1.
         -5    1    3    3    0  502 -0.36713726482E+02  0.74258784709E+02  0.47746201894E+02  0.95704947698E+02  0.41800000000E+01 0. -1.
        -11    1    1    2    0    0 -0.15869781477E+02 -0.86939645886E+02  0.12587582859E+02  0.89268131117E+02  0.00000000000E+00 0.  1.
         11    1    1    2    0    0 -0.10674598185E+02  0.14302312754E+02 -0.22449637941E+02  0.28679076698E+02  0.00000000000E+00 0. -1.
</event>
<event>
 7    1  0.2856214E-009  0.9325987E+02  0.7561462E-02  0.1295144E+00
          1   -1    0    0  501    0  0.00000000000E+00  0.00000000000E+00  0.89437480653E+02  0.89437480653E+02  0.00000000000E+00 0. -1.
         -1   -1    0    0    0  501 -0.00000000000E+00 -0.00000000000E+00 -0.23949019631E+03  0.23949019631E+03  0.00000000000E+00 0.  1.
         25    2    1    2    0    0 -0.28069602327E+02  0.74687769152E+01 -0.20702850492E+03  0.24362102843E+03  0.12508684360E+03 0.  0.
          5    1    3    3  502    0 -0.34205322462E+02 -0.52878570885E+02 -0.73366633277E+02  0.96779556839E+02  0.41800000000E+01 0. -1.
         -5    1    3    3    0  502  0.61357201341E+01  0.60347347801E+02 -0.13366187164E+03  0.14684147159E+03  0.41800000000E+01 0. -1.
        -11    1    1    2    0    0 -0.16359200782E+02  0.37385708986E+01  0.21963699824E+02  0.27640630828E+02  0.00000000000E+00 0.  1.
         11    1    1    2    0    0  0.44428803110E+02 -0.11207347814E+02  0.35012089440E+02  0.57666017703E+02  0.00000000000E+00 0. -1.
</event>
<event>
 7    1  0.2856214E-009  0.1252961E+03  0.7561462E-02  0.1234607E+00
         -2   -1    0    0    0  501 -0.00000000000E+00  0.00000000000E+00  0.30813254636E+02  0.30813254636E+02  0.00000000000E+00 0. -1.
          2   -1    0    0  501    0  0.00000000000E+00 -0.00000000000E+00 -0.73124938377E+03  0.73124938377E+03  0.00000000000E+00 0.  1.
         25    2    1    2    0    0 -0.57509085569E+02  0.84364167091E+02 -0.42071181057E+03  0.45063369517E+03  0.12509073530E+03 0.  0.
          5    1    3    3  502    0 -0.69528842894E+02  0.73734946141E+02 -0.16031108255E+03  0.18970560842E+03  0.41800000000E+01 0. -1.
         -5    1    3    3    0  502  0.12019757325E+02  0.10629220950E+02 -0.26040072802E+03  0.26092808675E+03  0.41800000000E+01 0. -1.
        -11    1    1    2    0    0  0.77936815246E+02 -0.49985504329E+02 -0.22774657866E+03  0.24584792434E+03  0.00000000000E+00 0.  1.
         11    1    1    2    0    0 -0.20427729677E+02 -0.34378662762E+02 -0.51977739902E+02  0.65581018888E+02  0.00000000000E+00 0. -1.
</event>
<event>
 7    1  0.3626932E-009  0.1047607E+03  0.7561462E-02  0.1270592E+00
         -2   -1    0    0    0  501 -0.00000000000E+00  0.00000000000E+00  0.24741465022E+02  0.24741465022E+02  0.00000000000E+00 0.  1.
          2   -1    0    0  501    0  0.00000000000E+00 -0.00000000000E+00 -0.63916628365E+03  0.63916628365E+03  0.00000000000E+00 0. -1.
         25    2    1    2    0    0  0.25831619158E+02 -0.57834433328E+02 -0.33701000920E+03  0.36501480742E+03  0.12509184269E+03 0.  0.
          5    1    3    3  502    0 -0.47805494028E+02 -0.40701183699E+02 -0.18042905283E+03  0.19108654353E+03  0.41800000000E+01 0. -1.
         -5    1    3    3    0  502  0.73637113186E+02 -0.17133249629E+02 -0.15658095637E+03  0.17392826389E+03  0.41800000000E+01 0. -1.
        -11    1    1    2    0    0  0.55219116990E+01  0.24502644076E+02 -0.91169610389E+01  0.26720592323E+02  0.00000000000E+00 0.  1.
         11    1    1    2    0    0 -0.31353530857E+02  0.33331789252E+02 -0.26829784839E+03  0.27217234893E+03  0.00000000000E+00 0. -1.
</event>
<event>
 7    1  0.2856214E-009  0.1188138E+03  0.7561462E-02  0.1245067E+00
         -1   -1    0    0    0  501 -0.00000000000E+00  0.00000000000E+00  0.17480988912E+03  0.17480988912E+03  0.00000000000E+00 0.  1.
          1   -1    0    0  501    0  0.00000000000E+00 -0.00000000000E+00 -0.16585187692E+03  0.16585187692E+03  0.00000000000E+00 0. -1.
         25    2    1    2    0    0 -0.80781884190E+02 -0.83987958600E+02  0.64782076586E+02  0.18282309251E+03  0.12509146935E+03 0.  0.
          5    1    3    3  502    0 -0.71217978881E+02 -0.84507972526E+02 -0.64942953816E+01  0.11078468400E+03  0.41800000000E+01 0.  1.
         -5    1    3    3    0  502 -0.95639053093E+01  0.52001392593E+00  0.71276371967E+02  0.72038408506E+02  0.41800000000E+01 0.  1.
        -11    1    1    2    0    0  0.32347539967E+02  0.36082584251E+02  0.23012914842E+02  0.53646159953E+02  0.00000000000E+00 0.  1.
         11    1    1    2    0    0  0.48434344223E+02  0.47905374349E+02 -0.78836979232E+02  0.10419251358E+03  0.00000000000E+00 0. -1.
</event>
<event>
 7    1  0.2856214E-009  0.1067513E+03  0.7561462E-02  0.1266707E+00
         -1   -1    0    0    0  501 -0.00000000000E+00  0.00000000000E+00  0.20104187842E+02  0.20104187842E+02  0.00000000000E+00 0.  1.
          1   -1    0    0  501    0  0.00000000000E+00 -0.00000000000E+00 -0.74463358701E+03  0.74463358701E+03  0.00000000000E+00 0. -1.
         25    2    1    2    0    0 -0.38798445636E+02  0.43914109990E+02 -0.51213637468E+03  0.53043752709E+03  0.12508611209E+03 0.  0.
          5    1    3    3  502    0 -0.72228142616E+02  0.41403311922E+02 -0.20282310156E+03  0.21928479599E+03  0.41800000000E+01 0.  1.
         -5    1    3    3    0  502  0.33429696980E+02  0.25107980682E+01 -0.30931327311E+03  0.31115273110E+03  0.41800000000E+01 0.  1.
        -11    1    1    2    0    0  0.26461306348E+02  0.18790357174E+02 -0.48189789435E+02  0.58099346487E+02  0.00000000000E+00 0.  1.
         11    1    1    2    0    0  0.12337139288E+02 -0.62704467164E+02 -0.16420323506E+03  0.17620090128E+03  0.00000000000E+00 0. -1.
</event>
<event>
 7    1  0.2856214E-009  0.1255640E+03  0.7561462E-02  0.1234190E+00
          2   -1    0    0  501    0  0.00000000000E+00  0.00000000000E+00  0.32802530824E+03  0.32802530824E+03  0.00000000000E+00 0. -1.
         -2   -1    0    0    0  501 -0.00000000000E+00 -0.00000000000E+00 -0.11897290999E+03  0.11897290999E+03  0.00000000000E+00 0.  1.
         25    2    1    2    0    0  0.11881769286E+02 -0.89804538656E+02 -0.45707265135E+02  0.16106648387E+03  0.12508887455E+03 0.  0.
          5    1    3    3  502    0  0.31767331853E+02 -0.11302137417E+03 -0.53741202074E+02  0.12918430087E+03  0.41800000000E+01 0. -1.
         -5    1    3    3    0  502 -0.19885562567E+02  0.23216835514E+02  0.80339369390E+01  0.31882182997E+02  0.41800000000E+01 0. -1.
        -11    1    1    2    0    0 -0.20366846397E+01  0.92554861738E+02  0.25886117242E+03  0.27491754601E+03  0.00000000000E+00 0. -1.
         11    1    1    2    0    0 -0.98450846463E+01 -0.27503230821E+01 -0.41015090376E+01  0.11014188356E+02  0.00000000000E+00 0.  1.
</event>
<event>
 7    1  0.2856214E-009  0.1285767E+03  0.7561462E-02  0.1229583E+00
         -2   -1    0    0    0  501 -0.00000000000E+00  0.00000000000E+00  0.55952269471E+02  0.55952269471E+02  0.00000000000E+00 0. -1.
          2   -1    0    0  501    0  0.00000000000E+00 -0.00000000000E+00 -0.46425870944E+03  0.46425870944E+03  0.00000000000E+00 0.  1.
         25    2    1    2    0    0 -0.10153194657E+03 -0.60341179295E+02 -0.19510181897E+03  0.26011926890E+03  0.12509004835E+03 0.  0.
          5    1    3    3  502    0 -0.35877218068E+02 -0.63015183010E+02 -0.23532903984E+02  0.76350232717E+02  0.41800000000E+01 0. -1.
         -5    1    3    3    0  502 -0.65654728499E+02  0.26740037143E+01 -0.17156891498E+03  0.18376903618E+03  0.41800000000E+01 0. -1.
        -11    1    1    2    0    0  0.74905122672E+02  0.38390060523E+02 -0.20901956926E+03  0.22533032305E+03  0.00000000000E+00 0.  1.
         11    1    1    2    0    0  0.26626823895E+02  0.21951118772E+02 -0.41850517422E+01  0.34761386971E+02  0.00000000000E+00 0. -1.
</event>
<event>
 7    1  0.2856214E-009  0.1359651E+03  0.7561462E-02  0.1218864E+00
         -1   -1    0    0    0  501 -0.00000000000E+00  0.00000000000E+00  0.19085658311E+02  0.19085658311E+02  0.00000000000E+00 0.  1.
          1   -1    0    0  501    0  0.00000000000E+00 -0.00000000000E+00 -0.13596000719E+04  0.13596000719E+04  0.00000000000E+00 0. -1.
         25    2    1    2    0    0  0.10783983598E+03  0.95802441083E+00 -0.92510824317E+03  0.93973581726E+03  0.12509115332E+03 0.  0.
          5    1    3    3  502    0  0.11144641812E+03  0.44330773614E+02 -0.61972862909E+03  0.63124208329E+03  0.41800000000E+01 0. -1.
         -5    1    3    3    0  502 -0.36065821391E+01 -0.43372749203E+02 -0.30537961408E+03  0.30849373398E+03  0.41800000000E+01 0. -1.
        -11    1    1    2    0    0 -0.19224048111E+02  0.31674515703E+01 -0.65113344021E+01  0.20542498653E+02  0.00000000000E+00 0.  1.
         11    1    1    2    0    0 -0.88615787867E+02 -0.41254759811E+01 -0.40889483599E+03  0.41840741426E+03  0.00000000000E+00 0. -1.
</event>
<event>
 7    1  0.2856214E-009  0.9029206E+02  0.7561462E-02  0.1302146E+00
         -2   -1    0    0    0  501 -0.00000000000E+00  0.00000000000E+00  0.10755772764E+02  0.10755772764E+02  0.00000000000E+00 0.  1.
          2   -1    0    0  501    0  0.00000000000E+00 -0.00000000000E+00 -0.12583311069E+04  0.12583311069E+04  0.00000000000E+00 0. -1.
         25    2    1    2    0    0 -0.27069093532E+02 -0.19769721389E+02 -0.87300956304E+03  0.88256304310E+03  0.12509296617E+03 0.  0.
          5    1    3    3  502    0 -0.25629092140E+02  0.28638963563E+02 -0.73898340978E+03  0.73999391411E+03  0.41800000000E+01 0. -1.
         -5    1    3    3    0  502 -0.14400013918E+01 -0.48408684953E+02 -0.13402615326E+03  0.14256912899E+03  0.41800000000E+01 0. -1.
        -11    1    1    2    0    0  0.92335744475E-01 -0.33554895824E+02 -0.17560121417E+03  0.17877842705E+03  0.00000000000E+00 0. -1.
         11    1    1    2    0    0  0.26976757788E+02  0.53324617213E+02 -0.19896455696E+03  0.20774540955E+03  0.00000000000E+00 0.  1.
</event>
<event>
 7    1  0.2856214E-009  0.1134497E+03  0.7561462E-02  0.1254312E+00
         -1   -1    0    0    0  501 -0.00000000000E+00  0.00000000000E+00  0.24069826281E+02  0.24069826281E+02  0.00000000000E+00 0.  1.
          1   -1    0    0  501    0  0.00000000000E+00 -0.00000000000E+00 -0.76225966173E+03  0.76225966173E+03  0.00000000000E+00 0. -1.
         25    2    1    2    0    0  0.46788774911E+02  0.44451187832E+02 -0.56152155278E+03  0.57889477508E+03  0.12509040260E+03 0.  0.
          5    1    3    3  502    0 -0.58342854086E+01 -0.36393386573E+02 -0.25048191771E+03  0.25321370613E+03  0.41800000000E+01 0.  1.
         -5    1    3    3    0  502  0.52623060319E+02  0.80844574405E+02 -0.31103963506E+03  0.32568106894E+03  0.41800000000E+01 0.  1.
        -11    1    1    2    0    0 -0.47149670275E+02  0.16218796378E+01 -0.35800140693E+02  0.59223069611E+02  0.00000000000E+00 0.  1.
         11    1    1    2    0    0  0.36089536397E+00 -0.46073067470E+02 -0.14086814198E+03  0.14821164332E+03  0.00000000000E+00 0. -1.
</event>
<event>
 7    1  0.2856214E-009  0.9023222E+02  0.7561462E-02  0.1302290E+00
         -3   -1    0    0    0  501 -0.00000000000E+00  0.00000000000E+00  0.67937901564E+02  0.67937901564E+02  0.00000000000E+00 0.  1.
          3   -1    0    0  501    0  0.00000000000E+00 -0.00000000000E+00 -0.25440597692E+03  0.25440597692E+03  0.00000000000E+00 0. -1.
         25    2    1    2    0    0  0.21713308336E+02  0.91212498245E+01 -0.19958402676E+03  0.23671536905E+03  0.12508284156E+03 0.  0.
          5    1    3    3  502    0  0.31126135470E+02  0.60308927922E+02 -0.72878361315E+02  0.99673120972E+02  0.41800000000E+01 0. -1.
         -5    1    3    3    0  502 -0.94128271336E+01 -0.51187678097E+02 -0.12670566544E+03  0.13704224808E+03  0.41800000000E+01 0. -1.
        -11    1    1    2    0    0  0.17431902768E+02 -0.11748666943E+02 -0.23802461279E+02  0.31756252487E+02  0.00000000000E+00 0. -1.
         11    1    1    2    0    0 -0.39145211104E+02  0.26274171186E+01  0.36918412682E+02  0.53872256943E+02  0.00000000000E+00 0.  1.
</event>
<event>
 7    1  0.3805460E-009  0.1740750E+03  0.7561462E-02  0.1173664E+00
         -3   -1    0    0    0  501 -0.00000000000E+00  0.00000000000E+00  0.68663099246E+02  0.68663099246E+02  0.00000000000E+00 0.  1.
          3   -1    0    0  501    0  0.00000000000E+00 -0.00000000000E+00 -0.73693568991E+03  0.73693568991E+03  0.00000000000E+00 0. -1.
         25    2    1    2    0    0 -0.13513517096E+03 -0.68954928989E+02 -0.12213190501E+03  0.23147422905E+03  0.12509124603E+03 0.  0.
          5    1    3    3  502    0 -0.60897312846E+02  0.11053641403E+02 -0.10350730513E+03  0.12067269913E+03  0.41800000000E+01 0.  1.
         -5    1    3    3    0  502 -0.74237858110E+02 -0.80008570392E+02 -0.18624599882E+02  0.11080152993E+03  0.41800000000E+01 0.  1.
        -11    1    1    2    0    0  0.77351367266E+02  0.86944152543E+02 -0.37092044103E+03  0.38874733858E+03  0.00000000000E+00 0.  1.
         11    1    1    2    0    0  0.57783803691E+02 -0.17989223554E+02 -0.17522024463E+03  0.18537722153E+03  0.00000000000E+00 0. -1.
</event>
<event>
 7    1  0.2856214E-009  0.1017141E+03  0.7561462E-02  0.1276732E+00
         -3   -1    0    0    0  501 -0.00000000000E+00  0.00000000000E+00  0.19124660505E+02  0.19124660505E+02  0.00000000000E+00 0.  1.
          3   -1    0    0  501    0  0.00000000000E+00 -0.00000000000E+00 -0.80714684798E+03  0.80714684798E+03  0.00000000000E+00 0. -1.
         25    2    1    2    0    0 -0.20633399658E+02  0.27127077965E+02 -0.61193061992E+03  0.62551433240E+03  0.12508989130E+03 0.  0.
          5    1    3    3  502    0  0.48410211972E+02  0.43816981264E+01 -0.35938593397E+03  0.36268232634E+03  0.41800000000E+01 0.  1.
         -5    1    3    3    0  502 -0.69043611631E+02  0.22745379839E+02 -0.25254468595E+03  0.26283200606E+03  0.41800000000E+01 0.  1.
        -11    1    1    2    0    0 -0.14484683495E+02 -0.41444265397E+02 -0.39697785358E+02  0.59189081363E+02  0.00000000000E+00 0.  1.
         11    1    1    2    0    0  0.35118083153E+02  0.14317187432E+02 -0.13639378220E+03  0.14156809472E+03  0.00000000000E+00 0. -1.
</event>
<event>
 7    1  0.2856214E-009  0.1185863E+03  0.7561462E-02  0.1245448E+00
         -1   -1    0    0    0  501 -0.00000000000E+00  0.00000000000E+00  0.29678852947E+03  0.29678852947E+03  0.00000000000E+00 0.  1.
          1   -1    0    0  501    0  0.00000000000E+00 -0.00000000000E+00 -0.53963694142E+02  0.53963694142E+02  0.00000000000E+00 0. -1.
         25    2    1    2    0    0  0.12451862605E+02 -0.47201216424E+02  0.19467120810E+03  0.23648867311E+03  0.12508800714E+03 0.  0.
          5    1    3    3  502    0  0.29363839152E+02 -0.86299154966E+02  0.13869047183E+03  0.16601897053E+03  0.41800000000E+01 0. -1.
         -5    1    3    3    0  502 -0.16911976547E+02  0.39097938542E+02  0.55980736269E+02  0.70469702583E+02  0.41800000000E+01 0. -1.
        -11    1    1    2    0    0  0.14925309313E+02 -0.23195525882E+02  0.79909166579E+01  0.28716755180E+02  0.00000000000E+00 0. -1.
         11    1    1    2    0    0 -0.27377171918E+02  0.70396742306E+02  0.40162710569E+02  0.85546795322E+02  0.00000000000E+00 0.  1.
</event>
<event>
 7    1  0.2856214E-009  0.1852399E+03  0.7561462E-02  0.1162826E+00
         -1   -1    0    0    0  501 -0.00000000000E+00  0.00000000000E+00  0.54820448905E+03  0.54820448905E+03  0.00000000000E+00 0.  1.
          1   -1    0    0  501    0  0.00000000000E+00 -0.00000000000E+00 -0.65868270871E+02  0.65868270871E+02  0.00000000000E+00 0. -1.
         25    2    1    2    0    0 -0.11240819629E+03  0.11065543560E+03  0.20867321769E+03  0.28995105909E+03  0.12508747685E+03 0.  0.
          5    1    3    3  502    0  0.48800180842E+01 -0.20717423138E+02  0.84890087154E+01  0.23292957454E+02  0.41800000000E+01 0. -1.
         -5    1    3    3    0  502 -0.11728821437E+03  0.13137285874E+03  0.20018420897E+03  0.26665810163E+03  0.41800000000E+01 0. -1.
        -11    1    1    2    0    0  0.96059984160E+02 -0.47067011457E+02  0.15191219817E+03  0.18579596357E+03  0.00000000000E+00 0. -1.
         11    1    1    2    0    0  0.16348212126E+02 -0.63588424148E+02  0.12175080231E+03  0.13832573726E+03  0.00000000000E+00 0.  1.
</event>
<event>
 7    1  0.2856214E-009  0.1991655E+03  0.7561462E-02  0.1150445E+00
         -2   -1    0    0    0  501 -0.00000000000E+00  0.00000000000E+00  0.18255552480E+03  0.18255552480E+03  0.00000000000E+00 0.  1.
          2   -1    0    0  501    0  0.00000000000E+00 -0.00000000000E+00 -0.22233960097E+03  0.22233960097E+03  0.00000000000E+00 0. -1.
         25    2    1    2    0    0  0.99833337676E+02 -0.13697989601E+03 -0.28849106561E+02  0.21262525214E+03  0.12508812763E+03 0.  0.
          5    1    3    3  502    0  0.12914691612E+03 -0.10307598936E+03 -0.17585104308E+02  0.16622362594E+03  0.41800000000E+01 0.  1.
         -5    1    3    3    0  502 -0.29313578444E+02 -0.33903906645E+02 -0.11264002253E+02  0.46401626197E+02  0.41800000000E+01 0.  1.
        -11    1    1    2    0    0 -0.11375958462E+03  0.11330403764E+03 -0.23130827766E+02  0.16221616205E+03  0.00000000000E+00 0. -1.
         11    1    1    2    0    0  0.13926246942E+02  0.23675858368E+02  0.12195858163E+02  0.30053711579E+02  0.00000000000E+00 0.  1.
</event>
<event>
 7    1  0.2856214E-009  0.3207461E+03  0.7561462E-02  0.1075306E+00
         -1   -1    0    0    0  501 -0.00000000000E+00  0.00000000000E+00  0.17740118139E+03  0.17740118139E+03  0.00000000000E+00 0.  1.
          1   -1    0    0  501    0  0.00000000000E+00 -0.00000000000E+00 -0.88757972326E+03  0.88757972326E+03  0.00000000000E+00 0. -1.
         25    2    1    2    0    0 -0.85009424323E+02  0.29650308210E+03 -0.65984456047E+03  0.73904266818E+03  0.12509413051E+03 0.  0.
          5    1    3    3  502    0 -0.67998191565E+02  0.30445321880E+03 -0.60128470886E+03  0.67740408177E+03  0.41800000000E+01 0. -1.
         -5    1    3    3    0  502 -0.17011232758E+02 -0.79501366978E+01 -0.58559851614E+02  0.61638586409E+02  0.41800000000E+01 0. -1.
        -11    1    1    2    0    0  0.21842917856E+02 -0.13677851375E+03 -0.66060740590E+02  0.15345845148E+03  0.00000000000E+00 0.  1.
         11    1    1    2    0    0  0.63166506467E+02 -0.15972456835E+03  0.15726759197E+02  0.17247978499E+03  0.00000000000E+00 0. -1.
</event>
<event>
 7    1  0.3576226E-009  0.8998582E+02  0.7561462E-02  0.1302886E+00
          2   -1    0    0  501    0  0.00000000000E+00  0.00000000000E+00  0.52039249830E+03  0.52039249830E+03  0.00000000000E+00 0. -1.
         -2   -1    0    0    0  501 -0.00000000000E+00 -0.00000000000E+00 -0.30106303461E+02  0.30106303461E+02  0.00000000000E+00 0.  1.
         25    2    1    2    0    0 -0.10314044635E+02  0.21377713334E+02  0.14594977938E+03  0.19368181878E+03  0.12509165712E+03 0.  0.
          5    1    3    3  502    0  0.38467558099E+02 -0.92596609691E+01  0.34659430674E+01  0.39937194552E+02  0.41800000000E+01 0. -1.
         -5    1    3    3    0  502 -0.48781602734E+02  0.30637374303E+02  0.14248383631E+03  0.15374462423E+03  0.41800000000E+01 0. -1.
        -11    1    1    2    0    0 -0.29833118355E+02  0.10010791407E+02  0.58053171864E+02  0.66033337480E+02  0.00000000000E+00 0.  1.
         11    1    1    2    0    0  0.40147162990E+02 -0.31388504741E+02  0.28628324360E+03  0.29078364550E+03  0.00000000000E+00 0. -1.
</event>
<event>
 7    1  0.2856214E-009  0.1601897E+03  0.7561462E-02  0.1188483E+00
         -1   -1    0    0    0  501 -0.00000000000E+00  0.00000000000E+00  0.35753319949E+02  0.35753319949E+02  0.00000000000E+00 0.  1.
          1   -1    0    0  501    0  0.00000000000E+00 -0.00000000000E+00 -0.94437776476E+03  0.94437776476E+03  0.00000000000E+00 0. -1.
         25    2    1    2    0    0  0.42765346857E+02  0.14175919820E+03 -0.50420299740E+03  0.54018003692E+03  0.12509702051E+03 0.  0.
          5    1    3    3  502    0  0.61122980851E+02  0.88280806314E+02 -0.44663947539E+03  0.45938416704E+03  0.41800000000E+01 0.  1.
         -5    1    3    3    0  502 -0.18357633993E+02  0.53478391883E+02 -0.57563522008E+02  0.80795869883E+02  0.41800000000E+01 0.  1.
        -11    1    1    2    0    0 -0.26854649005E+02 -0.20131140467E+02 -0.26932858900E+02  0.43032707076E+02  0.00000000000E+00 0.  1.
         11    1    1    2    0    0 -0.15910697852E+02 -0.12162805773E+03 -0.37748858851E+03  0.39691834071E+03  0.00000000000E+00 0. -1.
</event>
<event>
 7    1  0.2856214E-009  0.1311267E+03  0.7561462E-02  0.1225793E+00
         -1   -1    0    0    0  501 -0.00000000000E+00  0.00000000000E+00  0.17643232533E+03  0.17643232533E+03  0.00000000000E+00 0.  1.
          1   -1    0    0  501    0  0.00000000000E+00 -0.00000000000E+00 -0.17521185818E+03  0.17521185818E+03  0.00000000000E+00 0. -1.
         25    2    1    2    0    0 -0.83789433760E+02  0.52609006671E+02  0.96529165434E+02  0.18642519215E+03  0.12509234866E+03 0.  0.
          5    1    3    3  502    0 -0.66610985865E+02 -0.10295280229E+02 -0.27334619395E+01  0.67586688386E+02  0.41800000000E+01 0. -1.
         -5    1    3    3    0  502 -0.17178447895E+02  0.62904286901E+02  0.99262627373E+02  0.11883850376E+03  0.41800000000E+01 0. -1.
        -11    1    1    2    0    0  0.58256328122E+02  0.12378603577E+02 -0.67613596289E+02  0.90103429434E+02  0.00000000000E+00 0.  1.
         11    1    1    2    0    0  0.25533105638E+02 -0.64987610249E+02 -0.27695101990E+02  0.75115561927E+02  0.00000000000E+00 0. -1.
</event>
<event>
 7    1  0.2856214E-009  0.1679099E+03  0.7561462E-02  0.1180045E+00
          4   -1    0    0  501    0  0.00000000000E+00  0.00000000000E+00  0.66912579236E+03  0.66912579236E+03  0.00000000000E+00 0. -1.
         -4   -1    0    0    0  501 -0.00000000000E+00 -0.00000000000E+00 -0.45829158281E+02  0.45829158281E+02  0.00000000000E+00 0.  1.
         25    2    1    2    0    0 -0.72405789804E+01  0.13704304366E+03  0.29189690286E+03  0.34595478753E+03  0.12509073233E+03 0.  0.
          5    1    3    3  502    0  0.21094270047E+02  0.14449385226E+03  0.18894044040E+03  0.23882923605E+03  0.41800000000E+01 0.  1.
         -5    1    3    3    0  502 -0.28334849028E+02 -0.74508086056E+01  0.10295646246E+03  0.10712555148E+03  0.41800000000E+01 0.  1.
        -11    1    1    2    0    0  0.36900177782E+02 -0.25837111184E+02  0.68170350049E+02  0.81709094111E+02  0.00000000000E+00 0.  1.
         11    1    1    2    0    0 -0.29659598802E+02 -0.11120593247E+03  0.26322938117E+03  0.28729106900E+03  0.00000000000E+00 0. -1.
</event>
<event>
 7    1  0.2856214E-009  0.8631761E+02  0.7561462E-02  0.1312022E+00
         -2   -1    0    0    0  501 -0.00000000000E+00  0.00000000000E+00  0.16136082331E+03  0.16136082331E+03  0.00000000000E+00 0.  1.
          2   -1    0    0  501    0  0.00000000000E+00 -0.00000000000E+00 -0.80138753626E+02  0.80138753626E+02  0.00000000000E+00 0. -1.
         25    2    1    2    0    0  0.76912996557E+01 -0.28318143792E+02  0.56672997706E+02  0.14043256385E+03  0.12509357682E+03 0.  0.
          5    1    3    3  502    0 -0.23157430799E+02  0.18030437015E+02 -0.26829819478E+02  0.39983432486E+02  0.41800000000E+01 0. -1.
         -5    1    3    3    0  502  0.30848730454E+02 -0.46348580807E+02  0.83502817185E+02  0.10044913136E+03  0.41800000000E+01 0. -1.
        -11    1    1    2    0    0 -0.94616818085E+01 -0.28644669297E+02 -0.12968235428E+02  0.32836193931E+02  0.00000000000E+00 0. -1.
         11    1    1    2    0    0  0.17703821528E+01  0.56962813089E+02  0.37517307407E+02  0.68230819159E+02  0.00000000000E+00 0.  1.
</event>
<event>
 7    1  0.2856214E-009  0.1162720E+03  0.7561462E-02  0.1249377E+00
         -4   -1    0    0    0  501 -0.00000000000E+00  0.00000000000E+00  0.16890504576E+03  0.16890504576E+03  0.00000000000E+00 0.  1.
          4   -1    0    0  501    0  0.00000000000E+00 -0.00000000000E+00 -0.10709215013E+03  0.10709215013E+03  0.00000000000E+00 0. -1.
         25    2    1    2    0    0 -0.31258463833E+02 -0.53690279776E+02  0.83356088628E+02  0.16265199011E+03  0.12509074574E+03 0.  0.
          5    1    3    3  502    0 -0.21429535431E+01 -0.82313545300E+02  0.88888515839E+02  0.12123841239E+03  0.41800000000E+01 0. -1.
         -5    1    3    3    0  502 -0.29115510290E+02  0.28623265524E+02 -0.55324272112E+01  0.41413577719E+02  0.41800000000E+01 0. -1.
        -11    1    1    2    0    0 -0.31786499205E+02  0.15765910196E+02 -0.17752864097E+02  0.39675050594E+02  0.00000000000E+00 0. -1.
         11    1    1    2    0    0  0.63044963038E+02  0.37924369580E+02 -0.37903289036E+01  0.73670155190E+02  0.00000000000E+00 0.  1.
</event>
<event>
 7    1  0.2856214E-009  0.9095783E+02  0.7561462E-02  0.1300549E+00
          3   -1    0    0  501    0  0.00000000000E+00  0.00000000000E+00  0.35308884489E+03  0.35308884489E+03  0.00000000000E+00 0. -1.
         -3   -1    0    0    0  501 -0.00000000000E+00 -0.00000000000E+00 -0.38582682391E+02  0.38582682391E+02  0.00000000000E+00 0.  1.
         25    2    1    2    0    0 -0.21443830661E+02  0.18432571923E+02  0.22813853078E+03  0.26171322556E+03  0.12508807149E+03 0.  0.
          5    1    3    3  502    0 -0.42011395219E+02  0.42605813416E+02  0.42936363786E+02  0.73764601268E+02  0.41800000000E+01 0.  1.
         -5    1    3    3    0  502  0.20567564558E+02 -0.24173241493E+02  0.18520216699E+03  0.18794862429E+03  0.41800000000E+01 0.  1.
        -11    1    1    2    0    0  0.42121987733E+02  0.19732511596E+02  0.68981281750E+02  0.83198864754E+02  0.00000000000E+00 0.  1.
         11    1    1    2    0    0 -0.20678157072E+02 -0.38165083519E+02  0.17386349972E+02  0.46759436965E+02  0.00000000000E+00 0. -1.
</event>
<event>
 7    1  0.2856214E-009  0.2275039E+03  0.7561462E-02  0.1128409E+00
          1   -1    0    0  501    0  0.00000000000E+00  0.00000000000E+00  0.22807291406E+03  0.22807291406E+03  0.00000000000E+00 0. -1.
         -1   -1    0    0    0  501 -0.00000000000E+00 -0.00000000000E+00 -0.29406056289E+03  0.29406056289E+03  0.00000000000E+00 0.  1.
         25    2    1    2    0    0  0.10851735263E+03 -0.17658125741E+03 -0.14513035920E+03  0.28225410904E+03  0.12509038578E+03 0.  0.
          5    1    3    3  502    0  0.12868897153E+03 -0.17962751718E+03 -0.13612816629E+03  0.25956742165E+03  0.41800000000E+01 0.  1.
         -5    1    3    3    0  502 -0.20171618897E+02  0.30462597714E+01 -0.90021929040E+01  0.22686687387E+02  0.41800000000E+01 0.  1.
        -11    1    1    2    0    0 -0.75252172345E+02  0.74827635872E+02 -0.10387578009E+01  0.10612795838E+03  0.00000000000E+00 0.  1.
         11    1    1    2    0    0 -0.33265180288E+02  0.10175362154E+03  0.80181468169E+02  0.13375140954E+03  0.00000000000E+00 0. -1.
</event>
<event>
 7    1  0.2856214E-009  0.9895756E+02  0.7561462E-02  0.1282503E+00
          1   -1    0    0  501    0  0.00000000000E+00  0.00000000000E+00  0.12505050129E+03  0.12505050129E+03  0.00000000000E+00 0. -1.
         -1   -1    0    0    0  501 -0.00000000000E+00 -0.00000000000E+00 -0.11616544948E+03  0.11616544948E+03  0.00000000000E+00 0.  1.
         25    2    1    2    0    0  0.13464845752E+02 -0.91320347991E+01 -0.50729445575E+02  0.13595928104E+03  0.12508698303E+03 0.  0.
          5    1    3    3  502    0  0.56412130027E+02 -0.33046581486E+02 -0.56210034409E+02  0.86321754676E+02  0.41800000000E+01 0. -1.
         -5    1    3    3    0  502 -0.42947284275E+02  0.23914546687E+02  0.54805888333E+01  0.49637526367E+02  0.41800000000E+01 0. -1.
        -11    1    1    2    0    0  0.23441908522E+02 -0.23944368330E+02  0.96245871757E+01  0.34863857047E+02  0.00000000000E+00 0.  1.
         11    1    1    2    0    0 -0.36906754274E+02  0.33076403129E+02  0.49989910201E+02  0.70392812679E+02  0.00000000000E+00 0. -1.
</event>
<event>
 7    1  0.2856214E-009  0.1212302E+03  0.7561462E-02  0.1241081E+00
          1   -1    0    0  501    0  0.00000000000E+00  0.00000000000E+00  0.25863059210E+03  0.25863059210E+03  0.00000000000E+00 0. -1.
         -1   -1    0    0    0  501 -0.00000000000E+00 -0.00000000000E+00 -0.74420483383E+02  0.74420483383E+02  0.00000000000E+00 0.  1.
         25    2    1    2    0    0  0.40479115601E+02 -0.76147621680E+02  0.11545678997E+03  0.19082733600E+03  0.12509109771E+03 0.  0.
          5    1    3    3  502    0  0.16829831274E+02 -0.10878942227E+03  0.94822369277E+02  0.14535176550E+03  0.41800000000E+01 0.  1.
         -5    1    3    3    0  502  0.23649284326E+02  0.32641800590E+02  0.20634420690E+02  0.45475570498E+02  0.41800000000E+01 0.  1.
        -11    1    1    2    0    0 -0.44452929732E+02  0.57356241609E+02  0.18194805014E+01  0.72588648717E+02  0.00000000000E+00 0.  1.
         11    1    1    2    0    0  0.39738141318E+01  0.18791380071E+02  0.66933838247E+02  0.69635090768E+02  0.00000000000E+00 0. -1.
</event>
<event>
 7    1  0.2856214E-009  0.1216143E+03  0.7561462E-02  0.1240457E+00
         -2   -1    0    0    0  501 -0.00000000000E+00  0.00000000000E+00  0.49780806043E+03  0.49780806043E+03  0.00000000000E+00 0.  1.
          2   -1    0    0  501    0  0.00000000000E+00 -0.00000000000E+00 -0.45194156944E+02  0.45194156944E+02  0.00000000000E+00 0. -1.
         25    2    1    2    0    0 -0.62452320467E+02 -0.43968146573E+02  0.12136706325E+03  0.19029463780E+03  0.12509434395E+03 0.  0.
          5    1    3    3  502    0 -0.57446682901E+02  0.31150597513E+02  0.82915989891E+02  0.10565516969E+03  0.41800000000E+01 0.  1.
         -5    1    3    3    0  502 -0.50056375661E+01 -0.75118744085E+02  0.38451073362E+02  0.84639468117E+02  0.41800000000E+01 0.  1.
        -11    1    1    2    0    0  0.53558426223E+02 -0.38594865085E+01  0.77160346516E+02  0.94005955822E+02  0.00000000000E+00 0. -1.
         11    1    1    2    0    0  0.88938942444E+01  0.47827633081E+02  0.25408649372E+03  0.25870162375E+03  0.00000000000E+00 0.  1.
</event>
<event>
 7    1  0.2856214E-009  0.1245690E+03  0.7561462E-02  0.1235744E+00
          1   -1    0    0  501    0  0.00000000000E+00  0.00000000000E+00  0.15324201828E+04  0.15324201828E+04  0.00000000000E+00 0. -1.
         -1   -1    0    0    0  501 -0.00000000000E+00 -0.00000000000E+00 -0.13481949248E+02  0.13481949248E+02  0.00000000000E+00 0.  1.
         25    2    1    2    0    0 -0.66707168847E+02  0.20021265213E+02  0.11685655460E+04  0.11773038728E+04  0.12509306991E+03 0.  0.
          5    1    3    3  502    0 -0.38515575379E+02 -0.47618511456E+02  0.34031131284E+03  0.34580375103E+03  0.41800000000E+01 0.  1.
         -5    1    3    3    0  502 -0.28191593468E+02  0.67639776669E+02  0.82825423318E+03  0.83150012178E+03  0.41800000000E+01 0.  1.
        -11    1    1    2    0    0  0.86745524986E+02 -0.10419919629E+01  0.27282948804E+03  0.28628971584E+03  0.00000000000E+00 0. -1.
         11    1    1    2    0    0 -0.20038356139E+02 -0.18979273250E+02  0.77543199535E+02  0.82308543444E+02  0.00000000000E+00 0.  1.
</event>
<event>
 7    1  0.2856214E-009  0.1211427E+03  0.7561462E-02  0.1241224E+00
          2   -1    0    0  501    0  0.00000000000E+00  0.00000000000E+00  0.11111989650E+03  0.11111989650E+03  0.00000000000E+00 0.  1.
         -2   -1    0    0    0  501 -0.00000000000E+00 -0.00000000000E+00 -0.20083643001E+03  0.20083643001E+03  0.00000000000E+00 0. -1.
         25    2    1    2    0    0  0.26624823658E+01  0.99242243415E+02 -0.79950887993E+02  0.17859073040E+03  0.12508554194E+03 0.  0.
          5    1    3    3  502    0 -0.11538648612E+02 -0.71184678548E+00  0.28090135102E+02  0.30662276949E+02  0.41800000000E+01 0.  1.
         -5    1    3    3    0  502  0.14201130978E+02  0.99954090201E+02 -0.10804102309E+03  0.14792845345E+03  0.41800000000E+01 0.  1.
        -11    1    1    2    0    0  0.12734836670E+02 -0.10963459981E+03 -0.19981010302E+02  0.11216578049E+03  0.00000000000E+00 0.  1.
         11    1    1    2    0    0 -0.15397319035E+02  0.10392356392E+02  0.10215364784E+02  0.21199815625E+02  0.00000000000E+00 0. -1.
</event>
<event>
 7    1  0.2856214E-009  0.1004508E+03  0.7561462E-02  0.1279351E+00
         -4   -1    0    0    0  501 -0.00000000000E+00  0.00000000000E+00  0.14965954889E+03  0.14965954889E+03  0.00000000000E+00 0.  1.
          4   -1    0    0  501    0  0.00000000000E+00 -0.00000000000E+00 -0.91704359444E+02  0.91704359444E+02  0.00000000000E+00 0. -1.
         25    2    1    2    0    0 -0.34830334834E+02 -0.30431553069E+02  0.66396642786E+02  0.14898861612E+03  0.12509940812E+03 0.  0.
          5    1    3    3  502    0  0.34474893273E+01  0.46459068671E+02  0.30274969229E+02  0.55716931056E+02  0.41800000000E+01 0.  1.
         -5    1    3    3    0  502 -0.38277824161E+02 -0.76890621740E+02  0.36121673557E+02  0.93271685064E+02  0.41800000000E+01 0.  1.
        -11    1    1    2    0    0  0.59171460523E+01 -0.13957118896E+02 -0.31223787050E+02  0.34709345471E+02  0.00000000000E+00 0. -1.
         11    1    1    2    0    0  0.28913188782E+02  0.44388671964E+02  0.22782333706E+02  0.57665946740E+02  0.00000000000E+00 0.  1.
</event>
<event>
 7    1  0.2856214E-009  0.1667318E+03  0.7561462E-02  0.1181300E+00
         -1   -1    0    0    0  501 -0.00000000000E+00  0.00000000000E+00  0.58418230864E+03  0.58418230864E+03  0.00000000000E+00 0.  1.
          1   -1    0    0  501    0  0.00000000000E+00 -0.00000000000E+00 -0.91104736420E+02  0.91104736420E+02  0.00000000000E+00 0. -1.
         25    2    1    2    0    0 -0.37827363188E+01 -0.15907749294E+03  0.70104569758E+02  0.21420418266E+03  0.12509525696E+03 0.  0.
          5    1    3    3  502    0 -0.13514275353E+02 -0.13308831376E+01  0.53358723353E+02  0.55218046381E+02  0.41800000000E+01 0.  1.
         -5    1    3    3    0  502  0.97315390341E+01 -0.15774660980E+03  0.16745846405E+02  0.15898613628E+03  0.41800000000E+01 0.  1.
        -11    1    1    2    0    0 -0.10686944020E+02  0.85610392178E+02  0.33316491369E+03  0.34415433999E+03  0.00000000000E+00 0.  1.
         11    1    1    2    0    0  0.14469680338E+02  0.73467100764E+02  0.89808088769E+02  0.11692852241E+03  0.00000000000E+00 0. -1.
</event>
<event>
 7    1  0.2856214E-009  0.9238764E+02  0.7561462E-02  0.1297171E+00
          1   -1    0    0  501    0  0.00000000000E+00  0.00000000000E+00  0.19137469948E+03  0.19137469948E+03  0.00000000000E+00 0. -1.
         -1   -1    0    0    0  501 -0.00000000000E+00 -0.00000000000E+00 -0.61410168136E+02  0.61410168136E+02  0.00000000000E+00 0.  1.
         25    2    1    2    0    0 -0.57513708178E+01  0.39145361803E+01  0.77287739276E+02  0.14720591572E+03  0.12509110728E+03 0.  0.
          5    1    3    3  502    0 -0.18782851982E+02  0.49879594636E+02  0.83186937267E+02  0.98885329657E+02  0.41800000000E+01 0.  1.
         -5    1    3    3    0  502  0.13031481164E+02 -0.45965058455E+02 -0.58991979912E+01  0.48320586059E+02  0.41800000000E+01 0.  1.
        -11    1    1    2    0    0  0.34008651186E+02  0.25544159360E+02  0.50182315794E+01  0.42828437761E+02  0.00000000000E+00 0.  1.
         11    1    1    2    0    0 -0.28257280368E+02 -0.29458695540E+02  0.47658560486E+02  0.62750514136E+02  0.00000000000E+00 0. -1.
</event>
<event>
 7    1  0.2856214E-009  0.1010947E+03  0.7561462E-02  0.1278011E+00
         -2   -1    0    0    0  501 -0.00000000000E+00  0.00000000000E+00  0.51300588983E+02  0.51300588983E+02  0.00000000000E+00 0.  1.
          2   -1    0    0  501    0  0.00000000000E+00 -0.00000000000E+00 -0.33984265559E+03  0.33984265559E+03  0.00000000000E+00 0. -1.
         25    2    1    2    0    0 -0.41799030608E+02  0.61954524134E+02 -0.14870139356E+03  0.20819502787E+03  0.12509014015E+03 0.  0.
          5    1    3    3  502    0 -0.10069582700E+02  0.72557522196E+02 -0.15715312379E+03  0.17343750241E+03  0.41800000000E+01 0. -1.
         -5    1    3    3    0  502 -0.31729447909E+02 -0.10602998061E+02  0.84517302326E+01  0.34757525464E+02  0.41800000000E+01 0. -1.
        -11    1    1    2    0    0  0.50102028803E+02 -0.22743636867E+02 -0.23380473649E+02  0.59784051855E+02  0.00000000000E+00 0.  1.
         11    1    1    2    0    0 -0.83029981944E+01 -0.39210887267E+02 -0.11646019940E+03  0.12316416485E+03  0.00000000000E+00 0. -1.
</event>
<event>
 7    1  0.2856214E-009  0.2069596E+03  0.7561462E-02  0.1143997E+00
          2   -1    0    0  501    0  0.00000000000E+00  0.00000000000E+00  0.36064855736E+03  0.36064855736E+03  0.00000000000E+00 0. -1.
         -2   -1    0    0    0  501 -0.00000000000E+00 -0.00000000000E+00 -0.13307741571E+03  0.13307741571E+03  0.00000000000E+00 0.  1.
         25    2    1    2    0    0  0.17698428147E+03 -0.68011892045E+02  0.14465793099E+03  0.26930534812E+03  0.12510155947E+03 0.  0.
          5    1    3    3  502    0 -0.88560957159E+01  0.13263005138E+02 -0.49678236563E+01  0.17218867806E+02  0.41800000000E+01 0. -1.
         -5    1    3    3    0  502  0.18584037718E+03 -0.81274897183E+02  0.14962575465E+03  0.25208648031E+03  0.41800000000E+01 0. -1.
        -11    1    1    2    0    0 -0.46518315951E+02 -0.18605377469E+01  0.57945428855E+02  0.74330935988E+02  0.00000000000E+00 0. -1.
         11    1    1    2    0    0 -0.13046596551E+03  0.69872429792E+02  0.24967781802E+02  0.15008968896E+03  0.00000000000E+00 0.  1.
</event>
<event>
 7    1  0.2856214E-009  0.1869553E+03  0.7561462E-02  0.1161236E+00
         -3   -1    0    0    0  501 -0.00000000000E+00  0.00000000000E+00  0.70514600418E+03  0.70514600418E+03  0.00000000000E+00 0.  1.
          3   -1    0    0  501    0  0.00000000000E+00 -0.00000000000E+00 -0.68019223670E+02  0.68019223670E+02  0.00000000000E+00 0. -1.
         25    2    1    2    0    0  0.14983416253E+03 -0.65541924321E+02  0.17004987272E+03  0.26703396244E+03  0.12507660765E+03 0.  0.
          5    1    3    3  502    0  0.11317587442E+03  0.12249338219E+02  0.64799498355E+02  0.13105446282E+03  0.41800000000E+01 0. -1.
         -5    1    3    3    0  502  0.36658288113E+02 -0.77791262541E+02  0.10525037436E+03  0.13597949962E+03  0.41800000000E+01 0. -1.
        -11    1    1    2    0    0 -0.91161854224E+02  0.76629119104E+01  0.35750203032E+03  0.36902155163E+03  0.00000000000E+00 0.  1.
         11    1    1    2    0    0 -0.58672308305E+02  0.57879012411E+02  0.10957487747E+03  0.13710971378E+03  0.00000000000E+00 0. -1.
</event>
<event>
 7    1  0.2856214E-009  0.1349743E+03  0.7561462E-02  0.1220256E+00
         -2   -1    0    0    0  501 -0.00000000000E+00  0.00000000000E+00  0.12135956804E+04  0.12135956804E+04  0.00000000000E+00 0.  1.
          2   -1    0    0  501    0  0.00000000000E+00 -0.00000000000E+00 -0.20220201056E+02  0.20220201056E+02  0.00000000000E+00 0. -1.
         25    2    1    2    0    0  0.19991036075E+02  0.90376933077E+02  0.84746340327E+03  0.86162964625E+03  0.12507516087E+03 0.  0.
          5    1    3    3  502    0 -0.52576737390E+02  0.27561176247E+02  0.31732312343E+03  0.32285502755E+03  0.41800000000E+01 0. -1.
         -5    1    3    3    0  502  0.72567773465E+02  0.62815756830E+02  0.53014027984E+03  0.53877461870E+03  0.41800000000E+01 0. -1.
        -11    1    1    2    0    0  0.25038381443E+02 -0.33621897328E+02  0.40464619328E+02  0.58264379706E+02  0.00000000000E+00 0. -1.
         11    1    1    2    0    0 -0.45029417518E+02 -0.56755035749E+02  0.30544745672E+03  0.31392185547E+03  0.00000000000E+00 0.  1.
</event>
<event>
 7    1  0.2856214E-009  0.9422693E+02  0.7561462E-02  0.1292927E+00
         -2   -1    0    0    0  501 -0.00000000000E+00  0.00000000000E+00  0.15888838113E+03  0.15888838113E+03  0.00000000000E+00 0.  1.
          2   -1    0    0  501    0  0.00000000000E+00 -0.00000000000E+00 -0.20897942286E+03  0.20897942286E+03  0.00000000000E+00 0. -1.
         25    2    1    2    0    0  0.81528566767E+02 -0.13301693285E+02 -0.14827007607E+03  0.21084322729E+03  0.12508800420E+03 0.  0.
          5    1    3    3  502    0 -0.69365514726E+01  0.11285321062E+02 -0.11066695757E+03  0.11153529538E+03  0.41800000000E+01 0.  1.
         -5    1    3    3    0  502  0.88465118239E+02 -0.24587014346E+02 -0.37603118498E+02  0.99307931911E+02  0.41800000000E+01 0.  1.
        -11    1    1    2    0    0 -0.56077506425E+02  0.10403955198E+02  0.11360832537E+03  0.12712112572E+03  0.00000000000E+00 0.  1.
         11    1    1    2    0    0 -0.25451060342E+02  0.28977380865E+01 -0.15429291039E+02  0.29903450980E+02  0.00000000000E+00 0. -1.
</event>
<event>
 7    1  0.2856214E-009  0.9128400E+02  0.7561462E-02  0.1299772E+00
         -4   -1    0    0    0  501 -0.00000000000E+00  0.00000000000E+00  0.38874356567E+03  0.38874356567E+03  0.00000000000E+00 0.  1.
          4   -1    0    0  501    0  0.00000000000E+00 -0.00000000000E+00 -0.62503506248E+02  0.62503506248E+02  0.00000000000E+00 0. -1.
         25    2    1    2    0    0 -0.91069753353E+02 -0.14965960091E+01  0.27143797539E+03  0.31244617224E+03  0.12509235105E+03 0.  0.
          5    1    3    3  502    0 -0.55959017108E+02 -0.98599836199E+00  0.27134020111E+03  0.27708367135E+03  0.41800000000E+01 0.  1.
         -5    1    3    3    0  502 -0.35110736244E+02 -0.51059764708E+00  0.97774276131E-01  0.35362500893E+02  0.41800000000E+01 0.  1.
        -11    1    1    2    0    0  0.13299703905E+02  0.22565790921E+00  0.59413107540E+02  0.60883909147E+02  0.00000000000E+00 0.  1.
         11    1    1    2    0    0  0.77770049447E+02  0.12709380999E+01 -0.46110235107E+01  0.77916990525E+02  0.00000000000E+00 0. -1.
</event>
<event>
 7    1  0.2856214E-009  0.1058240E+03  0.7561462E-02  0.1268505E+00
         -1   -1    0    0    0  501 -0.00000000000E+00  0.00000000000E+00  0.57259700648E+02  0.57259700648E+02  0.00000000000E+00 0.  1.
          1   -1    0    0  501    0  0.00000000000E+00 -0.00000000000E+00 -0.22208105476E+03  0.22208105476E+03  0.00000000000E+00 0. -1.
         25    2    1    2    0    0  0.23203220862E+02  0.25008188169E+02 -0.80408294179E+02  0.15256755388E+03  0.12509023059E+03 0.  0.
          5    1    3    3  502    0 -0.24041843712E+02 -0.37205355045E+02 -0.65386573203E+01  0.44971937168E+02  0.41800000000E+01 0.  1.
         -5    1    3    3    0  502  0.47245064573E+02  0.62213543214E+02 -0.73869636858E+02  0.10759561671E+03  0.41800000000E+01 0.  1.
        -11    1    1    2    0    0 -0.41750579756E+02  0.15369035507E+02 -0.63827886055E+02  0.77803066782E+02  0.00000000000E+00 0.  1.
         11    1    1    2    0    0  0.18547358894E+02 -0.40377223676E+02 -0.20585173881E+02  0.48970134750E+02  0.00000000000E+00 0. -1.
</event>
<event>
 7    1  0.2856214E-009  0.3769233E+03  0.7561462E-02  0.1052077E+00
          2   -1    0    0  501    0  0.00000000000E+00  0.00000000000E+00  0.11539704181E+04  0.11539704181E+04  0.00000000000E+00 0. -1.
         -2   -1    0    0    0  501 -0.00000000000E+00 -0.00000000000E+00 -0.13911464850E+03  0.13911464850E+03  0.00000000000E+00 0.  1.
         25    2    1    2    0    0  0.30367214500E+03 -0.20829115404E+03  0.67725323835E+03  0.78097434570E+03  0.12508798219E+03 0.  0.
          5    1    3    3  502    0  0.14139392392E+02 -0.78129121162E+01 -0.10169895719E+01  0.16717376611E+02  0.41800000000E+01 0. -1.
         -5    1    3    3    0  502  0.28953275261E+03 -0.20047824192E+03  0.67827022792E+03  0.76425696909E+03  0.41800000000E+01 0. -1.
        -11    1    1    2    0    0 -0.21004149207E+03  0.76997163166E+02  0.19029093984E+03  0.29369479620E+03  0.00000000000E+00 0.  1.
         11    1    1    2    0    0 -0.93630652926E+02  0.13129399087E+03  0.14731159141E+03  0.21841592472E+03  0.00000000000E+00 0. -1.
</event>
<event>
 7    1  0.2856214E-009  0.9409183E+02  0.7561462E-02  0.1293235E+00
          1   -1    0    0  501    0  0.00000000000E+00  0.00000000000E+00  0.28154811336E+03  0.28154811336E+03  0.00000000000E+00 0. -1.
         -1   -1    0    0    0  501 -0.00000000000E+00 -0.00000000000E+00 -0.46580828394E+02  0.46580828394E+02  0.00000000000E+00 0.  1.
         25    2    1    2    0    0 -0.24912232356E+02  0.26755078487E+01  0.17968746700E+03  0.22035860063E+03  0.12507017795E+03 0.  0.
          5    1    3    3  502    0  0.36022277923E+02 -0.31233616173E+02  0.33753706080E+02  0.58565590240E+02  0.41800000000E+01 0.  1.
         -5    1    3    3    0  502 -0.60934510279E+02  0.33909124022E+02  0.14593376092E+03  0.16179301039E+03  0.41800000000E+01 0.  1.
        -11    1    1    2    0    0 -0.22740397113E+02 -0.16536223644E+01  0.55613144857E+02  0.60105590494E+02  0.00000000000E+00 0. -1.
         11    1    1    2    0    0  0.47652629469E+02 -0.10218854844E+01 -0.33332689754E+00  0.47664750624E+02  0.00000000000E+00 0.  1.
</event>
<event>
 7    1  0.4094457E-009  0.1021302E+03  0.7561462E-02  0.1275879E+00
          2   -1    0    0  501    0  0.00000000000E+00  0.00000000000E+00  0.53059283781E+03  0.53059283781E+03  0.00000000000E+00 0. -1.
         -2   -1    0    0    0  501 -0.00000000000E+00 -0.00000000000E+00 -0.27819510373E+02  0.27819510373E+02  0.00000000000E+00 0.  1.
         25    2    1    2    0    0 -0.97783758236E+01 -0.29311209885E+02  0.38595841300E+03  0.40689668020E+03  0.12508496366E+03 0.  0.
          5    1    3    3  502    0 -0.26451105676E+02  0.35948791340E+02  0.65247994479E+02  0.79162805495E+02  0.41800000000E+01 0.  1.
         -5    1    3    3    0  502  0.16672729852E+02 -0.65260001226E+02  0.32071041853E+03  0.32773387471E+03  0.41800000000E+01 0.  1.
        -11    1    1    2    0    0 -0.23316581772E+02 -0.21230971111E+02  0.19822745405E+02  0.37247259700E+02  0.00000000000E+00 0.  1.
         11    1    1    2    0    0  0.33094957595E+02  0.50542180996E+02  0.96992169026E+02  0.11426840828E+03  0.00000000000E+00 0. -1.
</event>
<event>
 7    1  0.2856214E-009  0.1016050E+03  0.7561462E-02  0.1276957E+00
         -1   -1    0    0    0  501 -0.00000000000E+00  0.00000000000E+00  0.78658856404E+03  0.78658856404E+03  0.00000000000E+00 0.  1.
          1   -1    0    0  501    0  0.00000000000E+00 -0.00000000000E+00 -0.17783863691E+02  0.17783863691E+02  0.00000000000E+00 0. -1.
         25    2    1    2    0    0 -0.32946359000E+02  0.32192160969E+02  0.39737269883E+03  0.41913370563E+03  0.12508478575E+03 0.  0.
          5    1    3    3  502    0 -0.64680748113E+02  0.28850517035E+02  0.11635192482E+03  0.13627616930E+03  0.41800000000E+01 0.  1.
         -5    1    3    3    0  502  0.31734389113E+02  0.33416439345E+01  0.28102077401E+03  0.28285753634E+03  0.41800000000E+01 0.  1.
        -11    1    1    2    0    0  0.27238356076E+02 -0.63059244381E+02  0.21565446647E+03  0.22632994776E+03  0.00000000000E+00 0. -1.
         11    1    1    2    0    0  0.57080029234E+01  0.30867083412E+02  0.15577753505E+03  0.15890877434E+03  0.00000000000E+00 0.  1.
</event>
<event>
 7    1  0.2856214E-009  0.1904649E+03  0.7561462E-02  0.1158043E+00
         -1   -1    0    0    0  501 -0.00000000000E+00  0.00000000000E+00  0.14806182112E+03  0.14806182112E+03  0.00000000000E+00 0.  1.
          1   -1    0    0  501    0  0.00000000000E+00 -0.00000000000E+00 -0.27584459948E+03  0.27584459948E+03  0.00000000000E+00 0. -1.
         25    2    1    2    0    0  0.16748678539E+02 -0.15944821694E+03 -0.22909015807E+02  0.20464213680E+03  0.12509727827E+03 0.  0.
          5    1    3    3  502    0  0.56998505099E+02 -0.15151396840E+03 -0.14739872110E+02  0.16260396192E+03  0.41800000000E+01 0. -1.
         -5    1    3    3    0  502 -0.40249826560E+02 -0.79342485391E+01 -0.81691436970E+01  0.42038174874E+02  0.41800000000E+01 0. -1.
        -11    1    1    2    0    0 -0.45068018783E+02  0.64560655444E+02 -0.89250141064E+02  0.11901593267E+03  0.00000000000E+00 0. -1.
         11    1    1    2    0    0  0.28319340245E+02  0.94887561492E+02 -0.15623621481E+02  0.10024835114E+03  0.00000000000E+00 0.  1.
</event>
<event>
 7    1  0.2856214E-009  0.9219141E+02  0.7561462E-02  0.1297630E+00
         -2   -1    0    0    0  501 -0.00000000000E+00  0.00000000000E+00  0.15151383594E+03  0.15151383594E+03  0.00000000000E+00 0.  1.
          2   -1    0    0  501    0  0.00000000000E+00 -0.00000000000E+00 -0.90651024759E+02  0.90651024759E+02  0.00000000000E+00 0. -1.
         25    2    1    2    0    0 -0.30778985480E+02 -0.31992342632E+02  0.48872633820E+02  0.14144457404E+03  0.12508867756E+03 0.  0.
          5    1    3    3  502    0  0.13477644533E+02 -0.70547589454E+02  0.14812620587E+02  0.73454036027E+02  0.41800000000E+01 0.  1.
         -5    1    3    3    0  502 -0.44256630013E+02  0.38555246822E+02  0.34060013233E+02  0.67990538011E+02  0.41800000000E+01 0.  1.
        -11    1    1    2    0    0  0.59238184898E+01  0.27754786730E+02  0.48593132107E+02  0.56273548848E+02  0.00000000000E+00 0.  1.
         11    1    1    2    0    0  0.24855166990E+02  0.42375559023E+01 -0.36602954747E+02  0.44446737814E+02  0.00000000000E+00 0. -1.
</event>
<event>
 7    1  0.2856214E-009  0.1471876E+03  0.7561462E-02  0.1203972E+00
         -2   -1    0    0    0  501 -0.00000000000E+00  0.00000000000E+00  0.68302841901E+03  0.68302841901E+03  0.00000000000E+00 0.  1.
          2   -1    0    0  501    0  0.00000000000E+00 -0.00000000000E+00 -0.39921696487E+02  0.39921696487E+02  0.00000000000E+00 0. -1.
         25    2    1    2    0    0 -0.13340118120E+01  0.11761418330E+03  0.43013644226E+03  0.46313948450E+03  0.12508376172E+03 0.  0.
          5    1    3    3  502    0  0.98212836834E+01  0.14306645322E+03  0.36622032705E+03  0.39331827823E+03  0.41800000000E+01 0. -1.
         -5    1    3    3    0  502 -0.11155295495E+02 -0.25452269915E+02  0.63916115210E+02  0.69821206270E+02  0.41800000000E+01 0. -1.
        -11    1    1    2    0    0 -0.12327659803E+02 -0.98754680774E+02  0.21450999324E+03  0.23647197587E+03  0.00000000000E+00 0.  1.
         11    1    1    2    0    0  0.13661671615E+02 -0.18859502529E+02 -0.15397129754E+01  0.23338655125E+02  0.00000000000E+00 0. -1.
</event>
<event>
 7    1  0.2856214E-009  0.8526086E+02  0.7561462E-02  0.1314752E+00
         -1   -1    0    0    0  501 -0.00000000000E+00  0.00000000000E+00  0.16371681692E+02  0.16371681692E+02  0.00000000000E+00 0.  1.
          1   -1    0    0  501    0  0.00000000000E+00 -0.00000000000E+00 -0.83632743925E+03  0.83632743925E+03  0.00000000000E+00 0. -1.
         25    2    1    2    0    0  0.12654377602E+02  0.13610208944E+02 -0.59407651761E+03  0.60738833610E+03  0.12509320924E+03 0.  0.
          5    1    3    3  502    0  0.19018901992E+02 -0.29654014131E+02 -0.48731945511E+02  0.60277309996E+02  0.41800000000E+01 0. -1.
         -5    1    3    3    0  502 -0.63645243901E+01  0.43264223075E+02 -0.54534457210E+03  0.54711102611E+03  0.41800000000E+01 0. -1.
        -11    1    1    2    0    0 -0.42453680181E+02  0.19373360465E+02 -0.77984040645E+02  0.90879880347E+02  0.00000000000E+00 0.  1.
         11    1    1    2    0    0  0.29799302579E+02 -0.32983569408E+02 -0.14789519930E+03  0.15443090449E+03  0.00000000000E+00 0. -1.
</event>
<event>
 7    1  0.2856214E-009  0.9532859E+02  0.7561462E-02  0.1290438E+00
         -1   -1    0    0    0  501 -0.00000000000E+00  0.00000000000E+00  0.22589027527E+02  0.22589027527E+02  0.00000000000E+00 0.  1.
          1   -1    0    0  501    0  0.00000000000E+00 -0.00000000000E+00 -0.76072352888E+03  0.76072352888E+03  0.00000000000E+00 0. -1.
         25    2    1    2    0    0 -0.52345028613E+01  0.88878069517E+02 -0.49033720043E+03  0.51381303229E+03  0.12508617334E+03 0.  0.
          5    1    3    3  502    0 -0.10297452766E+02  0.30142305136E+02 -0.16149830283E+02  0.35956717182E+02  0.41800000000E+01 0.  1.
         -5    1    3    3    0  502  0.50629499043E+01  0.58735764381E+02 -0.47418737015E+03  0.47785631511E+03  0.41800000000E+01 0.  1.
        -11    1    1    2    0    0 -0.19078922620E+02 -0.28059866082E+02 -0.44816193208E+02  0.56212565735E+02  0.00000000000E+00 0.  1.
         11    1    1    2    0    0  0.24313425481E+02 -0.60818203435E+02 -0.20298110771E+03  0.21328695838E+03  0.00000000000E+00 0. -1.
</event>
<event>
 7    1  0.2856214E-009  0.1657113E+03  0.7561462E-02  0.1182395E+00
         -2   -1    0    0    0  501 -0.00000000000E+00  0.00000000000E+00  0.14567215615E+03  0.14567215615E+03  0.00000000000E+00 0.  1.
          2   -1    0    0  501    0  0.00000000000E+00 -0.00000000000E+00 -0.19516027089E+03  0.19516027089E+03  0.00000000000E+00 0. -1.
         25    2    1    2    0    0  0.11544013989E+03 -0.57630929665E+02 -0.28044508025E+02  0.18188277642E+03  0.12508836867E+03 0.  0.
          5    1    3    3  502    0  0.50959215243E+02 -0.88622349560E+02 -0.38783831362E+02  0.10941855617E+03  0.41800000000E+01 0.  1.
         -5    1    3    3    0  502  0.64480924645E+02  0.30991419895E+02  0.10739323337E+02  0.72464220247E+02  0.41800000000E+01 0.  1.
        -11    1    1    2    0    0 -0.75049378427E+02  0.81288170093E+02 -0.13193837260E+02  0.11141926737E+03  0.00000000000E+00 0.  1.
         11    1    1    2    0    0 -0.40390761462E+02 -0.23657240428E+02 -0.82497694604E+01  0.47530383254E+02  0.00000000000E+00 0. -1.
</event>
<event>
 7    1  0.2856214E-009  0.1187719E+03  0.7561462E-02  0.1245137E+00
         -1   -1    0    0    0  501 -0.00000000000E+00  0.00000000000E+00  0.70498483941E+02  0.70498483941E+02  0.00000000000E+00 0.  1.
          1   -1    0    0  501    0  0.00000000000E+00 -0.00000000000E+00 -0.21218867302E+03  0.21218867302E+03  0.00000000000E+00 0. -1.
         25    2    1    2    0    0 -0.75427393085E+01  0.49337979712E+02 -0.48238675802E+02  0.14305868746E+03  0.12509072331E+03 0.  0.
          5    1    3    3  502    0 -0.12349085654E+02  0.91084294475E+02 -0.27647806048E+02  0.96076647505E+02  0.41800000000E+01 0.  1.
         -5    1    3    3    0  502  0.48063463453E+01 -0.41746314764E+02 -0.20590869754E+02  0.46982039960E+02  0.41800000000E+01 0.  1.
        -11    1    1    2    0    0  0.48542874819E+02 -0.18298151857E+02 -0.53372735195E+02  0.74430383038E+02  0.00000000000E+00 0.  1.
         11    1    1    2    0    0 -0.41000135510E+02 -0.31039827855E+02 -0.40078778080E+02  0.65198086456E+02  0.00000000000E+00 0. -1.
</event>
<event>
 7    1  0.2856214E-009  0.1296917E+03  0.7561462E-02  0.1227914E+00
          2   -1    0    0  501    0  0.00000000000E+00  0.00000000000E+00  0.42597461149E+02  0.42597461149E+02  0.00000000000E+00 0. -1.
         -2   -1    0    0    0  501 -0.00000000000E+00 -0.00000000000E+00 -0.48977285963E+03  0.48977285963E+03  0.00000000000E+00 0.  1.
         25    2    1    2    0    0 -0.75246351738E+02  0.57931610530E+02 -0.23622904757E+03  0.28367181774E+03  0.12508977702E+03 0.  0.
          5    1    3    3  502    0  0.31527375876E+02  0.33856629649E+02 -0.55876494254E+02  0.72662932854E+02  0.41800000000E+01 0.  1.
         -5    1    3    3    0  502 -0.10677372761E+03  0.24074980881E+02 -0.18035255331E+03  0.21100888488E+03  0.41800000000E+01 0.  1.
        -11    1    1    2    0    0  0.17310104559E+02  0.48422822264E+01  0.30962740327E+01  0.18239362102E+02  0.00000000000E+00 0. -1.
         11    1    1    2    0    0  0.57936247179E+02 -0.62773892757E+02 -0.21404262494E+03  0.23045914094E+03  0.00000000000E+00 0.  1.
</event>
<event>
 7    1  0.2856214E-009  0.1220746E+03  0.7561462E-02  0.1239713E+00
         -2   -1    0    0    0  501 -0.00000000000E+00  0.00000000000E+00  0.27703140254E+02  0.27703140254E+02  0.00000000000E+00 0.  1.
          2   -1    0    0  501    0  0.00000000000E+00 -0.00000000000E+00 -0.60199171885E+03  0.60199171885E+03  0.00000000000E+00 0. -1.
         25    2    1    2    0    0  0.56450442550E+02  0.37401454645E+02 -0.32947198323E+03  0.35886527450E+03  0.12508787406E+03 0.  0.
          5    1    3    3  502    0  0.38341574444E+02  0.83787866306E+02 -0.21727625948E+03  0.23604433525E+03  0.41800000000E+01 0.  1.
         -5    1    3    3    0  502  0.18108868106E+02 -0.46386411661E+02 -0.11219572375E+03  0.12282093925E+03  0.41800000000E+01 0.  1.
        -11    1    1    2    0    0 -0.49969830804E+02  0.12588663149E+02 -0.59182607441E+02  0.78473176653E+02  0.00000000000E+00 0.  1.
         11    1    1    2    0    0 -0.64806117457E+01 -0.49990117794E+02 -0.18563398792E+03  0.19235640794E+03  0.00000000000E+00 0. -1.
</event>
<event>
 7    1  0.2856214E-009  0.9982412E+02  0.7561462E-02  0.1280666E+00
         -4   -1    0    0    0  501 -0.00000000000E+00  0.00000000000E+00  0.27313586029E+03  0.27313586029E+03  0.00000000000E+00 0.  1.
          4   -1    0    0  501    0  0.00000000000E+00 -0.00000000000E+00 -0.47612400417E+02  0.47612400417E+02  0.00000000000E+00 0. -1.
         25    2    1    2    0    0 -0.20299049769E-01  0.35093759526E+02  0.11518049692E+03  0.17362606134E+03  0.12509152624E+03 0.  0.
          5    1    3    3  502    0  0.10042147930E+02 -0.33366939611E+02 -0.44353577236E+01  0.35374315431E+02  0.41800000000E+01 0.  1.
         -5    1    3    3    0  502 -0.10062446980E+02  0.68460699137E+02  0.11961585464E+03  0.13825174591E+03  0.41800000000E+01 0.  1.
        -11    1    1    2    0    0  0.16389677618E+02 -0.61783794333E+02  0.59012109530E+02  0.86995907063E+02  0.00000000000E+00 0.  1.
         11    1    1    2    0    0 -0.16369378568E+02  0.26690034807E+02  0.51330853427E+02  0.60126292304E+02  0.00000000000E+00 0. -1.
</event>
<event>
 7    1  0.2856214E-009  0.1924161E+03  0.7561462E-02  0.1156300E+00
         -4   -1    0    0    0  501 -0.00000000000E+00  0.00000000000E+00  0.21719370759E+03  0.21719370759E+03  0.00000000000E+00 0.  1.
          4   -1    0    0  501    0  0.00000000000E+00 -0.00000000000E+00 -0.29486080572E+03  0.29486080572E+03  0.00000000000E+00 0. -1.
         25    2    1    2    0    0 -0.13760560703E+03 -0.12255469641E+03 -0.17631106689E+03  0.28405647822E+03  0.12509010278E+03 0.  0.
          5    1    3    3  502    0 -0.10800702326E+03 -0.81704481407E+02 -0.44105705250E+02  0.14249184184E+03  0.41800000000E+01 0.  1.
         -5    1    3    3    0  502 -0.29598583775E+02 -0.40850214998E+02 -0.13220536164E+03  0.14156463638E+03  0.41800000000E+01 0.  1.
        -11    1    1    2    0    0  0.40629845785E+02  0.85941923834E+02  0.18201050392E+02  0.96788826195E+02  0.00000000000E+00 0. -1.
         11    1    1    2    0    0  0.96975761249E+02  0.36612772572E+02  0.80442918367E+02  0.13120920890E+03  0.00000000000E+00 0.  1.
</event>
<event>
 7    1  0.2856214E-009  0.1666830E+03  0.7561462E-02  0.1181352E+00
         -3   -1    0    0    0  501 -0.00000000000E+00  0.00000000000E+00  0.14084783904E+03  0.14084783904E+03  0.00000000000E+00 0.  1.
          3   -1    0    0  501    0  0.00000000000E+00 -0.00000000000E+00 -0.22627213560E+03  0.22627213560E+03  0.00000000000E+00 0. -1.
         25    2    1    2    0    0 -0.83521919414E+02  0.10859275082E+03 -0.84539737776E+01  0.18570757651E+03  0.12509011851E+03 0.  0.
          5    1    3    3  502    0 -0.50568454940E+02 -0.18500034286E+02  0.86774163113E+00  0.54015231918E+02  0.41800000000E+01 0.  1.
         -5    1    3    3    0  502 -0.32953464473E+02  0.12709278511E+03 -0.93217154087E+01  0.13169234460E+03  0.41800000000E+01 0.  1.
        -11    1    1    2    0    0  0.38259060114E+02 -0.10053217040E+02  0.11792507045E+02  0.41278154950E+02  0.00000000000E+00 0.  1.
         11    1    1    2    0    0  0.45262859300E+02 -0.98539533780E+02 -0.88762829828E+02  0.14013424317E+03  0.00000000000E+00 0. -1.
</event>
<event>
 7    1  0.2856214E-009  0.1035550E+03  0.7561462E-02  0.1272993E+00
          2   -1    0    0  501    0  0.00000000000E+00  0.00000000000E+00  0.39519539440E+03  0.39519539440E+03  0.00000000000E+00 0. -1.
         -2   -1    0    0    0  501 -0.00000000000E+00 -0.00000000000E+00 -0.33906582581E+02  0.33906582581E+02  0.00000000000E+00 0.  1.
         25    2    1    2    0    0  0.35799653397E+02 -0.25779899745E+00  0.17172717661E+03  0.21545217469E+03  0.12509090593E+03 0.  0.
          5    1    3    3  502    0 -0.13471913843E+02 -0.45859191228E+02  0.25136499560E+02  0.54165246172E+02  0.41800000000E+01 0.  1.
         -5    1    3    3    0  502  0.49271567240E+02  0.45601392231E+02  0.14659067705E+03  0.16128692852E+03  0.41800000000E+01 0.  1.
        -11    1    1    2    0    0 -0.31352024541E+02 -0.40302755888E+02  0.65505929868E+02  0.83055935507E+02  0.00000000000E+00 0.  1.
         11    1    1    2    0    0 -0.44476288563E+01  0.40560554885E+02  0.12405570534E+03  0.13059386679E+03  0.00000000000E+00 0. -1.
</event>
<event>
 7    1  0.2856214E-009  0.1147411E+03  0.7561462E-02  0.1252034E+00
          1   -1    0    0  501    0  0.00000000000E+00  0.00000000000E+00  0.10428390097E+04  0.10428390097E+04  0.00000000000E+00 0. -1.
         -1   -1    0    0    0  501 -0.00000000000E+00 -0.00000000000E+00 -0.20789859208E+02  0.20789859208E+02  0.00000000000E+00 0.  1.
         25    2    1    2    0    0 -0.38336816647E+02 -0.70453051438E+02  0.76844599428E+03  0.78268097056E+03  0.12508761563E+03 0.  0.
          5    1    3    3  502    0  0.33210920425E+02 -0.66593127890E+02  0.45964824132E+03  0.46565178843E+03  0.41800000000E+01 0. -1.
         -5    1    3    3    0  502 -0.71547737071E+02 -0.38599235475E+01  0.30879775297E+03  0.31702918214E+03  0.41800000000E+01 0. -1.
        -11    1    1    2    0    0  0.21422448442E+02  0.58947776875E+02  0.25281230387E+03  0.26047614610E+03  0.00000000000E+00 0. -1.
         11    1    1    2    0    0  0.16914368205E+02  0.11505274563E+02  0.79085238267E+00  0.20471752295E+02  0.00000000000E+00 0.  1.
</event>
<event>
 7    1  0.2856214E-009  0.6279096E+02  0.7561462E-02  0.1386479E+00
         -2   -1    0    0    0  501 -0.00000000000E+00  0.00000000000E+00  0.64032405894E+02  0.64032405894E+02  0.00000000000E+00 0.  1.
          2   -1    0    0  501    0  0.00000000000E+00 -0.00000000000E+00 -0.31704734180E+03  0.31704734180E+03  0.00000000000E+00 0. -1.
         25    2    1    2    0    0 -0.12103297495E+01 -0.22671441778E+02 -0.19695820284E+02  0.12864913923E+03  0.12508883450E+03 0.  0.
          5    1    3    3  502    0 -0.72749391369E+01 -0.42776470405E+01 -0.72054239475E+02  0.72667109685E+02  0.41800000000E+01 0. -1.
         -5    1    3    3    0  502  0.60646093874E+01 -0.18393794737E+02  0.52358419191E+02  0.55982029545E+02  0.41800000000E+01 0. -1.
        -11    1    1    2    0    0 -0.44851343543E+02 -0.35736985062E+00 -0.10850447585E+03  0.11740950562E+03  0.00000000000E+00 0.  1.
         11    1    1    2    0    0  0.46061673292E+02  0.23028811628E+02 -0.12481463978E+03  0.13502110285E+03  0.00000000000E+00 0. -1.
</event>
<event>
 7    1  0.2856214E-009  0.1453431E+03  0.7561462E-02  0.1206315E+00
         -2   -1    0    0    0  501 -0.00000000000E+00  0.00000000000E+00  0.74168819048E+02  0.74168819048E+02  0.00000000000E+00 0. -1.
          2   -1    0    0  501    0  0.00000000000E+00 -0.00000000000E+00 -0.61522379640E+03  0.61522379640E+03  0.00000000000E+00 0.  1.
         25    2    1    2    0    0  0.98518390376E+02 -0.25483700836E+02 -0.34042981198E+02  0.16481195864E+03  0.12509502345E+03 0.  0.
          5    1    3    3  502    0  0.54433911076E+02 -0.76197217239E+02 -0.23805718164E+02  0.96712208160E+02  0.41800000000E+01 0.  1.
         -5    1    3    3    0  502  0.44084479300E+02  0.50713516402E+02 -0.10237263034E+02  0.68099750480E+02  0.41800000000E+01 0.  1.
        -11    1    1    2    0    0 -0.57766103783E+02 -0.26513135056E+02 -0.17815551277E+03  0.18915405310E+03  0.00000000000E+00 0.  1.
         11    1    1    2    0    0 -0.40752286593E+02  0.51996835892E+02 -0.32885648339E+03  0.33542660370E+03  0.00000000000E+00 0. -1.
</event>
<event>
 7    1  0.2856214E-009  0.1193796E+03  0.7561462E-02  0.1244124E+00
         -1   -1    0    0    0  501 -0.00000000000E+00  0.00000000000E+00  0.83678883924E+03  0.83678883924E+03  0.00000000000E+00 0. -1.
          1   -1    0    0  501    0  0.00000000000E+00 -0.00000000000E+00 -0.29497559472E+02  0.29497559472E+02  0.00000000000E+00 0.  1.
         25    2    1    2    0    0  0.68533185626E+01 -0.10951885773E+03  0.51927407033E+03  0.54528446504E+03  0.12509292356E+03 0.  0.
          5    1    3    3  502    0  0.20691435736E+02 -0.10938920708E+03  0.22911163600E+03  0.25476214061E+03  0.41800000000E+01 0. -1.
         -5    1    3    3    0  502 -0.13838117173E+02 -0.12965065122E+00  0.29016243434E+03  0.29052232444E+03  0.41800000000E+01 0. -1.
        -11    1    1    2    0    0  0.10204025921E+02  0.35545250259E+02  0.19194022908E+02  0.41665303028E+02  0.00000000000E+00 0.  1.
         11    1    1    2    0    0 -0.17057344484E+02  0.73973607468E+02  0.26882318653E+03  0.27933663064E+03  0.00000000000E+00 0. -1.
</event>
<event>
 7    1  0.2856214E-009  0.1582118E+03  0.7561462E-02  0.1190731E+00
         -1   -1    0    0    0  501 -0.00000000000E+00  0.00000000000E+00  0.16331822109E+03  0.16331822109E+03  0.00000000000E+00 0.  1.
          1   -1    0    0  501    0  0.00000000000E+00 -0.00000000000E+00 -0.17670964928E+03  0.17670964928E+03  0.00000000000E+00 0. -1.
         25    2    1    2    0    0 -0.12657248619E+03  0.10716020976E+02  0.20899580587E+02  0.17949874113E+03  0.12509028033E+03 0.  0.
          5    1    3    3  502    0 -0.14057471568E+03  0.39391321714E+02  0.18667291258E+02  0.14723745134E+03  0.41800000000E+01 0.  1.
         -5    1    3    3    0  502  0.14002229489E+02 -0.28675300738E+02  0.22322893289E+01  0.32261289787E+02  0.41800000000E+01 0.  1.
        -11    1    1    2    0    0  0.74660417903E+02 -0.33086485891E+02 -0.57023841887E+02  0.99602269520E+02  0.00000000000E+00 0. -1.
         11    1    1    2    0    0  0.51912068287E+02  0.22370464915E+02  0.22732833109E+02  0.60926859722E+02  0.00000000000E+00 0.  1.
</event>
<event>
 7    1  0.2856214E-009  0.1143074E+03  0.7561462E-02  0.1252795E+00
          2   -1    0    0  501    0  0.00000000000E+00  0.00000000000E+00  0.53503024857E+03  0.53503024857E+03  0.00000000000E+00 0. -1.
         -2   -1    0    0    0  501 -0.00000000000E+00 -0.00000000000E+00 -0.35773703689E+02  0.35773703689E+02  0.00000000000E+00 0.  1.
         25    2    1    2    0    0 -0.45552441581E+02 -0.58938506041E+02  0.18363677211E+03  0.23434989771E+03  0.12509451650E+03 0.  0.
          5    1    3    3  502    0 -0.34110760121E+02  0.32227869867E+02  0.97733768880E+02  0.10849673512E+03  0.41800000000E+01 0. -1.
         -5    1    3    3    0  502 -0.11441681460E+02 -0.91166375908E+02  0.85903003225E+02  0.12585316259E+03  0.41800000000E+01 0. -1.
        -11    1    1    2    0    0  0.12914823135E+02  0.55180599671E+02  0.28803090185E+03  0.29355321776E+03  0.00000000000E+00 0. -1.
         11    1    1    2    0    0  0.32637618447E+02  0.37579063699E+01  0.27588870925E+02  0.42900836788E+02  0.00000000000E+00 0.  1.
</event>
<event>
 7    1  0.2856214E-009  0.1904866E+03  0.7561462E-02  0.1158023E+00
          2   -1    0    0  501    0  0.00000000000E+00  0.00000000000E+00  0.43703459740E+03  0.43703459740E+03  0.00000000000E+00 0. -1.
         -2   -1    0    0    0  501 -0.00000000000E+00 -0.00000000000E+00 -0.10275211657E+03  0.10275211657E+03  0.00000000000E+00 0.  1.
         25    2    1    2    0    0 -0.10390476171E+03  0.13834857826E+03  0.24725509536E+03  0.32667817157E+03  0.12508803695E+03 0.  0.
          5    1    3    3  502    0 -0.73499855833E+02  0.39657894445E+02  0.35102426400E+02  0.90689746601E+02  0.41800000000E+01 0. -1.
         -5    1    3    3    0  502 -0.30404905872E+02  0.98690683816E+02  0.21215266896E+03  0.23598842497E+03  0.41800000000E+01 0. -1.
        -11    1    1    2    0    0 -0.12182956341E+02 -0.40122877893E+02  0.25419166565E+02  0.49034720194E+02  0.00000000000E+00 0. -1.
         11    1    1    2    0    0  0.11608771805E+03 -0.98225700367E+02  0.61608218907E+02  0.16407382220E+03  0.00000000000E+00 0.  1.
</event>
<event>
 7    1  0.2856214E-009  0.1751225E+03  0.7561462E-02  0.1172609E+00
         -2   -1    0    0    0  501 -0.00000000000E+00  0.00000000000E+00  0.17860746086E+03  0.17860746086E+03  0.00000000000E+00 0.  1.
          2   -1    0    0  501    0  0.00000000000E+00 -0.00000000000E+00 -0.20969957133E+03  0.20969957133E+03  0.00000000000E+00 0. -1.
         25    2    1    2    0    0  0.29577173602E+02  0.15055592717E+03  0.28798647910E+02  0.20005211818E+03  0.12509832719E+03 0.  0.
          5    1    3    3  502    0  0.52260667080E+02  0.88033080233E+01  0.17600315483E+02  0.55999277325E+02  0.41800000000E+01 0.  1.
         -5    1    3    3    0  502 -0.22683493478E+02  0.14175261914E+03  0.11198332427E+02  0.14405284086E+03  0.41800000000E+01 0.  1.
        -11    1    1    2    0    0 -0.12753079415E+02 -0.73162791096E+02  0.18799623196E+02  0.76608490834E+02  0.00000000000E+00 0.  1.
         11    1    1    2    0    0 -0.16824094186E+02 -0.77393136072E+02 -0.78690381571E+02  0.11164642318E+03  0.00000000000E+00 0. -1.
</event>
<event>
 7    1  0.2856214E-009  0.1265021E+03  0.7561462E-02  0.1232740E+00
         -1   -1    0    0    0  501 -0.00000000000E+00  0.00000000000E+00  0.76942987826E+02  0.76942987826E+02  0.00000000000E+00 0.  1.
          1   -1    0    0  501    0  0.00000000000E+00 -0.00000000000E+00 -0.33279904853E+03  0.33279904853E+03  0.00000000000E+00 0. -1.
         25    2    1    2    0    0 -0.52410725218E+02  0.79877282697E+02 -0.22481505606E+03  0.27443860142E+03  0.12508985615E+03 0.  0.
          5    1    3    3  502    0 -0.38712604252E+02  0.10173950647E+03 -0.22306567089E+03  0.24824455449E+03  0.41800000000E+01 0. -1.
         -5    1    3    3    0  502 -0.13698120966E+02 -0.21862223769E+02 -0.17493851658E+01  0.26194046930E+02  0.41800000000E+01 0. -1.
        -11    1    1    2    0    0  0.65158629439E+02 -0.82284841163E+02 -0.36813236303E+01  0.10502377930E+03  0.00000000000E+00 0.  1.
         11    1    1    2    0    0 -0.12747904221E+02  0.24075584661E+01 -0.27359681018E+02  0.30279655632E+02  0.00000000000E+00 0. -1.
</event>
<event>
 7    1  0.2856214E-009  0.1750677E+03  0.7561462E-02  0.1172664E+00
         -1   -1    0    0    0  501 -0.00000000000E+00  0.00000000000E+00  0.35168156374E+02  0.35168156374E+02  0.00000000000E+00 0.  1.
          1   -1    0    0  501    0  0.00000000000E+00 -0.00000000000E+00 -0.10088470167E+04  0.10088470167E+04  0.00000000000E+00 0. -1.
         25    2    1    2    0    0  0.14981589178E+03 -0.27897397440E+02 -0.45799831717E+03  0.49863233086E+03  0.12509467070E+03 0.  0.
          5    1    3    3  502    0  0.14993975877E+03  0.76593055702E+01 -0.42170176762E+03  0.44764991839E+03  0.41800000000E+01 0. -1.
         -5    1    3    3    0  502 -0.12386699415E+00 -0.35556703010E+02 -0.36296549549E+02  0.50982412469E+02  0.41800000000E+01 0. -1.
        -11    1    1    2    0    0 -0.92371600499E+02  0.46950130783E+02 -0.21493632691E+03  0.23860941303E+03  0.00000000000E+00 0.  1.
         11    1    1    2    0    0 -0.57444291281E+02 -0.19052733344E+02 -0.30074421623E+03  0.30677342917E+03  0.00000000000E+00 0. -1.
</event>
<event>
 7    1  0.3186792E-009  0.1102383E+03  0.7561462E-02  0.1260129E+00
          3   -1    0    0  501    0  0.00000000000E+00  0.00000000000E+00  0.77153775467E+02  0.77153775467E+02  0.00000000000E+00 0. -1.
         -3   -1    0    0    0  501 -0.00000000000E+00 -0.00000000000E+00 -0.18767239527E+03  0.18767239527E+03  0.00000000000E+00 0.  1.
         25    2    1    2    0    0 -0.31682558015E+02  0.37855153389E+02 -0.44170607326E+02  0.14154930919E+03  0.12509343412E+03 0.  0.
          5    1    3    3  502    0  0.27125982694E-01 -0.40269380711E+02 -0.40175751125E+02  0.57036717447E+02  0.41800000000E+01 0. -1.
         -5    1    3    3    0  502 -0.31709683997E+02  0.78124534100E+02 -0.39948562011E+01  0.84512591746E+02  0.41800000000E+01 0. -1.
        -11    1    1    2    0    0  0.15932663033E+02  0.25621443885E+02 -0.45572645139E+02  0.54655046639E+02  0.00000000000E+00 0.  1.
         11    1    1    2    0    0  0.15749894982E+02 -0.63476597274E+02 -0.20775367342E+02  0.68621814911E+02  0.00000000000E+00 0. -1.
</event>
<event>
 7    1  0.2856214E-009  0.8498146E+02  0.7561462E-02  0.1315481E+00
         -2   -1    0    0    0  501 -0.00000000000E+00  0.00000000000E+00  0.64994595142E+02  0.64994595142E+02  0.00000000000E+00 0.  1.
          2   -1    0    0  501    0  0.00000000000E+00 -0.00000000000E+00 -0.23386927399E+03  0.23386927399E+03  0.00000000000E+00 0. -1.
         25    2    1    2    0    0  0.25797849705E+02 -0.45338504157E+02 -0.12079010988E+03  0.18154305796E+03  0.12508605934E+03 0.  0.
          5    1    3    3  502    0  0.60092138258E+02 -0.51209517294E+02 -0.12323268743E+03  0.14641464200E+03  0.41800000000E+01 0. -1.
         -5    1    3    3    0  502 -0.34294288553E+02  0.58710131378E+01  0.24425775537E+01  0.35128415958E+02  0.41800000000E+01 0. -1.
        -11    1    1    2    0    0 -0.90745692120E+01  0.35086421506E+02  0.23436412894E+02  0.43158663439E+02  0.00000000000E+00 0.  1.
         11    1    1    2    0    0 -0.16723280493E+02  0.10252082650E+02 -0.71520981864E+02  0.74162147730E+02  0.00000000000E+00 0. -1.
</event>
<event>
 7    1  0.2856214E-009  0.1755718E+03  0.7561462E-02  0.1172159E+00
          1   -1    0    0  501    0  0.00000000000E+00  0.00000000000E+00  0.12093697311E+03  0.12093697311E+03  0.00000000000E+00 0.  1.
         -1   -1    0    0    0  501 -0.00000000000E+00 -0.00000000000E+00 -0.27009017537E+03  0.27009017537E+03  0.00000000000E+00 0. -1.
         25    2    1    2    0    0 -0.12845822681E+03  0.62648573202E+02 -0.10478954116E+03  0.21692042725E+03  0.12508902456E+03 0.  0.
          5    1    3    3  502    0 -0.14003054463E+03  0.18697273185E+02 -0.61922212535E+02  0.15430480958E+03  0.41800000000E+01 0.  1.
         -5    1    3    3    0  502  0.11572317824E+02  0.43951300017E+02 -0.42867328627E+02  0.62615617673E+02  0.41800000000E+01 0.  1.
        -11    1    1    2    0    0  0.94365362890E+02 -0.17576339053E+01 -0.62427645808E+01  0.94587964879E+02  0.00000000000E+00 0.  1.
         11    1    1    2    0    0  0.34092863919E+02 -0.60890939297E+02 -0.38120896518E+02  0.79518756341E+02  0.00000000000E+00 0. -1.
</event>
<event>
 7    1  0.2856214E-009  0.1250002E+03  0.7561462E-02  0.1235069E+00
         -1   -1    0    0    0  501 -0.00000000000E+00  0.00000000000E+00  0.17103241893E+03  0.17103241893E+03  0.00000000000E+00 0.  1.
          1   -1    0    0  501    0  0.00000000000E+00 -0.00000000000E+00 -0.11366269774E+03  0.11366269774E+03  0.00000000000E+00 0. -1.
         25    2    1    2    0    0  0.82115876582E+02  0.29077183386E+02  0.29194963183E+02  0.15519998052E+03  0.12508472448E+03 0.  0.
          5    1    3    3  502    0  0.51280103322E+02 -0.44395998698E+02 -0.55273644947E+01  0.68181213361E+02  0.41800000000E+01 0.  1.
         -5    1    3    3    0  502  0.30835773260E+02  0.73473182084E+02  0.34722327678E+02  0.87018767157E+02  0.41800000000E+01 0.  1.
        -11    1    1    2    0    0 -0.41702557103E+02  0.13224154678E+02  0.50555615209E+02  0.66856950013E+02  0.00000000000E+00 0.  1.
         11    1    1    2    0    0 -0.40413319479E+02 -0.42301338063E+02 -0.22380857205E+02  0.62638186137E+02  0.00000000000E+00 0. -1.
</event>
<event>
 7    1  0.2856214E-009  0.5080379E+03  0.7561462E-02  0.1011702E+00
         -2   -1    0    0    0  501 -0.00000000000E+00  0.00000000000E+00  0.19908235970E+03  0.19908235970E+03  0.00000000000E+00 0.  1.
          2   -1    0    0  501    0  0.00000000000E+00 -0.00000000000E+00 -0.13959748067E+04  0.13959748067E+04  0.00000000000E+00 0. -1.
         25    2    1    2    0    0  0.39773610005E+03 -0.30327317281E+03 -0.79204234709E+03  0.94506457182E+03  0.12508933887E+03 0.  0.
          5    1    3    3  502    0  0.62563928376E+02 -0.54685632129E+01 -0.62180942632E+02  0.88476507300E+02  0.41800000000E+01 0. -1.
         -5    1    3    3    0  502  0.33517217167E+03 -0.29780460960E+03 -0.72986140446E+03  0.85658806452E+03  0.41800000000E+01 0. -1.
        -11    1    1    2    0    0 -0.38022359283E+03  0.30460551572E+03 -0.40311896507E+03  0.63234436880E+03  0.00000000000E+00 0. -1.
         11    1    1    2    0    0 -0.17512507213E+02 -0.13323429094E+01 -0.17311348873E+01  0.17648225817E+02  0.00000000000E+00 0.  1.
</event>
<event>
 7    1  0.2856214E-009  0.9290659E+02  0.7561462E-02  0.1295962E+00
          3   -1    0    0  501    0  0.00000000000E+00  0.00000000000E+00  0.15175673418E+02  0.15175673418E+02  0.00000000000E+00 0. -1.
         -3   -1    0    0    0  501 -0.00000000000E+00 -0.00000000000E+00 -0.98344045905E+03  0.98344045905E+03  0.00000000000E+00 0.  1.
         25    2    1    2    0    0 -0.27381805738E+01 -0.75862810246E+01 -0.76844113975E+03  0.77859784145E+03  0.12509102351E+03 0.  0.
          5    1    3    3  502    0  0.53036077029E+02  0.20530293557E+02 -0.25170785883E+03  0.25808649135E+03  0.41800000000E+01 0. -1.
         -5    1    3    3    0  502 -0.55774257603E+02 -0.28116574582E+02 -0.51673328092E+03  0.52051135011E+03  0.41800000000E+01 0. -1.
        -11    1    1    2    0    0  0.48055949793E+01  0.36694072220E+02 -0.18221699403E+03  0.18593703664E+03  0.00000000000E+00 0.  1.
         11    1    1    2    0    0 -0.20674144055E+01 -0.29107791196E+02 -0.17606651854E+02  0.34081254380E+02  0.00000000000E+00 0. -1.
</event>
<event>
 7    1  0.2856214E-009  0.1172305E+03  0.7561462E-02  0.1247737E+00
          2   -1    0    0  501    0  0.00000000000E+00  0.00000000000E+00  0.10350526012E+03  0.10350526012E+03  0.00000000000E+00 0. -1.
         -2   -1    0    0    0  501 -0.00000000000E+00 -0.00000000000E+00 -0.14462195425E+03  0.14462195425E+03  0.00000000000E+00 0.  1.
         25    2    1    2    0    0  0.10097504165E+02 -0.44658855476E+02  0.97975484399E+01  0.13356611351E+03  0.12509013454E+03 0.  0.
          5    1    3    3  502    0  0.64889277864E+02 -0.68669350913E+01  0.13526404868E+02  0.66769822584E+02  0.41800000000E+01 0. -1.
         -5    1    3    3    0  502 -0.54791773698E+02 -0.37791920385E+02 -0.37288564281E+01  0.66796290927E+02  0.41800000000E+01 0. -1.
        -11    1    1    2    0    0 -0.33568302287E+02 -0.16114207087E+02 -0.22331909091E+02  0.43419036748E+02  0.00000000000E+00 0.  1.
         11    1    1    2    0    0  0.23470798122E+02  0.60773062563E+02 -0.28582333480E+02  0.71142064103E+02  0.00000000000E+00 0. -1.
</event>
<event>
 7    1  0.2856214E-009  0.1231911E+03  0.7561462E-02  0.1237924E+00
          2   -1    0    0  501    0  0.00000000000E+00  0.00000000000E+00  0.99441755440E+03  0.99441755440E+03  0.00000000000E+00 0. -1.
         -2   -1    0    0    0  501 -0.00000000000E+00 -0.00000000000E+00 -0.18014423184E+02  0.18014423184E+02  0.00000000000E+00 0.  1.
         25    2    1    2    0    0  0.63313980636E+02  0.90690563580E+01  0.70070822663E+03  0.71465380049E+03  0.12508847975E+03 0.  0.
          5    1    3    3  502    0 -0.33539806549E+01 -0.47767161269E+02  0.34292163331E+03  0.34627398094E+03  0.41800000000E+01 0.  1.
         -5    1    3    3    0  502  0.66667961291E+02  0.56836217627E+02  0.35778659331E+03  0.36837981955E+03  0.41800000000E+01 0.  1.
        -11    1    1    2    0    0  0.15808893775E+02  0.20721599156E+02  0.90873265285E+02  0.94537062243E+02  0.00000000000E+00 0. -1.
         11    1    1    2    0    0 -0.79122874411E+02 -0.29790655514E+02  0.18482163930E+03  0.20324111485E+03  0.00000000000E+00 0.  1.
</event>
<event>
 7    1  0.2856214E-009  0.1227758E+03  0.7561462E-02  0.1238587E+00
         -1   -1    0    0    0  501 -0.00000000000E+00  0.00000000000E+00  0.21456036195E+03  0.21456036195E+03  0.00000000000E+00 0.  1.
          1   -1    0    0  501    0  0.00000000000E+00 -0.00000000000E+00 -0.72034477447E+02  0.72034477447E+02  0.00000000000E+00 0. -1.
         25    2    1    2    0    0  0.27665945052E+02  0.51656691916E+02  0.97767517471E+02  0.16923194155E+03  0.12508854557E+03 0.  0.
          5    1    3    3  502    0 -0.44163036756E+02 -0.61310945534E+01  0.42064482406E+02  0.61439866667E+02  0.41800000000E+01 0. -1.
         -5    1    3    3    0  502  0.71828981808E+02  0.57787786470E+02  0.55703035065E+02  0.10779207489E+03  0.41800000000E+01 0. -1.
        -11    1    1    2    0    0  0.21573339268E+02 -0.55053278238E+02  0.23709949146E+02  0.63705840395E+02  0.00000000000E+00 0.  1.
         11    1    1    2    0    0 -0.49239284319E+02  0.33965863220E+01  0.21048417888E+02  0.53657057453E+02  0.00000000000E+00 0. -1.
</event>
<event>
 7    1  0.2856214E-009  0.1013197E+03  0.7561462E-02  0.1277545E+00
         -2   -1    0    0    0  501 -0.00000000000E+00  0.00000000000E+00  0.67262907952E+02  0.67262907952E+02  0.00000000000E+00 0.  1.
          2   -1    0    0  501    0  0.00000000000E+00 -0.00000000000E+00 -0.21825811393E+03  0.21825811393E+03  0.00000000000E+00 0. -1.
         25    2    1    2    0    0  0.11036242506E+02  0.24957598455E+02 -0.46760280533E+02  0.13630043836E+03  0.12508639131E+03 0.  0.
          5    1    3    3  502    0 -0.42069181158E+02  0.16659525442E+02  0.20709222110E+02  0.49936960977E+02  0.41800000000E+01 0.  1.
         -5    1    3    3    0  502  0.53105423663E+02  0.82980730132E+01 -0.67469502643E+02  0.86363477379E+02  0.41800000000E+01 0.  1.
        -11    1    1    2    0    0  0.38009838598E+02  0.14149601223E+02 -0.60164291905E+02  0.72558259802E+02  0.00000000000E+00 0. -1.
         11    1    1    2    0    0 -0.49046081104E+02 -0.39107199678E+02 -0.44070633540E+02  0.76662323724E+02  0.00000000000E+00 0.  1.
</event>
<event>
 7    1  0.2856214E-009  0.8965291E+02  0.7561462E-02  0.1303694E+00
          2   -1    0    0  501    0  0.00000000000E+00  0.00000000000E+00  0.30234310198E+03  0.30234310198E+03  0.00000000000E+00 0. -1.
         -2   -1    0    0    0  501 -0.00000000000E+00 -0.00000000000E+00 -0.39444821442E+02  0.39444821442E+02  0.00000000000E+00 0.  1.
         25    2    1    2    0    0  0.81181534521E+01 -0.95340435772E+01  0.16607932290E+03  0.20829498380E+03  0.12509059268E+03 0.  0.
          5    1    3    3  502    0 -0.16239071781E+02 -0.53805570332E+02  0.14075830151E+03  0.15162163004E+03  0.41800000000E+01 0.  1.
         -5    1    3    3    0  502  0.24357225233E+02  0.44271526755E+02  0.25321021391E+02  0.56673353761E+02  0.41800000000E+01 0.  1.
        -11    1    1    2    0    0  0.11832485397E+02  0.36688893738E+02  0.92203962086E+01  0.39637082897E+02  0.00000000000E+00 0.  1.
         11    1    1    2    0    0 -0.19950638849E+02 -0.27154850160E+02  0.87598561425E+02  0.93855856725E+02  0.00000000000E+00 0. -1.
</event>
<event>
 7    1  0.2856214E-009  0.7596860E+02  0.7561462E-02  0.1340898E+00
         -1   -1    0    0    0  501 -0.00000000000E+00  0.00000000000E+00  0.17534896351E+03  0.17534896351E+03  0.00000000000E+00 0.  1.
          1   -1    0    0  501    0  0.00000000000E+00 -0.00000000000E+00 -0.71817126231E+02  0.71817126231E+02  0.00000000000E+00 0. -1.
         25    2    1    2    0    0 -0.14023216171E+02  0.21115334811E+02  0.39613672286E+02  0.13363938650E+03  0.12509090549E+03 0.  0.
          5    1    3    3  502    0 -0.45142265861E+02  0.21857055872E+02  0.72440438027E+02  0.88207961772E+02  0.41800000000E+01 0. -1.
         -5    1    3    3    0  502  0.31119049690E+02 -0.74172106098E+00 -0.32826765742E+02  0.45431424728E+02  0.41800000000E+01 0. -1.
        -11    1    1    2    0    0 -0.22175928189E+02 -0.25434959994E+02 -0.63756166758E+01  0.34341774400E+02  0.00000000000E+00 0. -1.
         11    1    1    2    0    0  0.36199144360E+02  0.43196251829E+01  0.70293781667E+02  0.79184928839E+02  0.00000000000E+00 0.  1.
</event>
<event>
 7    1  0.2856214E-009  0.9892375E+02  0.7561462E-02  0.1282576E+00
         -2   -1    0    0    0  501 -0.00000000000E+00  0.00000000000E+00  0.41842041956E+02  0.41842041956E+02  0.00000000000E+00 0.  1.
          2   -1    0    0  501    0  0.00000000000E+00 -0.00000000000E+00 -0.55346639349E+03  0.55346639349E+03  0.00000000000E+00 0. -1.
         25    2    1    2    0    0 -0.54637821182E+02  0.37959273238E+02 -0.43595837882E+03  0.45839873504E+03  0.12507395530E+03 0.  0.
          5    1    3    3  502    0 -0.57076293950E+01  0.44542281795E+02 -0.42951271223E+02  0.62280622994E+02  0.41800000000E+01 0. -1.
         -5    1    3    3    0  502 -0.48930191787E+02 -0.65830085567E+01 -0.39300710759E+03  0.39611811204E+03  0.41800000000E+01 0. -1.
        -11    1    1    2    0    0  0.38501960746E+02 -0.62749603326E+02 -0.24103400700E+02  0.77465396302E+02  0.00000000000E+00 0.  1.
         11    1    1    2    0    0  0.16135860436E+02  0.24790330088E+02 -0.51562572021E+02  0.59444304112E+02  0.00000000000E+00 0. -1.
</event>
<event>
 7    1  0.2856214E-009  0.3444972E+03  0.7561462E-02  0.1064897E+00
         -1   -1    0    0    0  501 -0.00000000000E+00  0.00000000000E+00  0.81051440685E+03  0.81051440685E+03  0.00000000000E+00 0.  1.
          1   -1    0    0  501    0  0.00000000000E+00 -0.00000000000E+00 -0.15915636664E+03  0.15915636664E+03  0.00000000000E+00 0. -1.
         25    2    1    2    0    0  0.32096577694E+03 -0.11797090242E+03  0.30663114204E+03  0.47603247958E+03  0.12509236812E+03 0.  0.
          5    1    3    3  502    0  0.14917742852E+02  0.56244325238E+01 -0.94628482391E+01  0.19005030645E+02  0.41800000000E+01 0.  1.
         -5    1    3    3    0  502  0.30604803409E+03 -0.12359533494E+03  0.31609399028E+03  0.45702744893E+03  0.41800000000E+01 0.  1.
        -11    1    1    2    0    0 -0.92638553998E+02  0.42735050563E+02  0.16292973012E+03  0.19223496869E+03  0.00000000000E+00 0.  1.
         11    1    1    2    0    0 -0.22832722294E+03  0.75235851854E+02  0.18179716805E+03  0.30140332522E+03  0.00000000000E+00 0. -1.
</event>
<event>
 7    1  0.2856214E-009  0.9541601E+02  0.7561462E-02  0.1290242E+00
         -2   -1    0    0    0  501 -0.00000000000E+00  0.00000000000E+00  0.25616549739E+02  0.25616549739E+02  0.00000000000E+00 0.  1.
          2   -1    0    0  501    0  0.00000000000E+00 -0.00000000000E+00 -0.70101952260E+03  0.70101952260E+03  0.00000000000E+00 0. -1.
         25    2    1    2    0    0  0.27922094338E+02 -0.35147977666E+01 -0.56851593814E+03  0.58279504008E+03  0.12509072572E+03 0.  0.
          5    1    3    3  502    0  0.75109949264E+02 -0.83613365567E+01 -0.42202071865E+03  0.42875444697E+03  0.41800000000E+01 0. -1.
         -5    1    3    3    0  502 -0.47187854926E+02  0.48465387901E+01 -0.14649521950E+03  0.15404059311E+03  0.41800000000E+01 0. -1.
        -11    1    1    2    0    0 -0.32503757816E+02 -0.23508255116E+02 -0.75836756927E+01  0.40824557165E+02  0.00000000000E+00 0.  1.
         11    1    1    2    0    0  0.45816634772E+01  0.27023052883E+02 -0.99303359029E+02  0.10301647510E+03  0.00000000000E+00 0. -1.
</event>
<event>
 7    1  0.2856214E-009  0.1159117E+03  0.7561462E-02  0.1249998E+00
          2   -1    0    0  501    0  0.00000000000E+00  0.00000000000E+00  0.41754699567E+02  0.41754699567E+02  0.00000000000E+00 0. -1.
         -2   -1    0    0    0  501 -0.00000000000E+00 -0.00000000000E+00 -0.41518560064E+03  0.41518560064E+03  0.00000000000E+00 0.  1.
         25    2    1    2    0    0 -0.10685158090E+02 -0.58779912764E+02 -0.28474961685E+03  0.31669885006E+03  0.12508623660E+03 0.  0.
          5    1    3    3  502    0 -0.66469964912E+02 -0.40278722335E+02 -0.13588523416E+03  0.15659789580E+03  0.41800000000E+01 0.  1.
         -5    1    3    3    0  502  0.55784806822E+02 -0.18501190428E+02 -0.14886438269E+03  0.16010095426E+03  0.41800000000E+01 0.  1.
        -11    1    1    2    0    0 -0.28606355043E+02  0.59327205297E+01 -0.63207983858E+02  0.69633109546E+02  0.00000000000E+00 0.  1.
         11    1    1    2    0    0  0.39291513132E+02  0.52847192234E+02 -0.25473300371E+02  0.70608340605E+02  0.00000000000E+00 0. -1.
</event>
<event>
 7    1  0.2856214E-009  0.7773288E+02  0.7561462E-02  0.1335611E+00
         -2   -1    0    0    0  501 -0.00000000000E+00  0.00000000000E+00  0.33060384883E+02  0.33060384883E+02  0.00000000000E+00 0.  1.
          2   -1    0    0  501    0  0.00000000000E+00 -0.00000000000E+00 -0.39282465506E+03  0.39282465506E+03  0.00000000000E+00 0. -1.
         25    2    1    2    0    0 -0.31659856647E+01 -0.34333646776E+02 -0.20365609364E+03  0.24148131580E+03  0.12509435893E+03 0.  0.
          5    1    3    3  502    0  0.11903985413E+02 -0.47472533850E+02 -0.21330755146E+03  0.21889022419E+03  0.41800000000E+01 0.  1.
         -5    1    3    3    0  502 -0.15069971078E+02  0.13138887074E+02  0.96514578161E+01  0.22591091603E+02  0.41800000000E+01 0.  1.
        -11    1    1    2    0    0 -0.37628019888E+02  0.20461436092E+02 -0.12245878888E+03  0.12973316161E+03  0.00000000000E+00 0. -1.
         11    1    1    2    0    0  0.40794005553E+02  0.13872210684E+02 -0.33649387655E+02  0.54670562535E+02  0.00000000000E+00 0.  1.
</event>
<event>
 7    1  0.2856214E-009  0.2056630E+03  0.7561462E-02  0.1145047E+00
         -1   -1    0    0    0  501 -0.00000000000E+00  0.00000000000E+00  0.13681865903E+03  0.13681865903E+03  0.00000000000E+00 0.  1.
          1   -1    0    0  501    0  0.00000000000E+00 -0.00000000000E+00 -0.31315517825E+03  0.31315517825E+03  0.00000000000E+00 0. -1.
         25    2    1    2    0    0 -0.86001849530E+02 -0.14380950077E+03 -0.80751115440E+02  0.22415524981E+03  0.12508933903E+03 0.  0.
          5    1    3    3  502    0  0.25372138420E+02 -0.72141978062E+02 -0.28472563012E+02  0.81709054891E+02  0.41800000000E+01 0. -1.
         -5    1    3    3    0  502 -0.11137398795E+03 -0.71667522709E+02 -0.52278552428E+02  0.14244619492E+03  0.41800000000E+01 0. -1.
        -11    1    1    2    0    0  0.59069946806E+02  0.16017357092E+03 -0.92464561567E+02  0.19415078311E+03  0.00000000000E+00 0. -1.
         11    1    1    2    0    0  0.26931902724E+02 -0.16364070152E+02 -0.31208422180E+01  0.31667804351E+02  0.00000000000E+00 0.  1.
</event>
<event>
 7    1  0.2856214E-009  0.1725569E+03  0.7561462E-02  0.1175207E+00
         -1   -1    0    0    0  501 -0.00000000000E+00  0.00000000000E+00  0.40386069094E+03  0.40386069094E+03  0.00000000000E+00 0.  1.
          1   -1    0    0  501    0  0.00000000000E+00 -0.00000000000E+00 -0.91920786219E+02  0.91920786219E+02  0.00000000000E+00 0. -1.
         25    2    1    2    0    0  0.22161141377E+02 -0.13493304569E+03  0.60258570714E+02  0.19487359042E+03  0.12508628180E+03 0.  0.
          5    1    3    3  502    0  0.56422489784E+02 -0.13915745218E+03  0.44311086828E+02  0.15661813007E+03  0.41800000000E+01 0.  1.
         -5    1    3    3    0  502 -0.34261348406E+02  0.42244064859E+01  0.15947483885E+02  0.38255460356E+02  0.41800000000E+01 0.  1.
        -11    1    1    2    0    0  0.23666509630E+02  0.77007483027E+01  0.70906654887E+02  0.75147580865E+02  0.00000000000E+00 0.  1.
         11    1    1    2    0    0 -0.45827651007E+02  0.12723229739E+03  0.18077467912E+03  0.22576030587E+03  0.00000000000E+00 0. -1.
</event>
<event>
 7    1  0.2856214E-009  0.1205122E+03  0.7561462E-02  0.1242255E+00
         -2   -1    0    0    0  501 -0.00000000000E+00  0.00000000000E+00  0.17464596232E+02  0.17464596232E+02  0.00000000000E+00 0.  1.
          2   -1    0    0  501    0  0.00000000000E+00 -0.00000000000E+00 -0.10540473958E+04  0.10540473958E+04  0.00000000000E+00 0. -1.
         25    2    1    2    0    0 -0.25436545047E+02  0.45110087364E+02 -0.79581240830E+03  0.80724638075E+03  0.12508953688E+03 0.  0.
          5    1    3    3  502    0 -0.42018841781E+02 -0.33706407534E+02 -0.27970968634E+03  0.28488012568E+03  0.41800000000E+01 0. -1.
         -5    1    3    3    0  502  0.16582296734E+02  0.78816494898E+02 -0.51610272195E+03  0.52236625507E+03  0.41800000000E+01 0. -1.
        -11    1    1    2    0    0  0.28129395754E+02  0.24124585851E+02 -0.58271874045E+02  0.69057004371E+02  0.00000000000E+00 0.  1.
         11    1    1    2    0    0 -0.26928507073E+01 -0.69234673215E+02 -0.18249851722E+03  0.19520860690E+03  0.00000000000E+00 0. -1.
</event>
<event>
 7    1  0.2856214E-009  0.1301380E+03  0.7561462E-02  0.1227251E+00
         -1   -1    0    0    0  501 -0.00000000000E+00  0.00000000000E+00  0.13829759984E+03  0.13829759984E+03  0.00000000000E+00 0.  1.
          1   -1    0    0  501    0  0.00000000000E+00 -0.00000000000E+00 -0.48131123290E+03  0.48131123290E+03  0.00000000000E+00 0. -1.
         25    2    1    2    0    0 -0.42831161050E+02  0.92308037557E+02 -0.42989616650E+03  0.45914603086E+03  0.12509628903E+03 0.  0.
          5    1    3    3  502    0 -0.74165710187E+02  0.75741877054E+02 -0.19904338896E+03  0.22555072067E+03  0.41800000000E+01 0. -1.
         -5    1    3    3    0  502  0.31334549137E+02  0.16566160503E+02 -0.23085277754E+03  0.23359531019E+03  0.41800000000E+01 0. -1.
        -11    1    1    2    0    0 -0.11939751199E+02 -0.43586359866E+02 -0.20179400856E+01  0.45237158479E+02  0.00000000000E+00 0. -1.
         11    1    1    2    0    0  0.54770912249E+02 -0.48721677691E+02  0.88900473524E+02  0.11522564341E+03  0.00000000000E+00 0.  1.
</event>
<event>
 7    1  0.2856214E-009  0.1122347E+03  0.7561462E-02  0.1256487E+00
          3   -1    0    0  501    0  0.00000000000E+00  0.00000000000E+00  0.19310840682E+03  0.19310840682E+03  0.00000000000E+00 0. -1.
         -3   -1    0    0    0  501 -0.00000000000E+00 -0.00000000000E+00 -0.73833152552E+02  0.73833152552E+02  0.00000000000E+00 0.  1.
         25    2    1    2    0    0  0.47182161707E+02  0.28852417111E+02  0.67962111573E+02  0.15272158266E+03  0.12508563005E+03 0.  0.
          5    1    3    3  502    0  0.73478647246E+02  0.58629242101E+02  0.33238458700E+02  0.99793622878E+02  0.41800000000E+01 0.  1.
         -5    1    3    3    0  502 -0.26296485539E+02 -0.29776824990E+02  0.34723652872E+02  0.52927959785E+02  0.41800000000E+01 0.  1.
        -11    1    1    2    0    0  0.18927647722E+02 -0.18539554873E+01 -0.87255823705E+01  0.20924358698E+02  0.00000000000E+00 0.  1.
         11    1    1    2    0    0 -0.66109809428E+02 -0.26998461624E+02  0.60038725069E+02  0.93295618014E+02  0.00000000000E+00 0. -1.
</event>
<event>
 7    1  0.2856214E-009  0.9751661E+02  0.7561462E-02  0.1285607E+00
         -1   -1    0    0    0  501 -0.00000000000E+00  0.00000000000E+00  0.12552889274E+03  0.12552889274E+03  0.00000000000E+00 0.  1.
          1   -1    0    0  501    0  0.00000000000E+00 -0.00000000000E+00 -0.11648652274E+03  0.11648652274E+03  0.00000000000E+00 0. -1.
         25    2    1    2    0    0 -0.89967810400E+00  0.21416586274E+02  0.52130903903E+02  0.13720541481E+03  0.12509282602E+03 0.  0.
          5    1    3    3  502    0 -0.41264698923E+02 -0.28529020325E+02 -0.57293647128E+01  0.50665356981E+02  0.41800000000E+01 0.  1.
         -5    1    3    3    0  502  0.40365020819E+02  0.49945606599E+02  0.57860268616E+02  0.86540057826E+02  0.41800000000E+01 0.  1.
        -11    1    1    2    0    0 -0.25934737254E+02  0.18771844652E+02  0.94953141814E+01  0.33393917702E+02  0.00000000000E+00 0.  1.
         11    1    1    2    0    0  0.26834415358E+02 -0.40188430926E+02 -0.52583848083E+02  0.71416082973E+02  0.00000000000E+00 0. -1.
</event>
<event>
 7    1  0.2856214E-009  0.8480888E+02  0.7561462E-02  0.1315933E+00
         -1   -1    0    0    0  501 -0.00000000000E+00  0.00000000000E+00  0.84372180096E+02  0.84372180096E+02  0.00000000000E+00 0.  1.
          1   -1    0    0  501    0  0.00000000000E+00 -0.00000000000E+00 -0.10847418430E+03  0.10847418430E+03  0.00000000000E+00 0. -1.
         25    2    1    2    0    0 -0.44459405694E+02  0.32127135009E+01 -0.21723327524E+02  0.13455390411E+03  0.12508353157E+03 0.  0.
          5    1    3    3  502    0  0.21529311565E+02  0.40626683860E+02 -0.34342671689E+02  0.57540682970E+02  0.41800000000E+01 0. -1.
         -5    1    3    3    0  502 -0.65988717259E+02 -0.37413970359E+02  0.12619344165E+02  0.77013221142E+02  0.41800000000E+01 0. -1.
        -11    1    1    2    0    0  0.23000621614E+02 -0.98418099268E+01 -0.18098817989E+02  0.30878099519E+02  0.00000000000E+00 0. -1.
         11    1    1    2    0    0  0.21458784079E+02  0.66290964259E+01  0.15720141307E+02  0.27414360768E+02  0.00000000000E+00 0.  1.
</event>
<event>
 7    1  0.2856214E-009  0.1351409E+03  0.7561462E-02  0.1220021E+00
         -2   -1    0    0    0  501 -0.00000000000E+00  0.00000000000E+00  0.84317573213E+02  0.84317573213E+02  0.00000000000E+00 0.  1.
          2   -1    0    0  501    0  0.00000000000E+00 -0.00000000000E+00 -0.27491909173E+03  0.27491909173E+03  0.00000000000E+00 0. -1.
         25    2    1    2    0    0  0.36462789980E+02 -0.10006211092E+03 -0.89942998164E+02  0.18729681257E+03  0.12509353295E+03 0.  0.
          5    1    3    3  502    0 -0.70327631074E+00 -0.98165740868E+02 -0.96867361381E+01  0.98733543108E+02  0.41800000000E+01 0. -1.
         -5    1    3    3    0  502  0.37166066290E+02 -0.18963700488E+01 -0.80256262026E+02  0.88563269459E+02  0.41800000000E+01 0. -1.
        -11    1    1    2    0    0 -0.60790416764E+02  0.49237496033E+02 -0.80089713700E+02  0.11195609866E+03  0.00000000000E+00 0. -1.
         11    1    1    2    0    0  0.24327626784E+02  0.50824614883E+02 -0.20568806651E+02  0.59983753717E+02  0.00000000000E+00 0.  1.
</event>
<event>
 7    1  0.2856214E-009  0.8055237E+02  0.7561462E-02  0.1327491E+00
         -2   -1    0    0    0  501 -0.00000000000E+00  0.00000000000E+00  0.11067089428E+03  0.11067089428E+03  0.00000000000E+00 0.  1.
          2   -1    0    0  501    0  0.00000000000E+00 -0.00000000000E+00 -0.14599065905E+03  0.14599065905E+03  0.00000000000E+00 0. -1.
         25    2    1    2    0    0  0.52297112667E+01  0.13772281180E+02  0.45935578056E+02  0.13407383624E+03  0.12509472660E+03 0.  0.
          5    1    3    3  502    0  0.28129756198E+02 -0.28501752544E+02  0.69536948505E+02  0.80352303572E+02  0.41800000000E+01 0.  1.
         -5    1    3    3    0  502 -0.22900044931E+02  0.42274033724E+02 -0.23601370450E+02  0.53721532668E+02  0.41800000000E+01 0.  1.
        -11    1    1    2    0    0  0.30707826391E+02  0.64038133405E+01 -0.74485946749E+02  0.80821628851E+02  0.00000000000E+00 0. -1.
         11    1    1    2    0    0 -0.35937537658E+02 -0.20176094520E+02 -0.67693960790E+01  0.41766088233E+02  0.00000000000E+00 0.  1.
</event>
<event>
 7    1  0.2856214E-009  0.1492060E+03  0.7561462E-02  0.1201452E+00
          2   -1    0    0  501    0  0.00000000000E+00  0.00000000000E+00  0.59890154634E+03  0.59890154634E+03  0.00000000000E+00 0. -1.
         -2   -1    0    0    0  501 -0.00000000000E+00 -0.00000000000E+00 -0.41643498155E+02  0.41643498155E+02  0.00000000000E+00 0.  1.
         25    2    1    2    0    0  0.10622004182E+03 -0.43528861167E+02  0.29473771740E+03  0.34014151869E+03  0.12509385133E+03 0.  0.
          5    1    3    3  502    0  0.79770467722E+02 -0.81043845740E+02  0.25517978771E+03  0.27940227076E+03  0.41800000000E+01 0.  1.
         -5    1    3    3    0  502  0.26449574102E+02  0.37514984573E+02  0.39557929694E+02  0.60739247932E+02  0.41800000000E+01 0.  1.
        -11    1    1    2    0    0  0.10300404033E+02  0.15620876143E+02  0.79350224000E+02  0.81526487374E+02  0.00000000000E+00 0. -1.
         11    1    1    2    0    0 -0.11652044586E+03  0.27907985024E+02  0.18317010678E+03  0.21887703843E+03  0.00000000000E+00 0.  1.
</event>
<event>
 7    1  0.2856214E-009  0.1076041E+03  0.7561462E-02  0.1265072E+00
         -2   -1    0    0    0  501 -0.00000000000E+00  0.00000000000E+00  0.14001318717E+02  0.14001318717E+02  0.00000000000E+00 0.  1.
          2   -1    0    0  501    0  0.00000000000E+00 -0.00000000000E+00 -0.20809097734E+04  0.20809097734E+04  0.00000000000E+00 0. -1.
         25    2    1    2    0    0  0.61708126716E+02 -0.24999883090E+02 -0.17968041242E+04  0.18023833444E+04  0.12509105666E+03 0.  0.
          5    1    3    3  502    0  0.97618253368E+02 -0.35471835758E+02 -0.12856349990E+04  0.12898303755E+04  0.41800000000E+01 0.  1.
         -5    1    3    3    0  502 -0.35910126652E+02  0.10471952668E+02 -0.51116912522E+03  0.51255296893E+03  0.41800000000E+01 0.  1.
        -11    1    1    2    0    0 -0.18346426890E+02  0.24051626689E+02 -0.15004182712E+02  0.33766812477E+02  0.00000000000E+00 0.  1.
         11    1    1    2    0    0 -0.43361699826E+02  0.94825640111E+00 -0.25510014783E+03  0.25876093527E+03  0.00000000000E+00 0. -1.
</event>
<event>
 7    1  0.2856214E-009  0.1268195E+03  0.7561462E-02  0.1232253E+00
          1   -1    0    0  501    0  0.00000000000E+00  0.00000000000E+00  0.18567229622E+02  0.18567229622E+02  0.00000000000E+00 0. -1.
         -1   -1    0    0    0  501 -0.00000000000E+00 -0.00000000000E+00 -0.10414817628E+04  0.10414817628E+04  0.00000000000E+00 0.  1.
         25    2    1    2    0    0  0.55355637526E+02 -0.66169955233E+02 -0.51815908536E+03  0.53998050336E+03  0.12508955469E+03 0.  0.
          5    1    3    3  502    0  0.15466772959E+02 -0.90294448964E+02 -0.22278128180E+03  0.24091758031E+03  0.41800000000E+01 0. -1.
         -5    1    3    3    0  502  0.39888864567E+02  0.24124493731E+02 -0.29537780355E+03  0.29906292306E+03  0.41800000000E+01 0. -1.
        -11    1    1    2    0    0 -0.68094845194E+02  0.25834051968E+02 -0.40831154630E+03  0.41475610306E+03  0.00000000000E+00 0.  1.
         11    1    1    2    0    0  0.12739207668E+02  0.40335903265E+02 -0.96443901521E+02  0.10531238600E+03  0.00000000000E+00 0. -1.
</event>
<event>
 7    1  0.2856214E-009  0.1112314E+03  0.7561462E-02  0.1258306E+00
         -3   -1    0    0    0  501 -0.00000000000E+00  0.00000000000E+00  0.41806041874E+03  0.41806041874E+03  0.00000000000E+00 0.  1.
          3   -1    0    0  501    0  0.00000000000E+00 -0.00000000000E+00 -0.30514704493E+02  0.30514704493E+02  0.00000000000E+00 0. -1.
         25    2    1    2    0    0  0.12861333930E+02 -0.27307689702E+02  0.25162722962E+03  0.28262157018E+03  0.12509022909E+03 0.  0.
          5    1    3    3  502    0  0.31822887234E+02  0.43986729898E+02  0.11696866679E+03  0.12902197476E+03  0.41800000000E+01 0. -1.
         -5    1    3    3    0  502 -0.18961553304E+02 -0.71294419599E+02  0.13465856283E+03  0.15359959542E+03  0.41800000000E+01 0. -1.
        -11    1    1    2    0    0 -0.44714439224E+02  0.39841694063E+02  0.98169814640E+02  0.11499588761E+03  0.00000000000E+00 0.  1.
         11    1    1    2    0    0  0.31853105293E+02 -0.12534004361E+02  0.37748669989E+02  0.50957665450E+02  0.00000000000E+00 0. -1.
</event>
<event>
 7    1  0.2856214E-009  0.1124656E+03  0.7561462E-02  0.1256071E+00
          1   -1    0    0  501    0  0.00000000000E+00  0.00000000000E+00  0.26618266459E+02  0.26618266459E+02  0.00000000000E+00 0. -1.
         -1   -1    0    0    0  501 -0.00000000000E+00 -0.00000000000E+00 -0.65517174496E+03  0.65517174496E+03  0.00000000000E+00 0.  1.
         25    2    1    2    0    0 -0.45833643134E+02 -0.92349406522E+01 -0.49101482054E+03  0.50885021030E+03  0.12508787135E+03 0.  0.
          5    1    3    3  502    0 -0.56092281688E+02  0.40416038695E+02 -0.38597092439E+03  0.39213623542E+03  0.41800000000E+01 0.  1.
         -5    1    3    3    0  502  0.10258638554E+02 -0.49650979347E+02 -0.10504389615E+03  0.11671397489E+03  0.41800000000E+01 0.  1.
        -11    1    1    2    0    0  0.32140723415E+02  0.51312620222E+02 -0.81878195102E+02  0.10183344209E+03  0.00000000000E+00 0.  1.
         11    1    1    2    0    0  0.13692919719E+02 -0.42077679570E+02 -0.55660462859E+02  0.71106359027E+02  0.00000000000E+00 0. -1.
</event>
<event>
 7    1  0.2856214E-009  0.1085204E+03  0.7561462E-02  0.1263335E+00
         -1   -1    0    0    0  501 -0.00000000000E+00  0.00000000000E+00  0.88732960004E+02  0.88732960004E+02  0.00000000000E+00 0.  1.
          1   -1    0    0  501    0  0.00000000000E+00 -0.00000000000E+00 -0.14325601364E+03  0.14325601364E+03  0.00000000000E+00 0. -1.
         25    2    1    2    0    0 -0.93894515331E+01  0.25121222378E+02 -0.42666462202E+02  0.13485893334E+03  0.12508903745E+03 0.  0.
          5    1    3    3  502    0 -0.18466358428E+02 -0.49165420588E+02 -0.22102344440E+02  0.57133449090E+02  0.41800000000E+01 0. -1.
         -5    1    3    3    0  502  0.90769068946E+01  0.74286642967E+02 -0.20564117763E+02  0.77725484247E+02  0.41800000000E+01 0. -1.
        -11    1    1    2    0    0 -0.35817711542E+02 -0.25875404808E+02  0.12302033343E+02  0.45867036731E+02  0.00000000000E+00 0.  1.
         11    1    1    2    0    0  0.45207163075E+02  0.75418243011E+00 -0.24158624777E+02  0.51263003575E+02  0.00000000000E+00 0. -1.
</event>
<event>
 7    1  0.2856214E-009  0.1870912E+03  0.7561462E-02  0.1161111E+00
         -2   -1    0    0    0  501 -0.00000000000E+00  0.00000000000E+00  0.25883162999E+02  0.25883162999E+02  0.00000000000E+00 0.  1.
          2   -1    0    0  501    0  0.00000000000E+00 -0.00000000000E+00 -0.14760323613E+04  0.14760323613E+04  0.00000000000E+00 0. -1.
         25    2    1    2    0    0  0.15601982383E+03  0.61113839905E+02 -0.81381220996E+03  0.84024741605E+03  0.12509324614E+03 0.  0.
          5    1    3    3  502    0 -0.45069665239E+01 -0.17980336298E+02 -0.19904252825E+03  0.19994750735E+03  0.41800000000E+01 0.  1.
         -5    1    3    3    0  502  0.16052679035E+03  0.79094176204E+02 -0.61476968171E+03  0.64029990870E+03  0.41800000000E+01 0.  1.
        -11    1    1    2    0    0 -0.73540477731E+02 -0.28457376925E-01 -0.19128393746E+03  0.20493351948E+03  0.00000000000E+00 0. -1.
         11    1    1    2    0    0 -0.82479346097E+02 -0.61085382529E+02 -0.44505305093E+03  0.45673458883E+03  0.00000000000E+00 0.  1.
</event>
<event>
 7    1  0.2856214E-009  0.7799280E+02  0.7561462E-02  0.1334846E+00
         -1   -1    0    0    0  501 -0.00000000000E+00  0.00000000000E+00  0.12155373211E+02  0.12155373211E+02  0.00000000000E+00 0.  1.
          1   -1    0    0  501    0  0.00000000000E+00 -0.00000000000E+00 -0.10270261181E+04  0.10270261181E+04  0.00000000000E+00 0. -1.
         25    2    1    2    0    0  0.76908698028E+01 -0.17027568074E+02 -0.73771672735E+03  0.74848029273E+03  0.12509073208E+03 0.  0.
          5    1    3    3  502    0 -0.29228893064E+02 -0.26387431494E+02 -0.66594262532E+03  0.66711893793E+03  0.41800000000E+01 0.  1.
         -5    1    3    3    0  502  0.36919762867E+02  0.93598634191E+01 -0.71774102024E+02  0.81361354799E+02  0.41800000000E+01 0.  1.
        -11    1    1    2    0    0  0.20004601828E+02  0.38258657894E+02 -0.84266861109E+02  0.94682695775E+02  0.00000000000E+00 0.  1.
         11    1    1    2    0    0 -0.27695471630E+02 -0.21231089819E+02 -0.19288715644E+03  0.19601850281E+03  0.00000000000E+00 0. -1.
</event>
<event>
 7    1  0.2856214E-009  0.1046226E+03  0.7561462E-02  0.1270865E+00
         -1   -1    0    0    0  501 -0.00000000000E+00  0.00000000000E+00  0.31575149566E+02  0.31575149566E+02  0.00000000000E+00 0.  1.
          1   -1    0    0  501    0  0.00000000000E+00 -0.00000000000E+00 -0.54440654321E+03  0.54440654321E+03  0.00000000000E+00 0. -1.
         25    2    1    2    0    0  0.36133666784E+02  0.50658203191E+02 -0.45874490386E+03  0.47954884449E+03  0.12509321328E+03 0.  0.
          5    1    3    3  502    0 -0.41351439383E+02 -0.80625044657E+01 -0.14594940945E+03  0.15196594367E+03  0.41800000000E+01 0.  1.
         -5    1    3    3    0  502  0.77485106167E+02  0.58720707657E+02 -0.31279549441E+03  0.32758290082E+03  0.41800000000E+01 0.  1.
        -11    1    1    2    0    0 -0.10066587069E+02 -0.40314689798E+02 -0.77477277085E+01  0.42268636994E+02  0.00000000000E+00 0.  1.
         11    1    1    2    0    0 -0.26067079715E+02 -0.10343513394E+02 -0.46338762077E+02  0.54164211294E+02  0.00000000000E+00 0. -1.
</event>
<event>
 7    1  0.2856214E-009  0.1792752E+03  0.7561462E-02  0.1168506E+00
          1   -1    0    0  501    0  0.00000000000E+00  0.00000000000E+00  0.12646896036E+04  0.12646896036E+04  0.00000000000E+00 0. -1.
         -1   -1    0    0    0  501 -0.00000000000E+00 -0.00000000000E+00 -0.45650863596E+02  0.45650863596E+02  0.00000000000E+00 0.  1.
         25    2    1    2    0    0  0.14022439561E+03 -0.99802948968E+02  0.97669657632E+03  0.99960339547E+03  0.12508891358E+03 0.  0.
          5    1    3    3  502    0  0.73011506931E+02 -0.31683373967E+02  0.17608469480E+03  0.19328168168E+03  0.41800000000E+01 0. -1.
         -5    1    3    3    0  502  0.67212888674E+02 -0.68119575001E+02  0.80061188152E+03  0.80632171380E+03  0.41800000000E+01 0. -1.
        -11    1    1    2    0    0 -0.10045967561E+03  0.10209490616E+03  0.22625284206E+03  0.26777950786E+03  0.00000000000E+00 0. -1.
         11    1    1    2    0    0 -0.39764719999E+02 -0.22919571897E+01  0.16089321642E+02  0.42957563889E+02  0.00000000000E+00 0.  1.
</event>
<event>
 7    1  0.2856214E-009  0.1288530E+03  0.7561462E-02  0.1229168E+00
          2   -1    0    0  501    0  0.00000000000E+00  0.00000000000E+00  0.23611110659E+03  0.23611110659E+03  0.00000000000E+00 0. -1.
         -2   -1    0    0    0  501 -0.00000000000E+00 -0.00000000000E+00 -0.12174299300E+03  0.12174299300E+03  0.00000000000E+00 0.  1.
         25    2    1    2    0    0 -0.10781231859E+03 -0.50477078480E+02  0.11570472565E+03  0.20787361631E+03  0.12510965322E+03 0.  0.
          5    1    3    3  502    0  0.33133633812E+01  0.90048766019E+01  0.74453361450E+02  0.75185381629E+02  0.41800000000E+01 0. -1.
         -5    1    3    3    0  502 -0.11112568197E+03 -0.59481955082E+02  0.41251364199E+02  0.13268823468E+03  0.41800000000E+01 0. -1.
        -11    1    1    2    0    0  0.20347652847E+02  0.42217237529E+00 -0.37702493810E+02  0.42844874203E+02  0.00000000000E+00 0.  1.
         11    1    1    2    0    0  0.87464665744E+02  0.50054906105E+02  0.36365881752E+02  0.10713560909E+03  0.00000000000E+00 0. -1.
</event>
<event>
 7    1  0.2856214E-009  0.1446594E+03  0.7561462E-02  0.1207193E+00
          2   -1    0    0  501    0  0.00000000000E+00  0.00000000000E+00  0.89568684076E+03  0.89568684076E+03  0.00000000000E+00 0. -1.
         -2   -1    0    0    0  501 -0.00000000000E+00 -0.00000000000E+00 -0.29681287779E+02  0.29681287779E+02  0.00000000000E+00 0.  1.
         25    2    1    2    0    0  0.10813288682E+03  0.54526894772E+02  0.46210915476E+03  0.49382035706E+03  0.12509104955E+03 0.  0.
          5    1    3    3  502    0  0.11853188150E+03  0.52102021035E+02  0.25153480306E+03  0.28293401541E+03  0.41800000000E+01 0. -1.
         -5    1    3    3    0  502 -0.10398994679E+02  0.24248737370E+01  0.21057435169E+03  0.21088634165E+03  0.41800000000E+01 0. -1.
        -11    1    1    2    0    0 -0.33696299445E+02 -0.64924074187E+02  0.24655437644E+03  0.25717627524E+03  0.00000000000E+00 0. -1.
         11    1    1    2    0    0 -0.74436587373E+02  0.10397179415E+02  0.15734202178E+03  0.17437149623E+03  0.00000000000E+00 0.  1.
</event>
<event>
 7    1  0.2856214E-009  0.7280358E+02  0.7561462E-02  0.1350811E+00
         -2   -1    0    0    0  501 -0.00000000000E+00  0.00000000000E+00  0.15200187979E+03  0.15200187979E+03  0.00000000000E+00 0.  1.
          2   -1    0    0  501    0  0.00000000000E+00 -0.00000000000E+00 -0.11902734563E+03  0.11902734563E+03  0.00000000000E+00 0. -1.
         25    2    1    2    0    0  0.28527581186E+02 -0.56162777247E+02  0.61056936211E+02  0.15278433217E+03  0.12508805802E+03 0.  0.
          5    1    3    3  502    0  0.30328125454E+02 -0.54592781251E+02 -0.24409563858E+02  0.67182335223E+02  0.41800000000E+01 0. -1.
         -5    1    3    3    0  502 -0.18005442679E+01 -0.15699959959E+01  0.85466500069E+02  0.85601996946E+02  0.41800000000E+01 0. -1.
        -11    1    1    2    0    0  0.49922307650E+01  0.41187139923E+02  0.28827500014E+02  0.50520566308E+02  0.00000000000E+00 0.  1.
         11    1    1    2    0    0 -0.33519811951E+02  0.14975637324E+02 -0.56909902065E+02  0.67724326941E+02  0.00000000000E+00 0. -1.
</event>
<event>
 7    1  0.2856214E-009  0.2050470E+03  0.7561462E-02  0.1145549E+00
          1   -1    0    0  501    0  0.00000000000E+00  0.00000000000E+00  0.28956411216E+03  0.28956411216E+03  0.00000000000E+00 0. -1.
         -1   -1    0    0    0  501 -0.00000000000E+00 -0.00000000000E+00 -0.23277175457E+03  0.23277175457E+03  0.00000000000E+00 0.  1.
         25    2    1    2    0    0 -0.18279959740E+03  0.80622165245E+02 -0.95369703875E+02  0.25427995961E+03  0.12508913264E+03 0.  0.
          5    1    3    3  502    0 -0.10035907344E+03  0.70779828040E+02 -0.11561537177E+03  0.16871903944E+03  0.41800000000E+01 0. -1.
         -5    1    3    3    0  502 -0.82440523956E+02  0.98423372052E+01  0.20245667900E+02  0.85560920171E+02  0.41800000000E+01 0. -1.
        -11    1    1    2    0    0  0.93263515983E+02 -0.18428521275E+02  0.12252709094E+03  0.15508250006E+03  0.00000000000E+00 0. -1.
         11    1    1    2    0    0  0.89536081415E+02 -0.62193643970E+02  0.29634970517E+02  0.11297340706E+03  0.00000000000E+00 0.  1.
</event>
<event>
 7    1  0.2856214E-009  0.2158156E+03  0.7561462E-02  0.1137042E+00
          2   -1    0    0  501    0  0.00000000000E+00  0.00000000000E+00  0.17811582945E+04  0.17811582945E+04  0.00000000000E+00 0. -1.
         -2   -1    0    0    0  501 -0.00000000000E+00 -0.00000000000E+00 -0.30452708418E+02  0.30452708418E+02  0.00000000000E+00 0.  1.
         25    2    1    2    0    0  0.20477434790E+03 -0.19637176727E+02  0.93875647979E+03  0.96913839107E+03  0.12508932981E+03 0.  0.
          5    1    3    3  502    0  0.94044023156E+02 -0.21190820062E+02  0.19936995085E+03  0.22149306727E+03  0.41800000000E+01 0. -1.
         -5    1    3    3    0  502  0.11073032475E+03  0.15536433354E+01  0.73938652894E+03  0.74764532380E+03  0.41800000000E+01 0. -1.
        -11    1    1    2    0    0 -0.93132577559E+02  0.53814790056E+02  0.36427655131E+03  0.37982511036E+03  0.00000000000E+00 0.  1.
         11    1    1    2    0    0 -0.11164177035E+03 -0.34177613330E+02  0.44767255495E+03  0.46264750144E+03  0.00000000000E+00 0. -1.
</event>
<event>
 7    1  0.2856214E-009  0.1416971E+03  0.7561462E-02  0.1211064E+00
          3   -1    0    0  501    0  0.00000000000E+00  0.00000000000E+00  0.10909339841E+03  0.10909339841E+03  0.00000000000E+00 0. -1.
         -3   -1    0    0    0  501 -0.00000000000E+00 -0.00000000000E+00 -0.33990421325E+03  0.33990421325E+03  0.00000000000E+00 0.  1.
         25    2    1    2    0    0  0.81691722026E+02  0.93851230902E+02 -0.23806287886E+03  0.29631542953E+03  0.12508920214E+03 0.  0.
          5    1    3    3  502    0  0.12267415328E+01  0.47693600392E+02 -0.18121783444E+03  0.18743948445E+03  0.41800000000E+01 0.  1.
         -5    1    3    3    0  502  0.80464980493E+02  0.46157630510E+02 -0.56845044428E+02  0.10887594508E+03  0.41800000000E+01 0.  1.
        -11    1    1    2    0    0  0.57445741481E+01 -0.39013343937E+02  0.26744335497E+02  0.47647671700E+02  0.00000000000E+00 0. -1.
         11    1    1    2    0    0 -0.87436296174E+02 -0.54837886965E+02 -0.19492271464E+02  0.10503451043E+03  0.00000000000E+00 0.  1.
</event>
<event>
 7    1  0.2856214E-009  0.1333940E+03  0.7561462E-02  0.1222505E+00
         -2   -1    0    0    0  501 -0.00000000000E+00  0.00000000000E+00  0.20989689619E+02  0.20989689619E+02  0.00000000000E+00 0.  1.
          2   -1    0    0  501    0  0.00000000000E+00 -0.00000000000E+00 -0.12347953788E+04  0.12347953788E+04  0.00000000000E+00 0. -1.
         25    2    1    2    0    0  0.10872768301E+03 -0.27801380448E+02 -0.80017151418E+03  0.81762857143E+03  0.12508957957E+03 0.  0.
          5    1    3    3  502    0  0.11604816576E+03 -0.14891320549E+02 -0.39062615984E+03  0.40779308154E+03  0.41800000000E+01 0.  1.
         -5    1    3    3    0  502 -0.73204827500E+01 -0.12910059899E+02 -0.40954535433E+03  0.40983548989E+03  0.41800000000E+01 0.  1.
        -11    1    1    2    0    0 -0.33720370420E+02  0.46072865979E+02 -0.26025658208E+03  0.26644560585E+03  0.00000000000E+00 0.  1.
         11    1    1    2    0    0 -0.75007312587E+02 -0.18271485531E+02 -0.15337759297E+03  0.17171089118E+03  0.00000000000E+00 0. -1.
</event>
<event>
 7    1  0.2856214E-009  0.1299042E+03  0.7561462E-02  0.1227598E+00
          1   -1    0    0  501    0  0.00000000000E+00  0.00000000000E+00  0.22023265243E+03  0.22023265243E+03  0.00000000000E+00 0. -1.
         -1   -1    0    0    0  501 -0.00000000000E+00 -0.00000000000E+00 -0.97957510571E+02  0.97957510571E+02  0.00000000000E+00 0.  1.
         25    2    1    2    0    0 -0.23003252551E+02  0.88632777073E+02  0.92662473568E+02  0.18060537754E+03  0.12508816726E+03 0.  0.
          5    1    3    3  502    0 -0.35169429852E+02  0.11296640801E+03  0.47180636317E+02  0.12744325395E+03  0.41800000000E+01 0. -1.
         -5    1    3    3    0  502  0.12166177300E+02 -0.24333630936E+02  0.45481837251E+02  0.53162123588E+02  0.41800000000E+01 0. -1.
        -11    1    1    2    0    0 -0.19445905115E+02 -0.49565253222E+01  0.38419368629E+02  0.43344645054E+02  0.00000000000E+00 0. -1.
         11    1    1    2    0    0  0.42449157666E+02 -0.83676251751E+02 -0.88067003354E+01  0.94240140410E+02  0.00000000000E+00 0.  1.
</event>
<event>
 7    1  0.2856214E-009  0.1039637E+03  0.7561462E-02  0.1272175E+00
          1   -1    0    0  501    0  0.00000000000E+00  0.00000000000E+00  0.20259423968E+03  0.20259423968E+03  0.00000000000E+00 0. -1.
         -1   -1    0    0    0  501 -0.00000000000E+00 -0.00000000000E+00 -0.78591475775E+02  0.78591475775E+02  0.00000000000E+00 0.  1.
         25    2    1    2    0    0  0.10417149912E+02 -0.30149126678E+02  0.65260192522E+01  0.12926141143E+03  0.12509371169E+03 0.  0.
          5    1    3    3  502    0 -0.14471796557E+02  0.40188032011E+02  0.28320588542E+02  0.51420219252E+02  0.41800000000E+01 0. -1.
         -5    1    3    3    0  502  0.24888946468E+02 -0.70337158689E+02 -0.21794569290E+02  0.77841192176E+02  0.41800000000E+01 0. -1.
        -11    1    1    2    0    0  0.31921016490E+02  0.35344595454E+02  0.35112613180E+02  0.59169986698E+02  0.00000000000E+00 0.  1.
         11    1    1    2    0    0 -0.42338166401E+02 -0.51954687760E+01  0.82364131476E+02  0.92754317332E+02  0.00000000000E+00 0. -1.
</event>
<event>
 7    1  0.2856214E-009  0.1158439E+03  0.7561462E-02  0.1250115E+00
          1   -1    0    0  501    0  0.00000000000E+00  0.00000000000E+00  0.10837391361E+03  0.10837391361E+03  0.00000000000E+00 0. -1.
         -1   -1    0    0    0  501 -0.00000000000E+00 -0.00000000000E+00 -0.19799478827E+03  0.19799478827E+03  0.00000000000E+00 0.  1.
         25    2    1    2    0    0 -0.87438672772E+02 -0.34564367089E+02 -0.76657834077E+02  0.17426663374E+03  0.12510882919E+03 0.  0.
          5    1    3    3  502    0  0.16079502143E+01  0.54081266298E+00  0.30322518678E+02  0.30656247670E+02  0.41800000000E+01 0. -1.
         -5    1    3    3    0  502 -0.89046622987E+02 -0.35105179752E+02 -0.10698035276E+03  0.14361038607E+03  0.41800000000E+01 0. -1.
        -11    1    1    2    0    0  0.15746000964E+02  0.54684547150E+02 -0.31200863337E+01  0.56991851893E+02  0.00000000000E+00 0.  1.
         11    1    1    2    0    0  0.71692671808E+02 -0.20120180061E+02 -0.98429542497E+01  0.75110216249E+02  0.00000000000E+00 0. -1.
</event>
<event>
 7    1  0.2856214E-009  0.1275881E+03  0.7561462E-02  0.1231079E+00
          2   -1    0    0  501    0  0.00000000000E+00  0.00000000000E+00  0.63948403486E+03  0.63948403486E+03  0.00000000000E+00 0. -1.
         -2   -1    0    0    0  501 -0.00000000000E+00 -0.00000000000E+00 -0.30936555292E+02  0.30936555292E+02  0.00000000000E+00 0.  1.
         25    2    1    2    0    0 -0.55641652999E+02 -0.32066440988E+02  0.46233180007E+03  0.48323707775E+03  0.12507249806E+03 0.  0.
          5    1    3    3  502    0 -0.19988066408E+02 -0.77996613301E+02  0.30417580576E+03  0.31467981775E+03  0.41800000000E+01 0. -1.
         -5    1    3    3    0  502 -0.35653586591E+02  0.45930172313E+02  0.15815599431E+03  0.16855726001E+03  0.41800000000E+01 0.  1.
        -11    1    1    2    0    0 -0.89367143033E+01  0.48746295411E+02  0.71918691661E+02  0.87340508294E+02  0.00000000000E+00 0.  1.
         11    1    1    2    0    0  0.64578367302E+02 -0.16679854423E+02  0.74296987836E+02  0.99843004104E+02  0.00000000000E+00 0. -1.
</event>
<event>
 7    1  0.2856214E-009  0.2659533E+03  0.7561462E-02  0.1103618E+00
         -2   -1    0    0    0  501 -0.00000000000E+00  0.00000000000E+00  0.17074895287E+03  0.17074895287E+03  0.00000000000E+00 0.  1.
          2   -1    0    0  501    0  0.00000000000E+00 -0.00000000000E+00 -0.62695901176E+03  0.62695901176E+03  0.00000000000E+00 0. -1.
         25    2    1    2    0    0  0.17487521082E+03  0.17090143390E+03 -0.46181676613E+03  0.53731802403E+03  0.12508914420E+03 0.  0.
          5    1    3    3  502    0  0.12570365113E+03  0.18414176644E+03 -0.36168495868E+03  0.42490361235E+03  0.41800000000E+01 0.  1.
         -5    1    3    3    0  502  0.49171559686E+02 -0.13240332547E+02 -0.10013180745E+03  0.11241441167E+03  0.41800000000E+01 0.  1.
        -11    1    1    2    0    0 -0.97795929753E+02 -0.39490440149E+02  0.20054471987E+02  0.10735790882E+03  0.00000000000E+00 0. -1.
         11    1    1    2    0    0 -0.77079281064E+02 -0.13141099375E+03 -0.14447764745E+02  0.15303203179E+03  0.00000000000E+00 0.  1.
</event>
<event>
 7    1  0.2856214E-009  0.9899008E+02  0.7561462E-02  0.1282434E+00
         -1   -1    0    0    0  501 -0.00000000000E+00  0.00000000000E+00  0.37590400992E+02  0.37590400992E+02  0.00000000000E+00 0.  1.
          1   -1    0    0  501    0  0.00000000000E+00 -0.00000000000E+00 -0.33516377074E+03  0.33516377074E+03  0.00000000000E+00 0. -1.
         25    2    1    2    0    0 -0.19695025331E+02 -0.50912842020E+01 -0.13225390575E+03  0.18317440940E+03  0.12509178020E+03 0.  0.
          5    1    3    3  502    0 -0.13050307494E+02  0.52564172989E+02 -0.22194912881E+02  0.58680400182E+02  0.41800000000E+01 0.  1.
         -5    1    3    3    0  502 -0.66447178369E+01 -0.57655457191E+02 -0.11005899287E+03  0.12449400922E+03  0.41800000000E+01 0.  1.
        -11    1    1    2    0    0 -0.20177577306E+02  0.31670614925E+02 -0.11081855349E+03  0.11700818037E+03  0.00000000000E+00 0. -1.
         11    1    1    2    0    0  0.39872602637E+02 -0.26579330723E+02 -0.54500910503E+02  0.72571581961E+02  0.00000000000E+00 0.  1.
</event>
<event>
 7    1  0.2856214E-009  0.1235945E+03  0.7561462E-02  0.1237282E+00
          2   -1    0    0  501    0  0.00000000000E+00  0.00000000000E+00  0.20285046168E+03  0.20285046168E+03  0.00000000000E+00 0. -1.
         -2   -1    0    0    0  501 -0.00000000000E+00 -0.00000000000E+00 -0.11471931346E+03  0.11471931346E+03  0.00000000000E+00 0.  1.
         25    2    1    2    0    0  0.49543345116E+02 -0.86996767539E+02  0.10724356109E+02  0.16057714058E+03  0.12508807159E+03 0.  0.
          5    1    3    3  502    0  0.61874842234E+02 -0.73940956093E+02  0.56080260177E+02  0.11161643728E+03  0.41800000000E+01 0.  1.
         -5    1    3    3    0  502 -0.12331497119E+02 -0.13055811447E+02 -0.45355904067E+02  0.48960703299E+02  0.41800000000E+01 0.  1.
        -11    1    1    2    0    0 -0.38869009776E+02 -0.53923642299E+01  0.59111711373E+01  0.39683994975E+02  0.00000000000E+00 0.  1.
         11    1    1    2    0    0 -0.10674335340E+02  0.92389131769E+02  0.71495620977E+02  0.11730863959E+03  0.00000000000E+00 0. -1.
</event>
<event>
 7    1  0.2856214E-009  0.1742016E+03  0.7561462E-02  0.1173536E+00
          1   -1    0    0  501    0  0.00000000000E+00  0.00000000000E+00  0.11327546773E+04  0.11327546773E+04  0.00000000000E+00 0. -1.
         -1   -1    0    0    0  501 -0.00000000000E+00 -0.00000000000E+00 -0.36325290968E+02  0.36325290968E+02  0.00000000000E+00 0.  1.
         25    2    1    2    0    0  0.12683785221E+03  0.86230275202E+02  0.35204688331E+03  0.40386687453E+03  0.12509173906E+03 0.  0.
          5    1    3    3  502    0  0.73412000534E+02  0.11180035599E+03  0.28129372735E+03  0.31150003991E+03  0.41800000000E+01 0. -1.
         -5    1    3    3    0  502  0.53425851673E+02 -0.25570080788E+02  0.70753155962E+02  0.92366834617E+02  0.41800000000E+01 0. -1.
        -11    1    1    2    0    0 -0.11616876040E+02 -0.55632498840E+00  0.61674145848E+01  0.13164281564E+02  0.00000000000E+00 0. -1.
         11    1    1    2    0    0 -0.11522097617E+03 -0.85673950213E+02  0.73821508843E+03  0.75204881217E+03  0.00000000000E+00 0.  1.
</event>
<event>
 7    1  0.2856214E-009  0.8338617E+02  0.7561462E-02  0.1319708E+00
          1   -1    0    0  501    0  0.00000000000E+00  0.00000000000E+00  0.98041657108E+02  0.98041657108E+02  0.00000000000E+00 0. -1.
         -1   -1    0    0    0  501 -0.00000000000E+00 -0.00000000000E+00 -0.26826308445E+03  0.26826308445E+03  0.00000000000E+00 0.  1.
         25    2    1    2    0    0  0.34792790994E+02 -0.10356154446E+02 -0.21954136351E+03  0.25526973385E+03  0.12508572455E+03 0.  0.
          5    1    3    3  502    0 -0.42629980553E+02 -0.56523985081E+01 -0.36982728964E+02  0.56872308661E+02  0.41800000000E+01 0.  1.
         -5    1    3    3    0  502  0.77422771546E+02 -0.47037559377E+01 -0.18255863455E+03  0.19839742519E+03  0.41800000000E+01 0.  1.
        -11    1    1    2    0    0 -0.11800213956E+02 -0.97791029479E+01 -0.25759199531E+02  0.29973526058E+02  0.00000000000E+00 0.  1.
         11    1    1    2    0    0 -0.22992577038E+02  0.20135257394E+02  0.75079135703E+02  0.81061481648E+02  0.00000000000E+00 0. -1.
</event>
<event>
 7    1  0.2856214E-009  0.2661166E+03  0.7561462E-02  0.1103523E+00
          1   -1    0    0  501    0  0.00000000000E+00  0.00000000000E+00  0.12210747377E+04  0.12210747377E+04  0.00000000000E+00 0. -1.
         -1   -1    0    0    0  501 -0.00000000000E+00 -0.00000000000E+00 -0.94226203812E+02  0.94226203812E+02  0.00000000000E+00 0.  1.
         25    2    1    2    0    0 -0.21872358200E+03 -0.12288210475E+03  0.18353775015E+03  0.33507510931E+03  0.12509678716E+03 0.  0.
          5    1    3    3  502    0 -0.16615214677E+03 -0.45020884306E+02  0.16645519500E+03  0.23949576247E+03  0.41800000000E+01 0.  1.
         -5    1    3    3    0  502 -0.52571435227E+02 -0.77861220447E+02  0.17082555150E+02  0.95579346837E+02  0.41800000000E+01 0.  1.
        -11    1    1    2    0    0  0.73127131193E+02 -0.34863164403E+01  0.23427146760E+03  0.24544419376E+03  0.00000000000E+00 0. -1.
         11    1    1    2    0    0  0.14559645081E+03  0.12636842119E+03  0.70903931618E+03  0.73478163849E+03  0.00000000000E+00 0.  1.
</event>
<event>
 7    1  0.2856214E-009  0.1145678E+03  0.7561462E-02  0.1252337E+00
          2   -1    0    0  501    0  0.00000000000E+00  0.00000000000E+00  0.81301082670E+03  0.81301082670E+03  0.00000000000E+00 0. -1.
         -2   -1    0    0    0  501 -0.00000000000E+00 -0.00000000000E+00 -0.22347030524E+02  0.22347030524E+02  0.00000000000E+00 0.  1.
         25    2    1    2    0    0  0.85584661205E+01 -0.65666298898E+02  0.58074764148E+03  0.59774638173E+03  0.12509038183E+03 0.  0.
          5    1    3    3  502    0 -0.27790744872E+02  0.28512912751E+02  0.18750140787E+03  0.19172783327E+03  0.41800000000E+01 0. -1.
         -5    1    3    3    0  502  0.36349210993E+02 -0.94179211649E+02  0.39324623361E+03  0.40601854846E+03  0.41800000000E+01 0. -1.
        -11    1    1    2    0    0  0.25059682464E+02  0.27808526013E+02  0.16728985048E+03  0.17142694035E+03  0.00000000000E+00 0. -1.
         11    1    1    2    0    0 -0.33618148584E+02  0.37857772885E+02  0.42626304219E+02  0.66184535153E+02  0.00000000000E+00 0.  1.
</event>
<event>
 7    1  0.2856214E-009  0.1416146E+03  0.7561462E-02  0.1211173E+00
          1   -1    0    0  501    0  0.00000000000E+00  0.00000000000E+00  0.47318002797E+02  0.47318002797E+02  0.00000000000E+00 0. -1.
         -1   -1    0    0    0  501 -0.00000000000E+00 -0.00000000000E+00 -0.45531755963E+03  0.45531755963E+03  0.00000000000E+00 0.  1.
         25    2    1    2    0    0  0.50721904851E+02  0.84205386654E+02 -0.23316835696E+03  0.28227432243E+03  0.12509217260E+03 0.  0.
          5    1    3    3  502    0 -0.28485092887E+02  0.73503317828E+02 -0.12123458764E+03  0.14467009328E+03  0.41800000000E+01 0.  1.
         -5    1    3    3    0  502  0.79206997738E+02  0.10702068825E+02 -0.11193376931E+03  0.13760422915E+03  0.41800000000E+01 0.  1.
        -11    1    1    2    0    0 -0.69619967260E+02 -0.51940238930E+02 -0.78689059191E+02  0.11720365309E+03  0.00000000000E+00 0. -1.
         11    1    1    2    0    0  0.18898062409E+02 -0.32265147724E+02 -0.96142140681E+02  0.10315758690E+03  0.00000000000E+00 0.  1.
</event>
<event>
 7    1  0.2856214E-009  0.2035568E+03  0.7561462E-02  0.1146772E+00
         -3   -1    0    0    0  501 -0.00000000000E+00  0.00000000000E+00  0.24376085495E+03  0.24376085495E+03  0.00000000000E+00 0.  1.
          3   -1    0    0  501    0  0.00000000000E+00 -0.00000000000E+00 -0.19697326660E+03  0.19697326660E+03  0.00000000000E+00 0. -1.
         25    2    1    2    0    0  0.97433080925E+02  0.15611402671E+03  0.71284133407E+02  0.23365390817E+03  0.12509167252E+03 0.  0.
          5    1    3    3  502    0  0.21341363692E+02 -0.66894850853E+01  0.47061192849E+02  0.52272662906E+02  0.41800000000E+01 0.  1.
         -5    1    3    3    0  502  0.76091717233E+02  0.16280351179E+03  0.24222940557E+02  0.18138124526E+03  0.41800000000E+01 0.  1.
        -11    1    1    2    0    0  0.16361319095E+02 -0.91875024433E+01  0.36633303026E+01  0.19118654570E+02  0.00000000000E+00 0.  1.
         11    1    1    2    0    0 -0.11379440002E+03 -0.14692652426E+03 -0.28159875356E+02  0.18796155881E+03  0.00000000000E+00 0. -1.
</event>
<event>
 7    1  0.2856214E-009  0.1190011E+03  0.7561462E-02  0.1244754E+00
         -2   -1    0    0    0  501 -0.00000000000E+00  0.00000000000E+00  0.47010422599E+03  0.47010422599E+03  0.00000000000E+00 0.  1.
          2   -1    0    0  501    0  0.00000000000E+00 -0.00000000000E+00 -0.46028431627E+02  0.46028431627E+02  0.00000000000E+00 0. -1.
         25    2    1    2    0    0  0.66567103543E+02 -0.80209770616E+01  0.35782215852E+03  0.38494062014E+03  0.12508824309E+03 0.  0.
          5    1    3    3  502    0  0.25173064831E+02 -0.55859986913E+02  0.26832205215E+03  0.27526027211E+03  0.41800000000E+01 0. -1.
         -5    1    3    3    0  502  0.41394038712E+02  0.47839009852E+02  0.89500106373E+02  0.10968034804E+03  0.41800000000E+01 0. -1.
        -11    1    1    2    0    0 -0.82766548915E+02 -0.15919746979E+02  0.50904000201E+02  0.98462973750E+02  0.00000000000E+00 0.  1.
         11    1    1    2    0    0  0.16199445372E+02  0.23940724041E+02  0.15349635637E+02  0.32729063723E+02  0.00000000000E+00 0. -1.
</event>
<event>
 7    1  0.2856214E-009  0.8842748E+02  0.7561462E-02  0.1306705E+00
          2   -1    0    0  501    0  0.00000000000E+00  0.00000000000E+00  0.33476237229E+02  0.33476237229E+02  0.00000000000E+00 0. -1.
         -2   -1    0    0    0  501 -0.00000000000E+00 -0.00000000000E+00 -0.29054560745E+03  0.29054560745E+03  0.00000000000E+00 0.  1.
         25    2    1    2    0    0 -0.14142535286E+02 -0.33410405475E+02 -0.15692532415E+03  0.20393338143E+03  0.12508796985E+03 0.  0.
          5    1    3    3  502    0 -0.63648604578E+02  0.27884555816E+01 -0.52067955375E+02  0.82386071190E+02  0.41800000000E+01 0.  1.
         -5    1    3    3    0  502  0.49506069291E+02 -0.36198861057E+02 -0.10485736878E+03  0.12154731024E+03  0.41800000000E+01 0.  1.
        -11    1    1    2    0    0 -0.11958481210E+02  0.50123010614E+01 -0.69849528574E+02  0.71042839729E+02  0.00000000000E+00 0.  1.
         11    1    1    2    0    0  0.26101016496E+02  0.28398104414E+02 -0.30294517489E+02  0.49045623518E+02  0.00000000000E+00 0. -1.
</event>
<event>
 7    1  0.2856214E-009  0.1427309E+03  0.7561462E-02  0.1209701E+00
         -1   -1    0    0    0  501 -0.00000000000E+00  0.00000000000E+00  0.25264307391E+02  0.25264307391E+02  0.00000000000E+00 0.  1.
          1   -1    0    0  501    0  0.00000000000E+00 -0.00000000000E+00 -0.89763614426E+03  0.89763614426E+03  0.00000000000E+00 0. -1.
         25    2    1    2    0    0 -0.58738450144E+01  0.99745184798E+02 -0.37718491357E+03  0.40975866749E+03  0.12510037016E+03 0.  0.
          5    1    3    3  502    0  0.52527219378E+02  0.11081004638E+02 -0.12873502656E+03  0.13954238389E+03  0.41800000000E+01 0. -1.
         -5    1    3    3    0  502 -0.58401064392E+02  0.88664180159E+02 -0.24844988701E+03  0.27021628360E+03  0.41800000000E+01 0. -1.
        -11    1    1    2    0    0  0.39038811401E+02 -0.34177433360E+02 -0.11859385883E+03  0.12944739897E+03  0.00000000000E+00 0.  1.
         11    1    1    2    0    0 -0.33164966387E+02 -0.65567751437E+02 -0.37659306447E+03  0.38369438519E+03  0.00000000000E+00 0. -1.
</event>
<event>
 7    1  0.2856214E-009  0.1528629E+03  0.7561462E-02  0.1196999E+00
         -3   -1    0    0    0  501 -0.00000000000E+00  0.00000000000E+00  0.22679710962E+03  0.22679710962E+03  0.00000000000E+00 0.  1.
          3   -1    0    0  501    0  0.00000000000E+00 -0.00000000000E+00 -0.11219429844E+03  0.11219429844E+03  0.00000000000E+00 0. -1.
         25    2    1    2    0    0 -0.69768189124E+02 -0.93946161988E+02  0.83081478971E+02  0.19037722199E+03  0.12508985945E+03 0.  0.
          5    1    3    3  502    0 -0.79595081149E+02 -0.11436404052E+03  0.46135402901E+02  0.14683480006E+03  0.41800000000E+01 0.  1.
         -5    1    3    3    0  502  0.98268920251E+01  0.20417878531E+02  0.36946076070E+02  0.43542421930E+02  0.41800000000E+01 0.  1.
        -11    1    1    2    0    0  0.51878746224E+02  0.10847297611E+03  0.35178710304E+02  0.12528101418E+03  0.00000000000E+00 0.  1.
         11    1    1    2    0    0  0.17889442900E+02 -0.14526814124E+02 -0.36573780998E+01  0.23333171890E+02  0.00000000000E+00 0. -1.
</event>
<event>
 7    1  0.2856214E-009  0.1152010E+03  0.7561462E-02  0.1251231E+00
         -2   -1    0    0    0  501 -0.00000000000E+00  0.00000000000E+00  0.51719977127E+03  0.51719977127E+03  0.00000000000E+00 0.  1.
          2   -1    0    0  501    0  0.00000000000E+00 -0.00000000000E+00 -0.26456010934E+02  0.26456010934E+02  0.00000000000E+00 0. -1.
         25    2    1    2    0    0  0.40422073941E+02  0.14267002953E+02  0.28016766365E+03  0.30980525853E+03  0.12509151461E+03 0.  0.
          5    1    3    3  502    0  0.85627373287E+02  0.13522648610E+02  0.18035191033E+03  0.20014792790E+03  0.41800000000E+01 0. -1.
         -5    1    3    3    0  502 -0.45205299346E+02  0.74435434297E+00  0.99815753318E+02  0.10965733064E+03  0.41800000000E+01 0. -1.
        -11    1    1    2    0    0 -0.31620507799E+02 -0.51235113374E+02  0.15714510662E+03  0.16828392048E+03  0.00000000000E+00 0.  1.
         11    1    1    2    0    0 -0.88015661425E+01  0.36968110421E+02  0.53430990065E+02  0.65566603191E+02  0.00000000000E+00 0. -1.
</event>
<event>
 7    1  0.2856214E-009  0.7836149E+02  0.7561462E-02  0.1333767E+00
          2   -1    0    0  501    0  0.00000000000E+00  0.00000000000E+00  0.26981182345E+03  0.26981182345E+03  0.00000000000E+00 0. -1.
         -2   -1    0    0    0  501 -0.00000000000E+00 -0.00000000000E+00 -0.62192670922E+02  0.62192670922E+02  0.00000000000E+00 0.  1.
         25    2    1    2    0    0 -0.63156901998E+02 -0.12781809796E+02  0.82766562616E+02  0.16324501906E+03  0.12508582425E+03 0.  0.
          5    1    3    3  502    0 -0.47711353170E+02  0.14730862783E+01  0.11497415531E+03  0.12455951186E+03  0.41800000000E+01 0. -1.
         -5    1    3    3    0  502 -0.15445548828E+02 -0.14254896075E+02 -0.32207592693E+02  0.38685507206E+02  0.41800000000E+01 0. -1.
        -11    1    1    2    0    0 -0.83071630103E+01  0.13566682803E+02  0.85909061319E+02  0.87369506444E+02  0.00000000000E+00 0. -1.
         11    1    1    2    0    0  0.71464065008E+02 -0.78487300704E+00  0.38943528595E+02  0.81389968870E+02  0.00000000000E+00 0.  1.
</event>
<event>
 7    1  0.2856214E-009  0.1005303E+03  0.7561462E-02  0.1279185E+00
          2   -1    0    0  501    0  0.00000000000E+00  0.00000000000E+00  0.47115857622E+03  0.47115857622E+03  0.00000000000E+00 0. -1.
         -2   -1    0    0    0  501 -0.00000000000E+00 -0.00000000000E+00 -0.31382041064E+02  0.31382041064E+02  0.00000000000E+00 0.  1.
         25    2    1    2    0    0  0.53601945782E+02 -0.20714650915E+02  0.23030575190E+03  0.26831454021E+03  0.12509871212E+03 0.  0.
          5    1    3    3  502    0 -0.10092341814E+02  0.21267515170E+02  0.16810345053E+03  0.16979518557E+03  0.41800000000E+01 0.  1.
         -5    1    3    3    0  502  0.63694287596E+02 -0.41982166085E+02  0.62202301372E+02  0.98519354634E+02  0.41800000000E+01 0.  1.
        -11    1    1    2    0    0  0.15746069733E+02  0.26856772697E+02  0.37763979697E+02  0.48942242637E+02  0.00000000000E+00 0.  1.
         11    1    1    2    0    0 -0.69348015515E+02 -0.61421217816E+01  0.17170680356E+03  0.18528383444E+03  0.00000000000E+00 0. -1.
</event>
<event>
 7    1  0.2856214E-009  0.1215539E+03  0.7561462E-02  0.1240555E+00
          2   -1    0    0  501    0  0.00000000000E+00  0.00000000000E+00  0.10482400291E+03  0.10482400291E+03  0.00000000000E+00 0. -1.
         -2   -1    0    0    0  501 -0.00000000000E+00 -0.00000000000E+00 -0.21534635712E+03  0.21534635712E+03  0.00000000000E+00 0.  1.
         25    2    1    2    0    0 -0.97729282166E+02  0.33149919195E+02 -0.49812427779E+02  0.16965233773E+03  0.12510278974E+03 0.  0.
          5    1    3    3  502    0 -0.38289071461E+02  0.17727981647E+01  0.41203960916E+02  0.56430794801E+02  0.41800000000E+01 0. -1.
         -5    1    3    3    0  502 -0.59440210705E+02  0.31377121030E+02 -0.91016388695E+02  0.11322154293E+03  0.41800000000E+01 0. -1.
        -11    1    1    2    0    0  0.28336861665E+02  0.31496707762E+02 -0.24901877347E+02  0.49143909330E+02  0.00000000000E+00 0.  1.
         11    1    1    2    0    0  0.69392420502E+02 -0.64646626956E+02 -0.35808049090E+02  0.10137411297E+03  0.00000000000E+00 0. -1.
</event>
<event>
 7    1  0.2856214E-009  0.1162993E+03  0.7561462E-02  0.1249330E+00
          1   -1    0    0  501    0  0.00000000000E+00  0.00000000000E+00  0.15930467570E+03  0.15930467570E+03  0.00000000000E+00 0. -1.
         -1   -1    0    0    0  501 -0.00000000000E+00 -0.00000000000E+00 -0.12679191871E+03  0.12679191871E+03  0.00000000000E+00 0.  1.
         25    2    1    2    0    0 -0.42733597671E+02  0.76050243936E+02  0.46306607748E+02  0.15937568615E+03  0.12508600018E+03 0.  0.
          5    1    3    3  502    0  0.16311957532E+02 -0.10438713809E+02  0.50745839041E+02  0.54476226783E+02  0.41800000000E+01 0.  1.
         -5    1    3    3    0  502 -0.59045555203E+02  0.86488957745E+02 -0.44392312923E+01  0.10489945937E+03  0.41800000000E+01 0.  1.
        -11    1    1    2    0    0  0.26495156733E+02 -0.85281216737E+02 -0.37229767294E+02  0.96751924174E+02  0.00000000000E+00 0.  1.
         11    1    1    2    0    0  0.16238440937E+02  0.92309728014E+01  0.23435916535E+02  0.29968984080E+02  0.00000000000E+00 0. -1.
</event>
<event>
 7    1  0.2856214E-009  0.9888831E+02  0.7561462E-02  0.1282651E+00
          2   -1    0    0  501    0  0.00000000000E+00  0.00000000000E+00  0.12216290186E+03  0.12216290186E+03  0.00000000000E+00 0. -1.
         -2   -1    0    0    0  501 -0.00000000000E+00 -0.00000000000E+00 -0.13316209092E+03  0.13316209092E+03  0.00000000000E+00 0.  1.
         25    2    1    2    0    0  0.63908652782E+02 -0.11375454982E+02 -0.24700719811E+02  0.14308102903E+03  0.12509331890E+03 0.  0.
          5    1    3    3  502    0  0.57889135248E+02 -0.31184285161E+02  0.38592001593E+02  0.76357230226E+02  0.41800000000E+01 0.  1.
         -5    1    3    3    0  502  0.60195175335E+01  0.19808830179E+02 -0.63292721404E+02  0.66723798806E+02  0.41800000000E+01 0.  1.
        -11    1    1    2    0    0 -0.31581442546E+01 -0.34498978061E+02  0.98714461330E+01  0.36022198866E+02  0.00000000000E+00 0.  1.
         11    1    1    2    0    0 -0.60750508527E+02  0.45874433043E+02  0.38300846220E+01  0.76221764881E+02  0.00000000000E+00 0. -1.
</event>
<event>
 7    1  0.2856214E-009  0.1452220E+03  0.7561462E-02  0.1206470E+00
         -1   -1    0    0    0  501 -0.00000000000E+00  0.00000000000E+00  0.97180783531E+02  0.97180783531E+02  0.00000000000E+00 0.  1.
          1   -1    0    0  501    0  0.00000000000E+00 -0.00000000000E+00 -0.32524593428E+03  0.32524593428E+03  0.00000000000E+00 0. -1.
         25    2    1    2    0    0 -0.78411730911E+02 -0.89299087414E+02 -0.31915485783E+02  0.17546723471E+03  0.12508967050E+03 0.  0.
          5    1    3    3  502    0 -0.76846003442E+01  0.23959483272E+02 -0.33200671799E+02  0.41867253660E+02  0.41800000000E+01 0.  1.
         -5    1    3    3    0  502 -0.70727130566E+02 -0.11325857069E+03  0.12851860162E+01  0.13359998104E+03  0.41800000000E+01 0.  1.
        -11    1    1    2    0    0  0.46633087895E+02  0.12575228194E+02 -0.20115753617E+02  0.52320405143E+02  0.00000000000E+00 0.  1.
         11    1    1    2    0    0  0.31778643015E+02  0.76723859220E+02 -0.17603391135E+03  0.19463907796E+03  0.00000000000E+00 0. -1.
</event>
<event>
 7    1  0.2856214E-009  0.1731460E+03  0.7561462E-02  0.1174606E+00
          2   -1    0    0  501    0  0.00000000000E+00  0.00000000000E+00  0.19524605609E+03  0.19524605609E+03  0.00000000000E+00 0. -1.
         -2   -1    0    0    0  501 -0.00000000000E+00 -0.00000000000E+00 -0.23244425554E+03  0.23244425554E+03  0.00000000000E+00 0.  1.
         25    2    1    2    0    0  0.16691598089E+03  0.12482333697E+02  0.54752367975E+02  0.21601280786E+03  0.12508780128E+03 0.  0.
          5    1    3    3  502    0  0.11751907137E+03  0.32072427398E+02  0.90516629972E+02  0.15182261174E+03  0.41800000000E+01 0. -1.
         -5    1    3    3    0  502  0.49396909515E+02 -0.19590093702E+02 -0.35764261996E+02  0.64190196113E+02  0.41800000000E+01 0. -1.
        -11    1    1    2    0    0 -0.15620742584E+03 -0.20738174878E+02 -0.46555490045E+02  0.16431142821E+03  0.00000000000E+00 0. -1.
         11    1    1    2    0    0 -0.10708555045E+02  0.82558411816E+01 -0.45395077375E+02  0.47366075567E+02  0.00000000000E+00 0.  1.
</event>
<event>
 7    1  0.2856214E-009  0.8871075E+02  0.7561462E-02  0.1306004E+00
          2   -1    0    0  501    0  0.00000000000E+00  0.00000000000E+00  0.69681528960E+03  0.69681528960E+03  0.00000000000E+00 0. -1.
         -2   -1    0    0    0  501 -0.00000000000E+00 -0.00000000000E+00 -0.25170750067E+02  0.25170750067E+02  0.00000000000E+00 0.  1.
         25    2    1    2    0    0  0.47590038491E+02 -0.21777448567E+02  0.51505493352E+03  0.53260492469E+03  0.12508937694E+03 0.  0.
          5    1    3    3  502    0  0.63829146106E+02 -0.38757793531E+00  0.11472147746E+03  0.13134991397E+03  0.41800000000E+01 0. -1.
         -5    1    3    3    0  502 -0.16239107615E+02 -0.21389870632E+02  0.40033345606E+03  0.40125501072E+03  0.41800000000E+01 0. -1.
        -11    1    1    2    0    0  0.10412270587E+01 -0.21289886655E+02  0.16549309338E+01  0.21379481378E+02  0.00000000000E+00 0.  1.
         11    1    1    2    0    0 -0.48631265549E+02  0.43067335223E+02  0.15493467508E+03  0.16800163360E+03  0.00000000000E+00 0. -1.
</event>
<event>
 7    1  0.2856214E-009  0.1091858E+03  0.7561462E-02  0.1262085E+00
          2   -1    0    0  501    0  0.00000000000E+00  0.00000000000E+00  0.45749390721E+03  0.45749390721E+03  0.00000000000E+00 0. -1.
         -2   -1    0    0    0  501 -0.00000000000E+00 -0.00000000000E+00 -0.49412043740E+02  0.49412043740E+02  0.00000000000E+00 0.  1.
         25    2    1    2    0    0 -0.73837493195E+02  0.36965018708E+02  0.32701896935E+03  0.35973852423E+03  0.12510799933E+03 0.  0.
          5    1    3    3  502    0 -0.27125398485E+02 -0.22317180385E+02  0.14538141893E+02  0.38244918002E+02  0.41800000000E+01 0. -1.
         -5    1    3    3    0  502 -0.46712094710E+02  0.59282199093E+02  0.31248082746E+03  0.32149360623E+03  0.41800000000E+01 0. -1.
        -11    1    1    2    0    0  0.56760938327E+02  0.98192918048E+01  0.71569795400E+01  0.58046920396E+02  0.00000000000E+00 0.  1.
         11    1    1    2    0    0  0.17076554867E+02 -0.46784310513E+02  0.73905914578E+02  0.89120506315E+02  0.00000000000E+00 0. -1.
</event>
<event>
 7    1  0.2924410E-009  0.1086219E+03  0.7561462E-02  0.1263143E+00
         -3   -1    0    0    0  501 -0.00000000000E+00  0.00000000000E+00  0.34619310909E+02  0.34619310909E+02  0.00000000000E+00 0.  1.
          3   -1    0    0  501    0  0.00000000000E+00 -0.00000000000E+00 -0.63225374822E+03  0.63225374822E+03  0.00000000000E+00 0. -1.
         25    2    1    2    0    0 -0.17470914008E+02 -0.98584752033E+02 -0.31763056857E+03  0.35575577119E+03  0.12509518165E+03 0.  0.
          5    1    3    3  502    0 -0.29029165446E+01 -0.73337418282E+02 -0.31791855528E+03  0.32630734597E+03  0.41800000000E+01 0.  1.
         -5    1    3    3    0  502 -0.14567997464E+02 -0.25247333751E+02  0.28798670251E+00  0.29448425221E+02  0.41800000000E+01 0.  1.
        -11    1    1    2    0    0  0.25178738917E+02  0.12971923821E+02 -0.16567469913E+03  0.16807839133E+03  0.00000000000E+00 0. -1.
         11    1    1    2    0    0 -0.77078249082E+01  0.85612828212E+02 -0.11432916960E+03  0.14303889660E+03  0.00000000000E+00 0.  1.
</event>
<event>
 7    1  0.2856214E-009  0.1426298E+03  0.7561462E-02  0.1209834E+00
         -1   -1    0    0    0  501 -0.00000000000E+00  0.00000000000E+00  0.18549094780E+03  0.18549094780E+03  0.00000000000E+00 0.  1.
          1   -1    0    0  501    0  0.00000000000E+00 -0.00000000000E+00 -0.19137540794E+03  0.19137540794E+03  0.00000000000E+00 0. -1.
         25    2    1    2    0    0 -0.49292324022E+02 -0.90600199704E+02 -0.11777668107E+03  0.20039224912E+03  0.12509027744E+03 0.  0.
          5    1    3    3  502    0  0.30335414500E+01 -0.96424558374E+02 -0.11103332825E+03  0.14714880296E+03  0.41800000000E+01 0. -1.
         -5    1    3    3    0  502 -0.52325865472E+02  0.58243586708E+01 -0.67433528232E+01  0.53243446156E+02  0.41800000000E+01 0. -1.
        -11    1    1    2    0    0  0.51281722530E+01  0.91563992980E+02  0.67699886466E+02  0.11398919944E+03  0.00000000000E+00 0.  1.
         11    1    1    2    0    0  0.44164151769E+02 -0.96379327685E+00  0.44192334477E+02  0.62484907181E+02  0.00000000000E+00 0. -1.
</event>
<event>
 7    1  0.2856214E-009  0.1772805E+03  0.7561462E-02  0.1170461E+00
         -1   -1    0    0    0  501 -0.00000000000E+00  0.00000000000E+00  0.28418686744E+02  0.28418686744E+02  0.00000000000E+00 0.  1.
          1   -1    0    0  501    0  0.00000000000E+00 -0.00000000000E+00 -0.18727425957E+04  0.18727425957E+04  0.00000000000E+00 0. -1.
         25    2    1    2    0    0 -0.13470041290E+03  0.45872960999E+02 -0.15514355346E+04  0.15629608446E+04  0.12508338856E+03 0.  0.
          5    1    3    3  502    0 -0.15358241001E+03  0.57324403920E+02 -0.14380177843E+04  0.14473376470E+04  0.41800000000E+01 0.  1.
         -5    1    3    3    0  502  0.18881997110E+02 -0.11451442920E+02 -0.11341775029E+03  0.11562319767E+03  0.41800000000E+01 0.  1.
        -11    1    1    2    0    0  0.61736433470E+02 -0.68010687265E+02 -0.17818558704E+03  0.20046681578E+03  0.00000000000E+00 0.  1.
         11    1    1    2    0    0  0.72963979425E+02  0.22137726266E+02 -0.11470278735E+03  0.13773362205E+03  0.00000000000E+00 0. -1.
</event>
<event>
 7    1  0.2856214E-009  0.1138309E+03  0.7561462E-02  0.1253636E+00
         -2   -1    0    0    0  501 -0.00000000000E+00  0.00000000000E+00  0.26517914718E+03  0.26517914718E+03  0.00000000000E+00 0.  1.
          2   -1    0    0  501    0  0.00000000000E+00 -0.00000000000E+00 -0.89093962694E+02  0.89093962694E+02  0.00000000000E+00 0. -1.
         25    2    1    2    0    0  0.77976020055E+01  0.90736409358E+02  0.15395709311E+03  0.21827845229E+03  0.12509515432E+03 0.  0.
          5    1    3    3  502    0  0.23102203212E+02  0.27651496841E+02 -0.13442403706E+02  0.38684463137E+02  0.41800000000E+01 0.  1.
         -5    1    3    3    0  502 -0.15304601206E+02  0.63084912517E+02  0.16739949682E+03  0.17959398915E+03  0.41800000000E+01 0.  1.
        -11    1    1    2    0    0  0.30816233897E+02 -0.35949199200E+01 -0.14034041082E+02  0.34051696432E+02  0.00000000000E+00 0. -1.
         11    1    1    2    0    0 -0.38613835903E+02 -0.87141489438E+02  0.36162132458E+02  0.10194296115E+03  0.00000000000E+00 0.  1.
</event>
<event>
 7    1  0.2856214E-009  0.1489523E+03  0.7561462E-02  0.1201766E+00
          1   -1    0    0  501    0  0.00000000000E+00  0.00000000000E+00  0.38043588440E+03  0.38043588440E+03  0.00000000000E+00 0. -1.
         -1   -1    0    0    0  501 -0.00000000000E+00 -0.00000000000E+00 -0.75907777097E+02  0.75907777097E+02  0.00000000000E+00 0.  1.
         25    2    1    2    0    0 -0.11053220671E+03  0.52732046712E+02  0.22072128846E+03  0.28171564847E+03  0.12509109459E+03 0.  0.
          5    1    3    3  502    0 -0.13246408863E+03  0.29045984895E+02  0.20432697495E+03  0.24527003304E+03  0.41800000000E+01 0.  1.
         -5    1    3    3    0  502  0.21931881921E+02  0.23686061817E+02  0.16394313510E+02  0.36445615436E+02  0.41800000000E+01 0.  1.
        -11    1    1    2    0    0  0.10953415960E+03 -0.39544750592E+02  0.31448896074E+02  0.12062567091E+03  0.00000000000E+00 0.  1.
         11    1    1    2    0    0  0.99804710954E+00 -0.13187296120E+02  0.52357922764E+02  0.54002342108E+02  0.00000000000E+00 0. -1.
</event>
<event>
 7    1  0.2856214E-009  0.1649726E+03  0.7561462E-02  0.1183194E+00
          1   -1    0    0  501    0  0.00000000000E+00  0.00000000000E+00  0.10037004769E+03  0.10037004769E+03  0.00000000000E+00 0. -1.
         -1   -1    0    0    0  501 -0.00000000000E+00 -0.00000000000E+00 -0.34897462002E+03  0.34897462002E+03  0.00000000000E+00 0.  1.
         25    2    1    2    0    0  0.10045562130E+03  0.77090980827E+02 -0.23083154918E+03  0.29148734115E+03  0.12508922725E+03 0.  0.
          5    1    3    3  502    0  0.41753489171E+02 -0.29787043671E+02 -0.10080903926E+03  0.11318372951E+03  0.41800000000E+01 0. -1.
         -5    1    3    3    0  502  0.58702132127E+02  0.10687802450E+03 -0.13002250992E+03  0.17830361164E+03  0.41800000000E+01 0. -1.
        -11    1    1    2    0    0  0.17811732001E+02 -0.82195134394E+01  0.13758739314E+01  0.19664974628E+02  0.00000000000E+00 0.  1.
         11    1    1    2    0    0 -0.11826735330E+03 -0.68871467388E+02 -0.19148897078E+02  0.13819235194E+03  0.00000000000E+00 0. -1.
</event>
<event>
 7    1  0.2856214E-009  0.1165013E+03  0.7561462E-02  0.1248983E+00
          1   -1    0    0  501    0  0.00000000000E+00  0.00000000000E+00  0.27887771743E+03  0.27887771743E+03  0.00000000000E+00 0. -1.
         -1   -1    0    0    0  501 -0.00000000000E+00 -0.00000000000E+00 -0.61829463590E+02  0.61829463590E+02  0.00000000000E+00 0.  1.
         25    2    1    2    0    0 -0.71862344383E+02  0.17599589474E+02  0.12455321699E+03  0.19140411990E+03  0.12509233055E+03 0.  0.
          5    1    3    3  502    0 -0.78287847219E+02  0.48194930568E+02  0.13012053798E+03  0.15937554756E+03  0.41800000000E+01 0.  1.
         -5    1    3    3    0  502  0.64255028362E+01 -0.30595341094E+02 -0.55673209925E+01  0.32028572344E+02  0.41800000000E+01 0.  1.
        -11    1    1    2    0    0  0.66939140010E+02  0.21282345806E+02  0.31917211209E+02  0.77152414607E+02  0.00000000000E+00 0.  1.
         11    1    1    2    0    0  0.49232043729E+01 -0.38881935280E+02  0.60577825642E+02  0.72150646510E+02  0.00000000000E+00 0. -1.
</event>
<event>
 7    1  0.2856214E-009  0.1892573E+03  0.7561462E-02  0.1159133E+00
          2   -1    0    0  501    0  0.00000000000E+00  0.00000000000E+00  0.74638853943E+03  0.74638853943E+03  0.00000000000E+00 0. -1.
         -2   -1    0    0    0  501 -0.00000000000E+00 -0.00000000000E+00 -0.52740559609E+02  0.52740559609E+02  0.00000000000E+00 0.  1.
         25    2    1    2    0    0  0.42317114663E+02 -0.15675896624E+03  0.43172709682E+03  0.47791232930E+03  0.12509115347E+03 0.  0.
          5    1    3    3  502    0  0.75280251237E+02 -0.49091514196E+02  0.15658631705E+03  0.18059302334E+03  0.41800000000E+01 0.  1.
         -5    1    3    3    0  502 -0.32963136574E+02 -0.10766745204E+03  0.27514077977E+03  0.29731930595E+03  0.41800000000E+01 0.  1.
        -11    1    1    2    0    0  0.16131610574E+02  0.65792247456E+02  0.53135201810E+02  0.86094124982E+02  0.00000000000E+00 0.  1.
         11    1    1    2    0    0 -0.58448725237E+02  0.90966718783E+02  0.20878568119E+03  0.23512264476E+03  0.00000000000E+00 0. -1.
</event>
<event>
 7    1  0.2856214E-009  0.1144244E+03  0.7561462E-02  0.1252589E+00
         -1   -1    0    0    0  501 -0.00000000000E+00  0.00000000000E+00  0.14532122738E+03  0.14532122738E+03  0.00000000000E+00 0.  1.
          1   -1    0    0  501    0  0.00000000000E+00 -0.00000000000E+00 -0.14941809444E+03  0.14941809444E+03  0.00000000000E+00 0. -1.
         25    2    1    2    0    0 -0.96347592968E+02 -0.53926315367E+00  0.20255041655E+02  0.15918795047E+03  0.12508951749E+03 0.  0.
          5    1    3    3  502    0 -0.75869911257E+02  0.38440968779E+02 -0.31782617497E+02  0.90893116845E+02  0.41800000000E+01 0.  1.
         -5    1    3    3    0  502 -0.20477681711E+02 -0.38980231933E+02  0.52037659152E+02  0.68294833625E+02  0.41800000000E+01 0.  1.
        -11    1    1    2    0    0  0.51991608152E+02  0.12601621926E+02  0.32381057354E+02  0.62533679475E+02  0.00000000000E+00 0.  1.
         11    1    1    2    0    0  0.44355984816E+02 -0.12062358773E+02 -0.56732966062E+02  0.73017691873E+02  0.00000000000E+00 0. -1.
</event>
<event>
 7    1  0.2856214E-009  0.1598973E+03  0.7561462E-02  0.1188813E+00
         -2   -1    0    0    0  501 -0.00000000000E+00  0.00000000000E+00  0.52633688062E+02  0.52633688062E+02  0.00000000000E+00 0. -1.
          2   -1    0    0  501    0  0.00000000000E+00 -0.00000000000E+00 -0.56903280969E+03  0.56903280969E+03  0.00000000000E+00 0.  1.
         25    2    1    2    0    0 -0.51149472824E+02  0.12146190447E+03 -0.32190281206E+03  0.36964753734E+03  0.12509443892E+03 0.  0.
          5    1    3    3  502    0 -0.71638740980E+02  0.13239300064E+03 -0.30642252462E+03  0.34142678838E+03  0.41800000000E+01 0. -1.
         -5    1    3    3    0  502  0.20489268155E+02 -0.10931096177E+02 -0.15480287438E+02  0.28220748969E+02  0.41800000000E+01 0. -1.
        -11    1    1    2    0    0 -0.13895642131E+02 -0.12407350357E+02  0.12761097393E+01  0.18672430724E+02  0.00000000000E+00 0. -1.
         11    1    1    2    0    0  0.65045114955E+02 -0.10905455411E+03 -0.19577241931E+03  0.23334652968E+03  0.00000000000E+00 0.  1.
</event>
<event>
 7    1  0.2856214E-009  0.1781163E+03  0.7561462E-02  0.1169639E+00
         -2   -1    0    0    0  501 -0.00000000000E+00  0.00000000000E+00  0.51270959000E+02  0.51270959000E+02  0.00000000000E+00 0. -1.
          2   -1    0    0  501    0  0.00000000000E+00 -0.00000000000E+00 -0.68839567110E+03  0.68839567110E+03  0.00000000000E+00 0.  1.
         25    2    1    2    0    0 -0.15031880746E+03 -0.13466141006E+02 -0.29805377097E+03  0.35673649259E+03  0.12509114247E+03 0.  0.
          5    1    3    3  502    0 -0.40307125776E+02  0.48297898452E+02 -0.58735558822E+02  0.86166638865E+02  0.41800000000E+01 0.  1.
         -5    1    3    3    0  502 -0.11001168169E+03 -0.61764039457E+02 -0.23931821215E+03  0.27056985372E+03  0.41800000000E+01 0.  1.
        -11    1    1    2    0    0  0.10692124665E+03 -0.24044057714E+02 -0.27956673595E+03  0.30027958563E+03  0.00000000000E+00 0.  1.
         11    1    1    2    0    0  0.43397560816E+02  0.37510198720E+02 -0.59504205179E+02  0.82650551884E+02  0.00000000000E+00 0. -1.
</event>
<event>
 7    1  0.2856214E-009  0.4955799E+02  0.7561462E-02  0.1447740E+00
         -2   -1    0    0    0  501 -0.00000000000E+00  0.00000000000E+00  0.15736105956E+03  0.15736105956E+03  0.00000000000E+00 0.  1.
          2   -1    0    0  501    0  0.00000000000E+00 -0.00000000000E+00 -0.91128887307E+02  0.91128887307E+02  0.00000000000E+00 0. -1.
         25    2    1    2    0    0 -0.29537475031E+02  0.19002482023E+02  0.77268733814E+02  0.15116688736E+03  0.12508962329E+03 0.  0.
          5    1    3    3  502    0 -0.38863938622E+02  0.17211856920E+02 -0.24253519361E+02  0.49115774913E+02  0.41800000000E+01 0. -1.
         -5    1    3    3    0  502  0.93264635916E+01  0.17906251035E+01  0.10152225318E+03  0.10205111244E+03  0.41800000000E+01 0. -1.
        -11    1    1    2    0    0  0.28082099424E+02 -0.11365843608E+01 -0.48351289919E+02  0.55926231492E+02  0.00000000000E+00 0. -1.
         11    1    1    2    0    0  0.14553756065E+01 -0.17865897662E+02  0.37314728355E+02  0.41396828014E+02  0.00000000000E+00 0.  1.
</event>
<event>
 7    1  0.2856214E-009  0.1958744E+03  0.7561462E-02  0.1153267E+00
         -2   -1    0    0    0  501 -0.00000000000E+00  0.00000000000E+00  0.29149638285E+03  0.29149638285E+03  0.00000000000E+00 0.  1.
          2   -1    0    0  501    0  0.00000000000E+00 -0.00000000000E+00 -0.13518148587E+03  0.13518148587E+03  0.00000000000E+00 0. -1.
         25    2    1    2    0    0  0.90609700018E+02  0.13842099967E+03  0.70414084724E+02  0.21903470259E+03  0.12509023433E+03 0.  0.
          5    1    3    3  502    0 -0.10038909662E+02  0.96486404750E+02  0.44900791370E+02  0.10697644355E+03  0.41800000000E+01 0. -1.
         -5    1    3    3    0  502  0.10064860968E+03  0.41934594922E+02  0.25513293355E+02  0.11205825904E+03  0.41800000000E+01 0. -1.
        -11    1    1    2    0    0 -0.12941797083E+02 -0.96331683738E+02  0.64804225871E+02  0.11681982321E+03  0.00000000000E+00 0.  1.
         11    1    1    2    0    0 -0.77667902935E+02 -0.42089315934E+02  0.21096586381E+02  0.90823342919E+02  0.00000000000E+00 0. -1.
</event>
<event>
 7    1  0.2856214E-009  0.1029195E+03  0.7561462E-02  0.1274274E+00
          1   -1    0    0  501    0  0.00000000000E+00  0.00000000000E+00  0.11925763155E+03  0.11925763155E+03  0.00000000000E+00 0. -1.
         -1   -1    0    0    0  501 -0.00000000000E+00 -0.00000000000E+00 -0.15608215411E+03  0.15608215411E+03  0.00000000000E+00 0.  1.
         25    2    1    2    0    0 -0.60213339307E-01 -0.27612068273E+02 -0.99239602325E+02  0.16204546833E+03  0.12509118752E+03 0.  0.
          5    1    3    3  502    0 -0.53643280675E+02 -0.42026196655E+02 -0.33913981306E+02  0.76232757361E+02  0.41800000000E+01 0.  1.
         -5    1    3    3    0  502  0.53583067336E+02  0.14414128382E+02 -0.65325621019E+02  0.85812710968E+02  0.41800000000E+01 0.  1.
        -11    1    1    2    0    0  0.38292670482E+02  0.87113103430E+01  0.19738030037E+01  0.39320623581E+02  0.00000000000E+00 0.  1.
         11    1    1    2    0    0 -0.38232457143E+02  0.18900757930E+02  0.60441276760E+02  0.73973693742E+02  0.00000000000E+00 0. -1.
</event>
<event>
 7    1  0.2856214E-009  0.8260888E+02  0.7561462E-02  0.1321807E+00
          2   -1    0    0  501    0  0.00000000000E+00  0.00000000000E+00  0.26988026921E+03  0.26988026921E+03  0.00000000000E+00 0. -1.
         -2   -1    0    0    0  501 -0.00000000000E+00 -0.00000000000E+00 -0.10118299669E+03  0.10118299669E+03  0.00000000000E+00 0.  1.
         25    2    1    2    0    0  0.29226742050E+02 -0.82526008152E+01  0.22512669016E+03  0.25932169144E+03  0.12507359895E+03 0.  0.
          5    1    3    3  502    0 -0.17504969192E+02 -0.36800112837E+02  0.18945458457E+03  0.19383287716E+03  0.41800000000E+01 0.  1.
         -5    1    3    3    0  502  0.46731711242E+02  0.28547512021E+02  0.35672105590E+02  0.65488814277E+02  0.41800000000E+01 0.  1.
        -11    1    1    2    0    0 -0.83550350624E+01  0.34670993645E+02 -0.67464556590E+02  0.76310882626E+02  0.00000000000E+00 0.  1.
         11    1    1    2    0    0 -0.20871706987E+02 -0.26418392830E+02  0.11035138943E+02  0.35430691833E+02  0.00000000000E+00 0. -1.
</event>
<event>
 7    1  0.2856214E-009  0.1322306E+03  0.7561462E-02  0.1224183E+00
         -1   -1    0    0    0  501 -0.00000000000E+00  0.00000000000E+00  0.12324531895E+02  0.12324531895E+02  0.00000000000E+00 0.  1.
          1   -1    0    0  501    0  0.00000000000E+00 -0.00000000000E+00 -0.15469341238E+04  0.15469341238E+04  0.00000000000E+00 0. -1.
         25    2    1    2    0    0 -0.38651659307E+02 -0.66013531527E+02 -0.10434070701E+04  0.10536583164E+04  0.12508315908E+03 0.  0.
          5    1    3    3  502    0  0.34583488225E+02 -0.64403383208E+02 -0.53138013453E+03  0.53640109358E+03  0.41800000000E+01 0.  1.
         -5    1    3    3    0  502 -0.73235147533E+02 -0.16101483197E+01 -0.51202693557E+03  0.51725722282E+03  0.41800000000E+01 0.  1.
        -11    1    1    2    0    0  0.54783052357E+02  0.52890486215E+01 -0.27498808637E+03  0.28044180236E+03  0.00000000000E+00 0.  1.
         11    1    1    2    0    0 -0.16131393050E+02  0.60724482906E+02 -0.21621443548E+03  0.22515853698E+03  0.00000000000E+00 0. -1.
</event>
<event>
 7    1  0.2856214E-009  0.8880997E+02  0.7561462E-02  0.1305759E+00
         -1   -1    0    0    0  501 -0.00000000000E+00  0.00000000000E+00  0.77585666780E+02  0.77585666780E+02  0.00000000000E+00 0.  1.
          1   -1    0    0  501    0  0.00000000000E+00 -0.00000000000E+00 -0.18441051524E+03  0.18441051524E+03  0.00000000000E+00 0. -1.
         25    2    1    2    0    0 -0.44363662138E+02  0.73746959688E+01 -0.88799300738E+02  0.15985824369E+03  0.12508725597E+03 0.  0.
          5    1    3    3  502    0 -0.77271432489E+01 -0.28052432504E+02  0.22734264573E+02  0.37161362971E+02  0.41800000000E+01 0.  1.
         -5    1    3    3    0  502 -0.36636518889E+02  0.35427128473E+02 -0.11153356531E+03  0.12269688072E+03  0.41800000000E+01 0.  1.
        -11    1    1    2    0    0 -0.22453583773E+02 -0.18821115011E+02 -0.17925878510E+02  0.34347269395E+02  0.00000000000E+00 0.  1.
         11    1    1    2    0    0  0.66817245911E+02  0.11446419043E+02 -0.99669210733E-01  0.67790668931E+02  0.00000000000E+00 0. -1.
</event>
<event>
 7    1  0.2856214E-009  0.1094683E+03  0.7561462E-02  0.1261558E+00
         -2   -1    0    0    0  501 -0.00000000000E+00  0.00000000000E+00  0.57253509425E+02  0.57253509425E+02  0.00000000000E+00 0.  1.
          2   -1    0    0  501    0  0.00000000000E+00 -0.00000000000E+00 -0.25737830981E+03  0.25737830981E+03  0.00000000000E+00 0. -1.
         25    2    1    2    0    0  0.21924760112E+02 -0.41211007505E+02 -0.15102724653E+03  0.20158368304E+03  0.12509080633E+03 0.  0.
          5    1    3    3  502    0  0.50642091251E+02  0.16179772198E+02 -0.11755102854E+03  0.12908184669E+03  0.41800000000E+01 0.  1.
         -5    1    3    3    0  502 -0.28717331138E+02 -0.57390779703E+02 -0.33476217987E+02  0.72501836344E+02  0.41800000000E+01 0.  1.
        -11    1    1    2    0    0 -0.24974898372E+02 -0.24811750885E+02 -0.22639475062E+02  0.41855876072E+02  0.00000000000E+00 0. -1.
         11    1    1    2    0    0  0.30501382593E+01  0.66022758389E+02 -0.26458078798E+02  0.71192260130E+02  0.00000000000E+00 0.  1.
</event>
<event>
 7    1  0.2856214E-009  0.1297368E+03  0.7561462E-02  0.1227847E+00
          1   -1    0    0  501    0  0.00000000000E+00  0.00000000000E+00  0.20010937398E+03  0.20010937398E+03  0.00000000000E+00 0. -1.
         -1   -1    0    0    0  501 -0.00000000000E+00 -0.00000000000E+00 -0.11380413735E+03  0.11380413735E+03  0.00000000000E+00 0.  1.
         25    2    1    2    0    0 -0.97074811165E+02 -0.24396219311E+02  0.12205028993E+02  0.16066829551E+03  0.12508654592E+03 0.  0.
          5    1    3    3  502    0  0.87863131903E+01 -0.18515402974E+02 -0.37928935870E+02  0.43313924123E+02  0.41800000000E+01 0.  1.
         -5    1    3    3    0  502 -0.10586112436E+03 -0.58808163374E+01  0.50133964863E+02  0.11735437139E+03  0.41800000000E+01 0.  1.
        -11    1    1    2    0    0  0.62219941626E+02 -0.29030919060E+02  0.26267321056E+02  0.73512499297E+02  0.00000000000E+00 0.  1.
         11    1    1    2    0    0  0.34854869539E+02  0.53427138372E+02  0.47832886587E+02  0.79732716525E+02  0.00000000000E+00 0. -1.
</event>
<event>
 7    1  0.2856214E-009  0.1674783E+03  0.7561462E-02  0.1180503E+00
          2   -1    0    0  501    0  0.00000000000E+00  0.00000000000E+00  0.36780318302E+03  0.36780318302E+03  0.00000000000E+00 0. -1.
         -2   -1    0    0    0  501 -0.00000000000E+00 -0.00000000000E+00 -0.88811604023E+02  0.88811604023E+02  0.00000000000E+00 0.  1.
         25    2    1    2    0    0 -0.12347381307E+03  0.70323772562E+02  0.17437017686E+03  0.25737782310E+03  0.12508864755E+03 0.  0.
          5    1    3    3  502    0  0.98246204118E+01 -0.23792912061E+02  0.24431713100E+02  0.35735232412E+02  0.41800000000E+01 0.  1.
         -5    1    3    3    0  502 -0.13329843348E+03  0.94116684623E+02  0.14993846376E+03  0.22164259068E+03  0.41800000000E+01 0.  1.
        -11    1    1    2    0    0  0.11108335211E+03 -0.73064421492E+02  0.48230509239E+02  0.14143586117E+03  0.00000000000E+00 0.  1.
         11    1    1    2    0    0  0.12390460954E+02  0.27406489302E+01  0.56390892903E+02  0.57801102772E+02  0.00000000000E+00 0. -1.
</event>
<event>
 7    1  0.2856214E-009  0.1101651E+03  0.7561462E-02  0.1260265E+00
          2   -1    0    0  501    0  0.00000000000E+00  0.00000000000E+00  0.93147355078E+03  0.93147355078E+03  0.00000000000E+00 0. -1.
         -2   -1    0    0    0  501 -0.00000000000E+00 -0.00000000000E+00 -0.14582304420E+02  0.14582304420E+02  0.00000000000E+00 0.  1.
         25    2    1    2    0    0  0.28258372417E+02  0.28851620413E+02  0.59608250908E+03  0.61040334596E+03  0.12508771128E+03 0.  0.
          5    1    3    3  502    0 -0.45191901561E+02  0.61481806418E+01  0.12617360232E+03  0.13422875405E+03  0.41800000000E+01 0. -1.
         -5    1    3    3    0  502  0.73450273978E+02  0.22703439772E+02  0.46990890676E+03  0.47617459191E+03  0.41800000000E+01 0. -1.
        -11    1    1    2    0    0 -0.18052587439E+02  0.31512649816E+02  0.95433315460E+02  0.10211004217E+03  0.00000000000E+00 0.  1.
         11    1    1    2    0    0 -0.10205784977E+02 -0.60364270229E+02  0.22537542182E+03  0.23354246708E+03  0.00000000000E+00 0. -1.
</event>
<event>
 7    1  0.2856214E-009  0.1474800E+03  0.7561462E-02  0.1203604E+00
          2   -1    0    0  501    0  0.00000000000E+00  0.00000000000E+00  0.58093042955E+03  0.58093042955E+03  0.00000000000E+00 0. -1.
         -2   -1    0    0    0  501 -0.00000000000E+00 -0.00000000000E+00 -0.51310386610E+02  0.51310386610E+02  0.00000000000E+00 0.  1.
         25    2    1    2    0    0 -0.96953168725E+02  0.31917955569E+02  0.12292191895E+03  0.20291886397E+03  0.12509034489E+03 0.  0.
          5    1    3    3  502    0 -0.69347750466E+02 -0.41950240626E+02  0.49315299368E+02  0.94965279629E+02  0.41800000000E+01 0. -1.
         -5    1    3    3    0  502 -0.27605418259E+02  0.73868196195E+02  0.73606619579E+02  0.10795358434E+03  0.41800000000E+01 0. -1.
        -11    1    1    2    0    0  0.96663296269E+02 -0.55358261522E+02  0.29834618384E+03  0.31846314603E+03  0.00000000000E+00 0.  1.
         11    1    1    2    0    0  0.28987245541E+00  0.23440305954E+02  0.10835194015E+03  0.11085880616E+03  0.00000000000E+00 0. -1.
</event>
<event>
 7    1  0.2856214E-009  0.8083291E+02  0.7561462E-02  0.1326704E+00
         -1   -1    0    0    0  501 -0.00000000000E+00  0.00000000000E+00  0.33255757516E+02  0.33255757516E+02  0.00000000000E+00 0.  1.
          1   -1    0    0  501    0  0.00000000000E+00 -0.00000000000E+00 -0.35448193372E+03  0.35448193372E+03  0.00000000000E+00 0. -1.
         25    2    1    2    0    0  0.61695621789E+01  0.25320558427E+01 -0.18107176332E+03  0.22018220641E+03  0.12509494691E+03 0.  0.
          5    1    3    3  502    0  0.30642994032E+02  0.41073937093E+02 -0.16297577271E+03  0.17089364026E+03  0.41800000000E+01 0.  1.
         -5    1    3    3    0  502 -0.24473431853E+02 -0.38541881250E+02 -0.18095990616E+02  0.49288566152E+02  0.41800000000E+01 0.  1.
        -11    1    1    2    0    0 -0.34442977018E+02  0.58012845671E+01 -0.13260532086E+03  0.13712820530E+03  0.00000000000E+00 0. -1.
         11    1    1    2    0    0  0.28273414839E+02 -0.83333404098E+01 -0.75490920244E+01  0.30427279528E+02  0.00000000000E+00 0.  1.
</event>
<event>
 7    1  0.2856214E-009  0.1036727E+03  0.7561462E-02  0.1272757E+00
          1   -1    0    0  501    0  0.00000000000E+00  0.00000000000E+00  0.15223906421E+04  0.15223906421E+04  0.00000000000E+00 0. -1.
         -1   -1    0    0    0  501 -0.00000000000E+00 -0.00000000000E+00 -0.13804189516E+02  0.13804189516E+02  0.00000000000E+00 0.  1.
         25    2    1    2    0    0 -0.37633028841E+02 -0.80762319065E+02  0.10075312163E+04  0.10191687344E+04  0.12508780992E+03 0.  0.
          5    1    3    3  502    0 -0.28051845250E+02 -0.53147998928E+02  0.15754520112E+03  0.16867002878E+03  0.41800000000E+01 0.  1.
         -5    1    3    3    0  502 -0.95811835913E+01 -0.27614320137E+02  0.84998601520E+03  0.85049870558E+03  0.41800000000E+01 0.  1.
        -11    1    1    2    0    0  0.12613041666E+02 -0.14421873419E+02  0.28569135064E+02  0.34398760607E+02  0.00000000000E+00 0.  1.
         11    1    1    2    0    0  0.25019987175E+02  0.95184192484E+02  0.47248610120E+03  0.48262733666E+03  0.00000000000E+00 0. -1.
</event>
<event>
 7    1  0.2856214E-009  0.1099335E+03  0.7561462E-02  0.1260693E+00
          1   -1    0    0  501    0  0.00000000000E+00  0.00000000000E+00  0.24497643084E+03  0.24497643084E+03  0.00000000000E+00 0. -1.
         -1   -1    0    0    0  501 -0.00000000000E+00 -0.00000000000E+00 -0.90180663593E+02  0.90180663593E+02  0.00000000000E+00 0.  1.
         25    2    1    2    0    0 -0.47466176568E+02 -0.74628699895E+02  0.12568715075E+03  0.19815858375E+03  0.12508830354E+03 0.  0.
          5    1    3    3  502    0 -0.21270392109E+02 -0.76711980847E+02  0.14487132622E+03  0.16535516668E+03  0.41800000000E+01 0. -1.
         -5    1    3    3    0  502 -0.26195784460E+02  0.20832809524E+01 -0.19184175472E+02  0.32803417071E+02  0.41800000000E+01 0. -1.
        -11    1    1    2    0    0 -0.11359079649E+02  0.47361412582E+02  0.49090115754E+02  0.69151800822E+02  0.00000000000E+00 0. -1.
         11    1    1    2    0    0  0.58825256217E+02  0.27267287313E+02 -0.19981499257E+02  0.67846709861E+02  0.00000000000E+00 0.  1.
</event>
<event>
 7    1  0.2856214E-009  0.1686763E+03  0.7561462E-02  0.1179235E+00
         -4   -1    0    0    0  501 -0.00000000000E+00  0.00000000000E+00  0.26454931259E+02  0.26454931259E+02  0.00000000000E+00 0.  1.
          4   -1    0    0  501    0  0.00000000000E+00 -0.00000000000E+00 -0.13359186416E+04  0.13359186416E+04  0.00000000000E+00 0. -1.
         25    2    1    2    0    0  0.88595941866E+02 -0.12587112041E+03 -0.84183534267E+03  0.86488564098E+03  0.12509055892E+03 0.  0.
          5    1    3    3  502    0 -0.27845211330E+01 -0.81432525732E+02 -0.21705146432E+03  0.23187889160E+03  0.41800000000E+01 0.  1.
         -5    1    3    3    0  502  0.91380462999E+02 -0.44438594683E+02 -0.62478387835E+03  0.63300674938E+03  0.41800000000E+01 0.  1.
        -11    1    1    2    0    0 -0.76933527932E+01  0.79709022566E+01 -0.31776028604E+01  0.11524761166E+02  0.00000000000E+00 0.  1.
         11    1    1    2    0    0 -0.80902589073E+02  0.11790021816E+03 -0.46445076486E+03  0.48596317076E+03  0.00000000000E+00 0. -1.
</event>
<event>
 7    1  0.3195265E-009  0.1090805E+03  0.7561462E-02  0.1262282E+00
         -1   -1    0    0    0  501 -0.00000000000E+00  0.00000000000E+00  0.99657173597E+02  0.99657173597E+02  0.00000000000E+00 0.  1.
          1   -1    0    0  501    0  0.00000000000E+00 -0.00000000000E+00 -0.13812446295E+03  0.13812446295E+03  0.00000000000E+00 0. -1.
         25    2    1    2    0    0 -0.29557367324E+02  0.13694335348E+01 -0.55932029460E+02  0.14019030166E+03  0.12509762367E+03 0.  0.
          5    1    3    3  502    0 -0.70224526291E+02 -0.24921627252E+02 -0.52921132119E+02  0.91491476228E+02  0.41800000000E+01 0. -1.
         -5    1    3    3    0  502  0.40667158966E+02  0.26291060787E+02 -0.30108973412E+01  0.48698825433E+02  0.41800000000E+01 0. -1.
        -11    1    1    2    0    0 -0.59361296723E+00  0.42053830283E+02  0.15056810788E+02  0.44671966253E+02  0.00000000000E+00 0.  1.
         11    1    1    2    0    0  0.30150980291E+02 -0.43423263818E+02  0.24079293172E+01  0.52919368635E+02  0.00000000000E+00 0. -1.
</event>
<event>
 7    1  0.2856214E-009  0.1216832E+03  0.7561462E-02  0.1240346E+00
          2   -1    0    0  501    0  0.00000000000E+00  0.00000000000E+00  0.61266457993E+03  0.61266457993E+03  0.00000000000E+00 0. -1.
         -2   -1    0    0    0  501 -0.00000000000E+00 -0.00000000000E+00 -0.25736327689E+02  0.25736327689E+02  0.00000000000E+00 0.  1.
         25    2    1    2    0    0 -0.37120238752E+02 -0.50425035642E+02  0.30864410050E+03  0.33886487988E+03  0.12509048604E+03 0.  0.
          5    1    3    3  502    0 -0.81359211921E+02 -0.48553912077E+02  0.19536275508E+03  0.21716556407E+03  0.41800000000E+01 0. -1.
         -5    1    3    3    0  502  0.44238973169E+02 -0.18711235648E+01  0.11328134542E+03  0.12169931582E+03  0.41800000000E+01 0. -1.
        -11    1    1    2    0    0  0.53814722892E+02  0.31389046754E+01  0.92090583766E+02  0.10670779138E+03  0.00000000000E+00 0.  1.
         11    1    1    2    0    0 -0.16694484139E+02  0.47286130966E+02  0.18619356797E+03  0.19282823635E+03  0.00000000000E+00 0. -1.
</event>
<event>
 7    1  0.2856214E-009  0.1064714E+03  0.7561462E-02  0.1267247E+00
          1   -1    0    0  501    0  0.00000000000E+00  0.00000000000E+00  0.61992447356E+03  0.61992447356E+03  0.00000000000E+00 0. -1.
         -1   -1    0    0    0  501 -0.00000000000E+00 -0.00000000000E+00 -0.55570413179E+02  0.55570413179E+02  0.00000000000E+00 0.  1.
         25    2    1    2    0    0  0.89109197507E+02 -0.16485210856E+02  0.51824128193E+03  0.54077177961E+03  0.12509148679E+03 0.  0.
          5    1    3    3  502    0  0.74567987113E+02  0.70264597950E+01  0.50370373901E+03  0.50925895665E+03  0.41800000000E+01 0.  1.
         -5    1    3    3    0  502  0.14541210393E+02 -0.23511670651E+02  0.14537542920E+02  0.31512822956E+02  0.41800000000E+01 0.  1.
        -11    1    1    2    0    0 -0.41467650024E+02 -0.23594713913E+02  0.53896531835E+02  0.71979946284E+02  0.00000000000E+00 0. -1.
         11    1    1    2    0    0 -0.47641547483E+02  0.40079924768E+02 -0.77837533850E+01  0.62743160844E+02  0.00000000000E+00 0.  1.
</event>
<event>
 7    1  0.2856214E-009  0.9300586E+02  0.7561462E-02  0.1295732E+00
         -1   -1    0    0    0  501 -0.00000000000E+00  0.00000000000E+00  0.37357626722E+03  0.37357626722E+03  0.00000000000E+00 0.  1.
          1   -1    0    0  501    0  0.00000000000E+00 -0.00000000000E+00 -0.50605743824E+02  0.50605743824E+02  0.00000000000E+00 0. -1.
         25    2    1    2    0    0 -0.25042887399E+02 -0.17439676267E+02  0.29665744116E+03  0.32339318100E+03  0.12508486562E+03 0.  0.
          5    1    3    3  502    0 -0.31816328055E+02  0.50776366459E+02  0.13657403353E+03  0.14919938725E+03  0.41800000000E+01 0. -1.
         -5    1    3    3    0  502  0.67734406561E+01 -0.68216042727E+02  0.16008340763E+03  0.17419379375E+03  0.41800000000E+01 0. -1.
        -11    1    1    2    0    0  0.37805280150E+02  0.21967868547E+02  0.54289191278E+02  0.69707551566E+02  0.00000000000E+00 0.  1.
         11    1    1    2    0    0 -0.12762392752E+02 -0.45281922802E+01 -0.27976109044E+02  0.31081278470E+02  0.00000000000E+00 0. -1.
</event>
<event>
 7    1  0.2856214E-009  0.1187608E+03  0.7561462E-02  0.1245155E+00
          2   -1    0    0  501    0  0.00000000000E+00  0.00000000000E+00  0.14190461609E+03  0.14190461609E+03  0.00000000000E+00 0. -1.
         -2   -1    0    0    0  501 -0.00000000000E+00 -0.00000000000E+00 -0.22475579440E+03  0.22475579440E+03  0.00000000000E+00 0.  1.
         25    2    1    2    0    0 -0.56376369729E+02 -0.74250269443E+02  0.67286550652E+02  0.16989983348E+03  0.12508827259E+03 0.  0.
          5    1    3    3  502    0  0.20951717022E+02 -0.51061270792E+02  0.69725884553E+02  0.89024711164E+02  0.41800000000E+01 0.  1.
         -5    1    3    3    0  502 -0.77328086751E+02 -0.23188998651E+02 -0.24393339012E+01  0.80875122311E+02  0.41800000000E+01 0.  1.
        -11    1    1    2    0    0  0.22803512477E+02  0.61203646490E+02 -0.31000150250E+02  0.72297274088E+02  0.00000000000E+00 0. -1.
         11    1    1    2    0    0  0.33572857252E+02  0.13046622953E+02 -0.11913757871E+03  0.12446330293E+03  0.00000000000E+00 0.  1.
</event>
<event>
 7    1  0.2856214E-009  0.7709938E+02  0.7561462E-02  0.1337490E+00
         -4   -1    0    0    0  501 -0.00000000000E+00  0.00000000000E+00  0.15041289549E+03  0.15041289549E+03  0.00000000000E+00 0.  1.
          4   -1    0    0  501    0  0.00000000000E+00 -0.00000000000E+00 -0.20731941120E+03  0.20731941120E+03  0.00000000000E+00 0. -1.
         25    2    1    2    0    0  0.45440222962E+02 -0.25006237054E+02 -0.16054973740E+03  0.21003286823E+03  0.12508981494E+03 0.  0.
          5    1    3    3  502    0  0.55884784982E+02 -0.49010097316E+02 -0.36004468195E+02  0.82697599490E+02  0.41800000000E+01 0.  1.
         -5    1    3    3    0  502 -0.10444562021E+02  0.24003860261E+02 -0.12454526921E+03  0.12733526874E+03  0.41800000000E+01 0.  1.
        -11    1    1    2    0    0 -0.17677970016E+02  0.16558745832E+02 -0.13007359479E+02  0.27493528112E+02  0.00000000000E+00 0. -1.
         11    1    1    2    0    0 -0.27762252946E+02  0.84474912219E+01  0.11665058117E+03  0.12020591035E+03  0.00000000000E+00 0.  1.
</event>
<event>
 7    1  0.3256174E-009  0.9473307E+02  0.7561462E-02  0.1291778E+00
         -1   -1    0    0    0  501 -0.00000000000E+00  0.00000000000E+00  0.43233407973E+02  0.43233407973E+02  0.00000000000E+00 0.  1.
          1   -1    0    0  501    0  0.00000000000E+00 -0.00000000000E+00 -0.42644964518E+03  0.42644964518E+03  0.00000000000E+00 0. -1.
         25    2    1    2    0    0 -0.77943717778E+02 -0.48269314211E+01 -0.16880145918E+03  0.22414377594E+03  0.12509187529E+03 0.  0.
          5    1    3    3  502    0 -0.77334632626E+02 -0.16099297849E+02 -0.29657412158E+02  0.84479981596E+02  0.41800000000E+01 0. -1.
         -5    1    3    3    0  502 -0.60908515183E+00  0.11272366428E+02 -0.13914404702E+03  0.13966379435E+03  0.41800000000E+01 0. -1.
        -11    1    1    2    0    0  0.48900355653E+02  0.32090955806E+02 -0.19004246861E+03  0.19883966934E+03  0.00000000000E+00 0. -1.
         11    1    1    2    0    0  0.29043362124E+02 -0.27264024384E+02 -0.24372309420E+02  0.46699607874E+02  0.00000000000E+00 0.  1.
</event>
<event>
 7    1  0.2856214E-009  0.1594775E+03  0.7561462E-02  0.1189288E+00
          1   -1    0    0  501    0  0.00000000000E+00  0.00000000000E+00  0.38475070555E+03  0.38475070555E+03  0.00000000000E+00 0.  1.
         -1   -1    0    0    0  501 -0.00000000000E+00 -0.00000000000E+00 -0.77154484304E+02  0.77154484304E+02  0.00000000000E+00 0. -1.
         25    2    1    2    0    0  0.12630037397E+03 -0.63316271905E+01  0.10732624743E+03  0.20773993735E+03  0.12508031106E+03 0.  0.
          5    1    3    3  502    0  0.13027613545E+03 -0.45116657107E+02  0.75529429881E+02  0.15725632386E+03  0.41800000000E+01 0. -1.
         -5    1    3    3    0  502 -0.39757614770E+01  0.38785029917E+02  0.31796817550E+02  0.50483613493E+02  0.41800000000E+01 0. -1.
        -11    1    1    2    0    0 -0.76509648559E+02 -0.27847133462E+02  0.16558730583E+03  0.18452193641E+03  0.00000000000E+00 0.  1.
         11    1    1    2    0    0 -0.49790725413E+02  0.34178760653E+02  0.34682667980E+02  0.69643316084E+02  0.00000000000E+00 0. -1.
</event>
<event>
 7    1  0.2856214E-009  0.7721548E+02  0.7561462E-02  0.1337145E+00
          2   -1    0    0  501    0  0.00000000000E+00  0.00000000000E+00  0.36901733399E+03  0.36901733399E+03  0.00000000000E+00 0. -1.
         -2   -1    0    0    0  501 -0.00000000000E+00 -0.00000000000E+00 -0.34746343141E+02  0.34746343141E+02  0.00000000000E+00 0.  1.
         25    2    1    2    0    0 -0.23501302807E+02 -0.16472913068E+02  0.15576862061E+03  0.20182518459E+03  0.12508346761E+03 0.  0.
          5    1    3    3  502    0 -0.29292214137E+00 -0.35527790622E+02 -0.68333766592E+01  0.36420833961E+02  0.41800000000E+01 0. -1.
         -5    1    3    3    0  502 -0.23208380666E+02  0.19054877554E+02  0.16260199727E+03  0.16540435063E+03  0.41800000000E+01 0. -1.
        -11    1    1    2    0    0 -0.10590032647E+02 -0.29363261267E+02  0.32045567096E+02  0.44735537039E+02  0.00000000000E+00 0.  1.
         11    1    1    2    0    0  0.34091335455E+02  0.45836174335E+02  0.14645680315E+03  0.15720295550E+03  0.00000000000E+00 0. -1.
</event>
<event>
 7    1  0.2856214E-009  0.8263614E+02  0.7561462E-02  0.1321733E+00
         -1   -1    0    0    0  501 -0.00000000000E+00  0.00000000000E+00  0.30923223415E+02  0.30923223415E+02  0.00000000000E+00 0.  1.
          1   -1    0    0  501    0  0.00000000000E+00 -0.00000000000E+00 -0.39320479733E+03  0.39320479733E+03  0.00000000000E+00 0. -1.
         25    2    1    2    0    0  0.10426097008E+02 -0.62108416575E+02 -0.22083521108E+03  0.26149744427E+03  0.12508622627E+03 0.  0.
          5    1    3    3  502    0  0.17759288019E+02  0.41979584062E+01 -0.18444378341E+03  0.18539146907E+03  0.41800000000E+01 0.  1.
         -5    1    3    3    0  502 -0.73331910106E+01 -0.66306374982E+02 -0.36391427663E+02  0.76105975199E+02  0.41800000000E+01 0.  1.
        -11    1    1    2    0    0 -0.19379933685E+02  0.26261194209E+01 -0.43396834829E+02  0.47600037878E+02  0.00000000000E+00 0.  1.
         11    1    1    2    0    0  0.89538366767E+01  0.59482297154E+02 -0.98049528008E+02  0.11503053859E+03  0.00000000000E+00 0. -1.
</event>
<event>
 7    1  0.2856214E-009  0.1108102E+03  0.7561462E-02  0.1259077E+00
         -2   -1    0    0    0  501 -0.00000000000E+00  0.00000000000E+00  0.68031780602E+02  0.68031780602E+02  0.00000000000E+00 0.  1.
          2   -1    0    0  501    0  0.00000000000E+00 -0.00000000000E+00 -0.50280866176E+03  0.50280866176E+03  0.00000000000E+00 0. -1.
         25    2    1    2    0    0  0.88189391148E+02  0.38733215538E+02 -0.40979284777E+03  0.43915388231E+03  0.12509325949E+03 0.  0.
          5    1    3    3  502    0  0.68102531819E+02  0.61323165952E+02 -0.39448798093E+03  0.40501447508E+03  0.41800000000E+01 0. -1.
         -5    1    3    3    0  502  0.20086859329E+02 -0.22589950414E+02 -0.15304866836E+02  0.34139407234E+02  0.41800000000E+01 0. -1.
        -11    1    1    2    0    0 -0.44343554733E+02 -0.62152699383E+01  0.30243495757E+02  0.54033780753E+02  0.00000000000E+00 0.  1.
         11    1    1    2    0    0 -0.43845836415E+02 -0.32517945600E+02 -0.55227529151E+02  0.77652779300E+02  0.00000000000E+00 0. -1.
</event>
<event>
 7    1  0.2856214E-009  0.1207963E+03  0.7561462E-02  0.1241789E+00
         -1   -1    0    0    0  501 -0.00000000000E+00  0.00000000000E+00  0.65845857736E+03  0.65845857736E+03  0.00000000000E+00 0.  1.
          1   -1    0    0  501    0  0.00000000000E+00 -0.00000000000E+00 -0.31153840260E+02  0.31153840260E+02  0.00000000000E+00 0. -1.
         25    2    1    2    0    0 -0.61927003008E+01  0.91946028094E+02  0.40066886144E+03  0.42973879393E+03  0.12508985913E+03 0.  0.
          5    1    3    3  502    0  0.30321495811E+01 -0.26236934527E+02  0.28304161241E+02  0.38938009811E+02  0.41800000000E+01 0.  1.
         -5    1    3    3    0  502 -0.92248498819E+01  0.11818296262E+03  0.37236470020E+03  0.39080078411E+03  0.41800000000E+01 0.  1.
        -11    1    1    2    0    0 -0.87154480715E+01 -0.63735917088E+02  0.53056235091E+02  0.83385791620E+02  0.00000000000E+00 0. -1.
         11    1    1    2    0    0  0.14908148372E+02 -0.28210111007E+02  0.17357964057E+03  0.17648783208E+03  0.00000000000E+00 0.  1.
</event>
<event>
 7    1  0.2856214E-009  0.1140734E+03  0.7561462E-02  0.1253207E+00
          3   -1    0    0  501    0  0.00000000000E+00  0.00000000000E+00  0.35586803176E+02  0.35586803176E+02  0.00000000000E+00 0. -1.
         -3   -1    0    0    0  501 -0.00000000000E+00 -0.00000000000E+00 -0.37478538297E+03  0.37478538297E+03  0.00000000000E+00 0.  1.
         25    2    1    2    0    0  0.18281981699E+02 -0.32955900454E+02 -0.19985524318E+03  0.23877649104E+03  0.12510704304E+03 0.  0.
          5    1    3    3  502    0 -0.73139682285E+01 -0.77261343992E+02 -0.13811550496E+03  0.15848083328E+03  0.41800000000E+01 0. -1.
         -5    1    3    3    0  502  0.25595949927E+02  0.44305443538E+02 -0.61739738217E+02  0.80295657759E+02  0.41800000000E+01 0. -1.
        -11    1    1    2    0    0  0.16449215167E+02  0.55364596580E+02 -0.68735864739E+02  0.89779921673E+02  0.00000000000E+00 0.  1.
         11    1    1    2    0    0 -0.34731196865E+02 -0.22408696127E+02 -0.70607471873E+02  0.81815773431E+02  0.00000000000E+00 0. -1.
</event>
<event>
 7    1  0.2856214E-009  0.7023889E+02  0.7561462E-02  0.1359283E+00
          2   -1    0    0  501    0  0.00000000000E+00  0.00000000000E+00  0.94006434773E+03  0.94006434773E+03  0.00000000000E+00 0. -1.
         -2   -1    0    0    0  501 -0.00000000000E+00 -0.00000000000E+00 -0.33389120899E+02  0.33389120899E+02  0.00000000000E+00 0.  1.
         25    2    1    2    0    0  0.12310539349E+02  0.19516538769E+02  0.85644296598E+03  0.86583737093E+03  0.12508938507E+03 0.  0.
          5    1    3    3  502    0  0.25615032966E+02 -0.12575285466E+02  0.79185564106E+03  0.79238065120E+03  0.41800000000E+01 0. -1.
         -5    1    3    3    0  502 -0.13304493616E+02  0.32091824235E+02  0.64587324926E+02  0.73456719735E+02  0.41800000000E+01 0. -1.
        -11    1    1    2    0    0 -0.36668026847E+02 -0.32541655821E+02  0.60746020402E+02  0.78061402441E+02  0.00000000000E+00 0. -1.
         11    1    1    2    0    0  0.24357487498E+02  0.13025117052E+02 -0.10513759557E+02  0.29554695252E+02  0.00000000000E+00 0.  1.
</event>
<event>
 7    1  0.2856214E-009  0.2008970E+03  0.7561462E-02  0.1148984E+00
          2   -1    0    0  501    0  0.00000000000E+00  0.00000000000E+00  0.74743649541E+03  0.74743649541E+03  0.00000000000E+00 0. -1.
         -2   -1    0    0    0  501 -0.00000000000E+00 -0.00000000000E+00 -0.64496449466E+02  0.64496449466E+02  0.00000000000E+00 0.  1.
         25    2    1    2    0    0  0.18882927454E+03 -0.45460736126E+01  0.36901623022E+03  0.43301029152E+03  0.12509105759E+03 0.  0.
          5    1    3    3  502    0  0.17553409724E+03  0.99210359020E+01  0.37313713940E+03  0.41250387082E+03  0.41800000000E+01 0.  1.
         -5    1    3    3    0  502  0.13295177299E+02 -0.14467109515E+02 -0.41209091826E+01  0.20506420693E+02  0.41800000000E+01 0.  1.
        -11    1    1    2    0    0 -0.14876218137E+03  0.38119124517E+02  0.18914805560E+03  0.24363957231E+03  0.00000000000E+00 0. -1.
         11    1    1    2    0    0 -0.40067093169E+02 -0.33573050904E+02  0.12477576013E+03  0.13528308105E+03  0.00000000000E+00 0.  1.
</event>
<event>
 7    1  0.3110471E-009  0.8614927E+02  0.7561462E-02  0.1312454E+00
          1   -1    0    0  501    0  0.00000000000E+00  0.00000000000E+00  0.17342758109E+03  0.17342758109E+03  0.00000000000E+00 0. -1.
         -1   -1    0    0    0  501 -0.00000000000E+00 -0.00000000000E+00 -0.94599262532E+02  0.94599262532E+02  0.00000000000E+00 0.  1.
         25    2    1    2    0    0 -0.60741268088E+02  0.22523314577E+02  0.64118435470E+02  0.15477446724E+03  0.12508861097E+03 0.  0.
          5    1    3    3  502    0 -0.52081796137E+02  0.18497801124E+02  0.10167320405E+03  0.11579980552E+03  0.41800000000E+01 0. -1.
         -5    1    3    3    0  502 -0.86594719510E+01  0.40255134532E+01 -0.37554768583E+02  0.38974661722E+02  0.41800000000E+01 0. -1.
        -11    1    1    2    0    0  0.71502363156E+02  0.99923831576E+01  0.26682307208E+02  0.76970001792E+02  0.00000000000E+00 0.  1.
         11    1    1    2    0    0 -0.10761095068E+02 -0.32515697735E+02 -0.11972424123E+02  0.36282374586E+02  0.00000000000E+00 0. -1.
</event>
<event>
 7    1  0.2856214E-009  0.1143757E+03  0.7561462E-02  0.1252675E+00
          1   -1    0    0  501    0  0.00000000000E+00  0.00000000000E+00  0.10322750418E+03  0.10322750418E+03  0.00000000000E+00 0. -1.
         -1   -1    0    0    0  501 -0.00000000000E+00 -0.00000000000E+00 -0.13976805893E+03  0.13976805893E+03  0.00000000000E+00 0.  1.
         25    2    1    2    0    0 -0.40327645692E+02 -0.23368742571E+02  0.17541690226E+01  0.13350311228E+03  0.12509031435E+03 0.  0.
          5    1    3    3  502    0 -0.23667310998E+02 -0.74596947083E+02 -0.73247000713E+01  0.78714482499E+02  0.41800000000E+01 0. -1.
         -5    1    3    3    0  502 -0.16660334694E+02  0.51228204512E+02  0.90788690939E+01  0.54788629785E+02  0.41800000000E+01 0. -1.
        -11    1    1    2    0    0  0.53120895751E+02 -0.15574136126E+02 -0.40269504061E+02  0.68454482971E+02  0.00000000000E+00 0.  1.
         11    1    1    2    0    0 -0.12793250060E+02  0.38942878697E+02  0.19747802911E+01  0.41037967853E+02  0.00000000000E+00 0. -1.
</event>
<event>
 7    1  0.2856214E-009  0.1260926E+03  0.7561462E-02  0.1233372E+00
          2   -1    0    0  501    0  0.00000000000E+00  0.00000000000E+00  0.87425792693E+03  0.87425792693E+03  0.00000000000E+00 0. -1.
         -2   -1    0    0    0  501 -0.00000000000E+00 -0.00000000000E+00 -0.29201748326E+02  0.29201748326E+02  0.00000000000E+00 0.  1.
         25    2    1    2    0    0  0.48898354311E+01  0.11541001464E+03  0.39266923569E+03  0.42799296050E+03  0.12508182768E+03 0.  0.
          5    1    3    3  502    0  0.67777394167E+01  0.12454393681E+03  0.39754170764E+03  0.41667014731E+03  0.41800000000E+01 0. -1.
         -5    1    3    3    0  502 -0.18879039856E+01 -0.91339221676E+01 -0.48724719530E+01  0.11322813191E+02  0.41800000000E+01 0. -1.
        -11    1    1    2    0    0 -0.10551832873E+02 -0.34973297353E+02  0.35801630116E+02  0.51149090155E+02  0.00000000000E+00 0.  1.
         11    1    1    2    0    0  0.56619974420E+01 -0.80436717289E+02  0.41658531280E+03  0.42431762459E+03  0.00000000000E+00 0. -1.
</event>
<event>
 7    1  0.2856214E-009  0.9350058E+02  0.7561462E-02  0.1294589E+00
         -1   -1    0    0    0  501 -0.00000000000E+00  0.00000000000E+00  0.16552687007E+03  0.16552687007E+03  0.00000000000E+00 0. -1.
          1   -1    0    0  501    0  0.00000000000E+00 -0.00000000000E+00 -0.79476485675E+02  0.79476485675E+02  0.00000000000E+00 0.  1.
         25    2    1    2    0    0  0.37863042210E+02  0.20005288678E+02  0.64905081484E+02  0.14727205167E+03  0.12507024451E+03 0.  0.
          5    1    3    3  502    0 -0.53055018646E+01 -0.46546629612E+02  0.45628994468E+02  0.65530257244E+02  0.41800000000E+01 0. -1.
         -5    1    3    3    0  502  0.43168544074E+02  0.66551918291E+02  0.19276087016E+02  0.81741794428E+02  0.41800000000E+01 0. -1.
        -11    1    1    2    0    0 -0.45415280741E+02 -0.76575478459E+01 -0.22852207001E+02  0.51414094649E+02  0.00000000000E+00 0.  1.
         11    1    1    2    0    0  0.75522385310E+01 -0.12347740832E+02  0.43997509914E+02  0.46317209427E+02  0.00000000000E+00 0. -1.
</event>
<event>
 7    1  0.2856214E-009  0.2255954E+03  0.7561462E-02  0.1129779E+00
         -2   -1    0    0    0  501 -0.00000000000E+00  0.00000000000E+00  0.14132368931E+03  0.14132368931E+03  0.00000000000E+00 0.  1.
          2   -1    0    0  501    0  0.00000000000E+00 -0.00000000000E+00 -0.38232153355E+03  0.38232153355E+03  0.00000000000E+00 0. -1.
         25    2    1    2    0    0 -0.20248879055E+03  0.27508829913E+02 -0.10974895248E+03  0.26353542631E+03  0.12509053652E+03 0.  0.
          5    1    3    3  502    0 -0.85736398180E+02 -0.37751098955E+02 -0.86768079073E+02  0.12775776842E+03  0.41800000000E+01 0.  1.
         -5    1    3    3    0  502 -0.11675239237E+03  0.65259928868E+02 -0.22980873409E+02  0.13577765789E+03  0.41800000000E+01 0.  1.
        -11    1    1    2    0    0  0.16892098550E+03 -0.57647382738E+02 -0.11414093301E+03  0.21186239088E+03  0.00000000000E+00 0. -1.
         11    1    1    2    0    0  0.33567805046E+02  0.30138552826E+02 -0.17107958748E+02  0.48247405677E+02  0.00000000000E+00 0.  1.
</event>
<event>
 7    1  0.2856214E-009  0.7728993E+02  0.7561462E-02  0.1336923E+00
         -1   -1    0    0    0  501 -0.00000000000E+00  0.00000000000E+00  0.81192623214E+02  0.81192623214E+02  0.00000000000E+00 0.  1.
          1   -1    0    0  501    0  0.00000000000E+00 -0.00000000000E+00 -0.22126447078E+03  0.22126447078E+03  0.00000000000E+00 0. -1.
         25    2    1    2    0    0  0.27948276425E+02  0.52261162090E+02 -0.13680515894E+03  0.19461467812E+03  0.12508751420E+03 0.  0.
          5    1    3    3  502    0  0.15065576274E+02  0.87972743197E+01  0.22589292692E+02  0.28846354505E+02  0.41800000000E+01 0. -1.
         -5    1    3    3    0  502  0.12882700151E+02  0.43463887770E+02 -0.15939445163E+03  0.16576832362E+03  0.41800000000E+01 0. -1.
        -11    1    1    2    0    0 -0.63558296786E+01 -0.65486389012E+02  0.24551868202E+02  0.70225764140E+02  0.00000000000E+00 0.  1.
         11    1    1    2    0    0 -0.21592446746E+02  0.13225226923E+02 -0.27818556832E+02  0.37616651736E+02  0.00000000000E+00 0. -1.
</event>
<event>
 7    1  0.5155671E-009  0.1084977E+03  0.7561462E-02  0.1263377E+00
         -1   -1    0    0    0  501 -0.00000000000E+00  0.00000000000E+00  0.39711436479E+02  0.39711436479E+02  0.00000000000E+00 0.  1.
          1   -1    0    0  501    0  0.00000000000E+00 -0.00000000000E+00 -0.38335397393E+03  0.38335397393E+03  0.00000000000E+00 0. -1.
         25    2    1    2    0    0  0.46759836430E+02  0.13671387845E+02 -0.24742230266E+03  0.28149641827E+03  0.12509615700E+03 0.  0.
          5    1    3    3  502    0 -0.32995437625E+02 -0.78641909486E+01 -0.14929362328E+03  0.15315548556E+03  0.41800000000E+01 0. -1.
         -5    1    3    3    0  502  0.79755274055E+02  0.21535578794E+02 -0.98128679383E+02  0.12834093272E+03  0.41800000000E+01 0. -1.
        -11    1    1    2    0    0 -0.35510821492E+02  0.35171331607E+02 -0.29217429623E+02  0.57893861538E+02  0.00000000000E+00 0. -1.
         11    1    1    2    0    0 -0.11249014938E+02 -0.48842719452E+02 -0.67002805167E+02  0.83675130599E+02  0.00000000000E+00 0.  1.
</event>
<event>
 7    1  0.2856214E-009  0.1319370E+03  0.7561462E-02  0.1224610E+00
          1   -1    0    0  501    0  0.00000000000E+00  0.00000000000E+00  0.37253935394E+02  0.37253935394E+02  0.00000000000E+00 0. -1.
         -1   -1    0    0    0  501 -0.00000000000E+00 -0.00000000000E+00 -0.51689975665E+03  0.51689975665E+03  0.00000000000E+00 0.  1.
         25    2    1    2    0    0  0.59293497806E+02 -0.62122863104E+02 -0.23865199266E+03  0.28280234786E+03  0.12508966926E+03 0.  0.
          5    1    3    3  502    0  0.91273503674E+02 -0.65722239615E+02 -0.21488962356E+03  0.24258047730E+03  0.41800000000E+01 0. -1.
         -5    1    3    3    0  502 -0.31980005868E+02  0.35993765115E+01 -0.23762369102E+02  0.40221870567E+02  0.41800000000E+01 0. -1.
        -11    1    1    2    0    0 -0.65546000011E+02  0.99172815372E+01 -0.17391943855E+03  0.18612523121E+03  0.00000000000E+00 0.  1.
         11    1    1    2    0    0  0.62525022048E+01  0.52205581567E+02 -0.67074390054E+02  0.85226112968E+02  0.00000000000E+00 0. -1.
</event>
<event>
 7    1  0.2856214E-009  0.1570613E+03  0.7561462E-02  0.1192055E+00
          2   -1    0    0  501    0  0.00000000000E+00  0.00000000000E+00  0.52409104975E+03  0.52409104975E+03  0.00000000000E+00 0. -1.
         -2   -1    0    0    0  501 -0.00000000000E+00 -0.00000000000E+00 -0.12092740184E+03  0.12092740184E+03  0.00000000000E+00 0.  1.
         25    2    1    2    0    0 -0.49482256842E+02 -0.10699538774E+03 -0.40887210820E+02  0.17667859702E+03  0.12508819248E+03 0.  0.
          5    1    3    3  502    0  0.20010137181E+02  0.18912973226E+02 -0.94655906717E+01  0.29413873478E+02  0.41800000000E+01 0. -1.
         -5    1    3    3    0  502 -0.69492394023E+02 -0.12590836096E+03 -0.31421620148E+02  0.14726472354E+03  0.41800000000E+01 0. -1.
        -11    1    1    2    0    0 -0.18287133588E+02  0.52005008941E+02  0.10950845378E+03  0.12260114869E+03  0.00000000000E+00 0.  1.
         11    1    1    2    0    0  0.67769390430E+02  0.54990378794E+02  0.33454240494E+03  0.34573870588E+03  0.00000000000E+00 0. -1.
</event>
<event>
 7    1  0.2856214E-009  0.5678081E+03  0.7561462E-02  0.9974541E-01
         -1   -1    0    0    0  501 -0.00000000000E+00  0.00000000000E+00  0.16973879154E+03  0.16973879154E+03  0.00000000000E+00 0.  1.
          1   -1    0    0  501    0  0.00000000000E+00 -0.00000000000E+00 -0.19707064895E+04  0.19707064895E+04  0.00000000000E+00 0. -1.
         25    2    1    2    0    0 -0.27173882733E+03 -0.49827308108E+03 -0.91882994281E+03  0.10872047379E+04  0.12509046625E+03 0.  0.
          5    1    3    3  502    0 -0.55762414770E+02 -0.10525922616E+03 -0.30122691827E+03  0.32395073744E+03  0.41800000000E+01 0.  1.
         -5    1    3    3    0  502 -0.21597641256E+03 -0.39301385492E+03 -0.61760302454E+03  0.76325400049E+03  0.41800000000E+01 0.  1.
        -11    1    1    2    0    0  0.24128018159E+03  0.42709513329E+03 -0.69459921646E+03  0.85034960482E+03  0.00000000000E+00 0.  1.
         11    1    1    2    0    0  0.30458645746E+02  0.71177947788E+02 -0.18753853871E+03  0.20289093832E+03  0.00000000000E+00 0. -1.
</event>
<event>
 7    1  0.2856214E-009  0.1001577E+03  0.7561462E-02  0.1279965E+00
         -1   -1    0    0    0  501 -0.00000000000E+00  0.00000000000E+00  0.39890698846E+03  0.39890698846E+03  0.00000000000E+00 0.  1.
          1   -1    0    0  501    0  0.00000000000E+00 -0.00000000000E+00 -0.69468884711E+02  0.69468884711E+02  0.00000000000E+00 0. -1.
         25    2    1    2    0    0  0.75900847781E+01  0.66229365644E+02  0.32595739254E+03  0.35544300271E+03  0.12509024007E+03 0.  0.
          5    1    3    3  502    0 -0.51421852545E+02  0.24194535557E+02  0.21825806019E+03  0.22557401381E+03  0.41800000000E+01 0. -1.
         -5    1    3    3    0  502  0.59011937323E+02  0.42034830087E+02  0.10769933235E+03  0.12986898889E+03  0.41800000000E+01 0. -1.
        -11    1    1    2    0    0  0.78791830531E+01 -0.35409061033E+02  0.45746821551E+02  0.58383686170E+02  0.00000000000E+00 0.  1.
         11    1    1    2    0    0 -0.15469267831E+02 -0.30820304611E+02 -0.42266110344E+02  0.54549184294E+02  0.00000000000E+00 0. -1.
</event>
<event>
 7    1  0.3864342E-009  0.9206415E+02  0.7561462E-02  0.1297929E+00
          1   -1    0    0  501    0  0.00000000000E+00  0.00000000000E+00  0.62965314235E+03  0.62965314235E+03  0.00000000000E+00 0. -1.
         -1   -1    0    0    0  501 -0.00000000000E+00 -0.00000000000E+00 -0.28149137922E+02  0.28149137922E+02  0.00000000000E+00 0.  1.
         25    2    1    2    0    0 -0.68764460372E+02 -0.34130730324E+02  0.35157387986E+03  0.38098177305E+03  0.12509780427E+03 0.  0.
          5    1    3    3  502    0 -0.13619763020E+02  0.21668525745E+02  0.25578784034E+03  0.25709903660E+03  0.41800000000E+01 0. -1.
         -5    1    3    3    0  502 -0.55144697352E+02 -0.55799256069E+02  0.95786039512E+02  0.12388273645E+03  0.41800000000E+01 0. -1.
        -11    1    1    2    0    0  0.25101639983E+02  0.24175957252E+02  0.15484133417E+02  0.38135647714E+02  0.00000000000E+00 0.  1.
         11    1    1    2    0    0  0.43662820389E+02  0.99547730712E+01  0.23444599115E+03  0.23868485951E+03  0.00000000000E+00 0. -1.
</event>
<event>
 7    1  0.2856214E-009  0.2732126E+03  0.7561462E-02  0.1099455E+00
         -1   -1    0    0    0  501 -0.00000000000E+00  0.00000000000E+00  0.22345518205E+03  0.22345518205E+03  0.00000000000E+00 0.  1.
          1   -1    0    0  501    0  0.00000000000E+00 -0.00000000000E+00 -0.38490959423E+03  0.38490959423E+03  0.00000000000E+00 0. -1.
         25    2    1    2    0    0  0.23972570194E+03 -0.98494507875E+02 -0.16867511207E+03  0.33356963251E+03  0.12509127087E+03 0.  0.
          5    1    3    3  502    0 -0.17902447522E+01 -0.37805259218E+02 -0.15067059165E+02  0.40950351314E+02  0.41800000000E+01 0. -1.
         -5    1    3    3    0  502  0.24151594670E+03 -0.60689248656E+02 -0.15360805290E+03  0.29261928120E+03  0.41800000000E+01 0. -1.
        -11    1    1    2    0    0 -0.18390744338E+02  0.98440577115E+01  0.28612574119E+02  0.35409099780E+02  0.00000000000E+00 0. -1.
         11    1    1    2    0    0 -0.22133495761E+03  0.88650450163E+02 -0.21391874230E+02  0.23938604399E+03  0.00000000000E+00 0.  1.
</event>
<event>
 7    1  0.2856214E-009  0.1149068E+03  0.7561462E-02  0.1251744E+00
         -1   -1    0    0    0  501 -0.00000000000E+00  0.00000000000E+00  0.43908971067E+02  0.43908971067E+02  0.00000000000E+00 0.  1.
          1   -1    0    0  501    0  0.00000000000E+00 -0.00000000000E+00 -0.36506061108E+03  0.36506061108E+03  0.00000000000E+00 0. -1.
         25    2    1    2    0    0 -0.14319222532E+02  0.48190748119E+02 -0.23620751454E+03  0.27197220602E+03  0.12508997795E+03 0.  0.
          5    1    3    3  502    0  0.23127927142E+02 -0.35761435620E+02 -0.74526427840E+02  0.85938595160E+02  0.41800000000E+01 0.  1.
         -5    1    3    3    0  502 -0.37447149674E+02  0.83952183739E+02 -0.16168108670E+03  0.18603361086E+03  0.41800000000E+01 0.  1.
        -11    1    1    2    0    0  0.30754739748E+02 -0.64741652001E+02 -0.30742531280E+02  0.77989991347E+02  0.00000000000E+00 0. -1.
         11    1    1    2    0    0 -0.16435517215E+02  0.16550903882E+02 -0.54201594202E+02  0.59007384787E+02  0.00000000000E+00 0.  1.
</event>
<event>
 7    1  0.2856214E-009  0.1089166E+03  0.7561462E-02  0.1262589E+00
          1   -1    0    0  501    0  0.00000000000E+00  0.00000000000E+00  0.41187738293E+03  0.41187738293E+03  0.00000000000E+00 0. -1.
         -1   -1    0    0    0  501 -0.00000000000E+00 -0.00000000000E+00 -0.33184035248E+02  0.33184035248E+02  0.00000000000E+00 0.  1.
         25    2    1    2    0    0  0.86710235749E+01 -0.38027474317E+02  0.24060365535E+03  0.27396776079E+03  0.12508772735E+03 0.  0.
          5    1    3    3  502    0  0.33930823699E+02 -0.76419134523E+02  0.17194396947E+03  0.19124169512E+03  0.41800000000E+01 0.  1.
         -5    1    3    3    0  502 -0.25259800124E+02  0.38391660206E+02  0.68659685881E+02  0.82726065669E+02  0.41800000000E+01 0.  1.
        -11    1    1    2    0    0 -0.30524363248E+02  0.53221185506E+02  0.12920802208E+03  0.14303476608E+03  0.00000000000E+00 0. -1.
         11    1    1    2    0    0  0.21853339674E+02 -0.15193711189E+02  0.88816702520E+01  0.28058891301E+02  0.00000000000E+00 0.  1.
</event>
<event>
 7    1  0.2856214E-009  0.6153433E+02  0.7561462E-02  0.1391503E+00
          2   -1    0    0  501    0  0.00000000000E+00  0.00000000000E+00  0.52934846678E+03  0.52934846678E+03  0.00000000000E+00 0. -1.
         -2   -1    0    0    0  501 -0.00000000000E+00 -0.00000000000E+00 -0.25126562743E+02  0.25126562743E+02  0.00000000000E+00 0.  1.
         25    2    1    2    0    0  0.14210724488E+02  0.12879518773E+02  0.21696351815E+03  0.25117350014E+03  0.12508849775E+03 0.  0.
          5    1    3    3  502    0  0.95340402384E+01  0.16392809177E+02  0.23289069674E+03  0.23369888991E+03  0.41800000000E+01 0.  1.
         -5    1    3    3    0  502  0.46766842494E+01 -0.35132904040E+01 -0.15927178587E+02  0.17474610233E+02  0.41800000000E+01 0.  1.
        -11    1    1    2    0    0 -0.40586173390E+02 -0.41149347308E+02  0.19151654574E+03  0.20004772817E+03  0.00000000000E+00 0.  1.
         11    1    1    2    0    0  0.26375448903E+02  0.28269828535E+02  0.95741840143E+02  0.10325380121E+03  0.00000000000E+00 0. -1.
</event>
<event>
 7    1  0.2856214E-009  0.1311975E+03  0.7561462E-02  0.1225690E+00
          1   -1    0    0  501    0  0.00000000000E+00  0.00000000000E+00  0.53564838471E+03  0.53564838471E+03  0.00000000000E+00 0. -1.
         -1   -1    0    0    0  501 -0.00000000000E+00 -0.00000000000E+00 -0.43427753758E+02  0.43427753758E+02  0.00000000000E+00 0.  1.
         25    2    1    2    0    0 -0.30224889874E+02 -0.99883334923E+02  0.30831643947E+03  0.34870149441E+03  0.12507390131E+03 0.  0.
          5    1    3    3  502    0 -0.49302341610E+02 -0.51010089405E+02  0.54692842643E+02  0.89674575804E+02  0.41800000000E+01 0.  1.
         -5    1    3    3    0  502  0.19077451736E+02 -0.48873245519E+02  0.25362359683E+03  0.25902691860E+03  0.41800000000E+01 0.  1.
        -11    1    1    2    0    0  0.41046610325E+02  0.29379658250E+01  0.51725277957E+02  0.66098110730E+02  0.00000000000E+00 0.  1.
         11    1    1    2    0    0 -0.10821720451E+02  0.96945369098E+02  0.13217891352E+03  0.16427653333E+03  0.00000000000E+00 0. -1.
</event>
<event>
 7    1  0.2856214E-009  0.9496465E+02  0.7561462E-02  0.1291256E+00
         -3   -1    0    0    0  501 -0.00000000000E+00  0.00000000000E+00  0.68466630229E+02  0.68466630229E+02  0.00000000000E+00 0.  1.
          3   -1    0    0  501    0  0.00000000000E+00 -0.00000000000E+00 -0.28115498423E+03  0.28115498423E+03  0.00000000000E+00 0. -1.
         25    2    1    2    0    0 -0.78758877434E+02  0.10587935773E+02 -0.73274800903E+02  0.16532275019E+03  0.12508936856E+03 0.  0.
          5    1    3    3  502    0 -0.99743711235E+01  0.24157648602E+02 -0.89421056371E+02  0.93255979903E+02  0.41800000000E+01 0. -1.
         -5    1    3    3    0  502 -0.68784506310E+02 -0.13569712828E+02  0.16146255468E+02  0.72066770291E+02  0.41800000000E+01 0. -1.
        -11    1    1    2    0    0  0.91618266749E+01 -0.20946872339E+02  0.52256754702E+01  0.23452467097E+02  0.00000000000E+00 0.  1.
         11    1    1    2    0    0  0.69597050759E+02  0.10358936565E+02 -0.14463922857E+03  0.16084639717E+03  0.00000000000E+00 0. -1.
</event>
<event>
 7    1  0.2856214E-009  0.3407509E+03  0.7561462E-02  0.1066477E+00
          1   -1    0    0  501    0  0.00000000000E+00  0.00000000000E+00  0.40286968826E+03  0.40286968826E+03  0.00000000000E+00 0. -1.
         -1   -1    0    0    0  501 -0.00000000000E+00 -0.00000000000E+00 -0.29385507902E+03  0.29385507902E+03  0.00000000000E+00 0.  1.
         25    2    1    2    0    0 -0.28631999793E+03 -0.15431464742E+03  0.81785316131E+02  0.35795110212E+03  0.12509197398E+03 0.  0.
          5    1    3    3  502    0 -0.17196434967E+03 -0.24596504417E+02  0.23123803011E+02  0.17529662932E+03  0.41800000000E+01 0. -1.
         -5    1    3    3    0  502 -0.11435564826E+03 -0.12971814300E+03  0.58661513120E+02  0.18265447280E+03  0.41800000000E+01 0. -1.
        -11    1    1    2    0    0  0.25367318983E+02  0.45364557551E+02  0.20610811562E+02  0.55912874255E+02  0.00000000000E+00 0.  1.
         11    1    1    2    0    0  0.26095267895E+03  0.10895008987E+03  0.66184815409E+01  0.28286079090E+03  0.00000000000E+00 0. -1.
</event>
<event>
 7    1  0.2856214E-009  0.1207292E+03  0.7561462E-02  0.1241899E+00
         -2   -1    0    0    0  501 -0.00000000000E+00  0.00000000000E+00  0.19250813889E+02  0.19250813889E+02  0.00000000000E+00 0.  1.
          2   -1    0    0  501    0  0.00000000000E+00 -0.00000000000E+00 -0.10701890477E+04  0.10701890477E+04  0.00000000000E+00 0. -1.
         25    2    1    2    0    0 -0.81427599901E+02 -0.46982217889E+02 -0.57206689579E+03  0.59308097688E+03  0.12508688605E+03 0.  0.
          5    1    3    3  502    0 -0.10344054484E+02  0.29389091673E+02 -0.40047231574E+02  0.50911406671E+02  0.41800000000E+01 0. -1.
         -5    1    3    3    0  502 -0.71083545417E+02 -0.76371309561E+02 -0.53201966421E+03  0.54216957021E+03  0.41800000000E+01 0. -1.
        -11    1    1    2    0    0  0.75797064667E+02  0.56506366159E+02 -0.47547824776E+03  0.48478627097E+03  0.00000000000E+00 0. -1.
         11    1    1    2    0    0  0.56305352346E+01 -0.95241482706E+01 -0.33930902737E+01  0.11572613746E+02  0.00000000000E+00 0.  1.
</event>
<event>
 7    1  0.2856214E-009  0.6674213E+02  0.7561462E-02  0.1371536E+00
         -2   -1    0    0    0  501 -0.00000000000E+00  0.00000000000E+00  0.11108630251E+03  0.11108630251E+03  0.00000000000E+00 0. -1.
          2   -1    0    0  501    0  0.00000000000E+00 -0.00000000000E+00 -0.11474265600E+03  0.11474265600E+03  0.00000000000E+00 0.  1.
         25    2    1    2    0    0 -0.25522357540E+02  0.57320030186E+01  0.12663922337E+02  0.12842356107E+03  0.12509192426E+03 0.  0.
          5    1    3    3  502    0 -0.10714154529E+02 -0.24429858984E+02  0.62551414324E+02  0.68130484742E+02  0.41800000000E+01 0.  1.
         -5    1    3    3    0  502 -0.14808203011E+02  0.30161862002E+02 -0.49887491987E+02  0.60293076324E+02  0.41800000000E+01 0.  1.
        -11    1    1    2    0    0  0.73627779877E+01  0.30884812291E+02 -0.39294375311E+02  0.50518611036E+02  0.00000000000E+00 0.  1.
         11    1    1    2    0    0  0.18159579553E+02 -0.36616815310E+02  0.22974099477E+02  0.46886786408E+02  0.00000000000E+00 0. -1.
</event>
<event>
 7    1  0.2856214E-009  0.1065465E+03  0.7561462E-02  0.1267102E+00
         -2   -1    0    0    0  501 -0.00000000000E+00  0.00000000000E+00  0.37161555638E+03  0.37161555638E+03  0.00000000000E+00 0.  1.
          2   -1    0    0  501    0  0.00000000000E+00 -0.00000000000E+00 -0.34728718544E+02  0.34728718544E+02  0.00000000000E+00 0. -1.
         25    2    1    2    0    0  0.11807830918E+01 -0.21507398351E+02  0.14489017133E+03  0.19262634582E+03  0.12509110650E+03 0.  0.
          5    1    3    3  502    0  0.42875111611E+02  0.31089326122E+02  0.34431788506E+02  0.63307518149E+02  0.41800000000E+01 0.  1.
         -5    1    3    3    0  502 -0.41694328519E+02 -0.52596724473E+02  0.11045838282E+03  0.12931882768E+03  0.41800000000E+01 0.  1.
        -11    1    1    2    0    0  0.40997692263E+02 -0.72997770945E+01  0.69835933514E+02  0.81309010117E+02  0.00000000000E+00 0. -1.
         11    1    1    2    0    0 -0.42178475355E+02  0.28807175446E+02  0.12216073299E+03  0.13240891898E+03  0.00000000000E+00 0.  1.
</event>
<event>
 7    1  0.2856214E-009  0.1152405E+03  0.7561462E-02  0.1251162E+00
          1   -1    0    0  501    0  0.00000000000E+00  0.00000000000E+00  0.64098442354E+03  0.64098442354E+03  0.00000000000E+00 0. -1.
         -1   -1    0    0    0  501 -0.00000000000E+00 -0.00000000000E+00 -0.27433997705E+02  0.27433997705E+02  0.00000000000E+00 0.  1.
         25    2    1    2    0    0  0.15570226232E+02  0.63213934470E+02  0.44224712845E+03  0.46418570911E+03  0.12508963373E+03 0.  0.
          5    1    3    3  502    0  0.57187064671E+02  0.48859487902E+02  0.38253475246E+03  0.38988192978E+03  0.41800000000E+01 0. -1.
         -5    1    3    3    0  502 -0.41616838439E+02  0.14354446568E+02  0.59712375988E+02  0.74303779339E+02  0.41800000000E+01 0. -1.
        -11    1    1    2    0    0  0.26177709508E+02 -0.64026484626E+02  0.11368633683E+03  0.13307609248E+03  0.00000000000E+00 0.  1.
         11    1    1    2    0    0 -0.41747935740E+02  0.81255015593E+00  0.57616960558E+02  0.71156619652E+02  0.00000000000E+00 0. -1.
</event>
<event>
 7    1  0.3223264E-009  0.1398277E+03  0.7561462E-02  0.1213561E+00
          1   -1    0    0  501    0  0.00000000000E+00  0.00000000000E+00  0.10717022247E+04  0.10717022247E+04  0.00000000000E+00 0. -1.
         -1   -1    0    0    0  501 -0.00000000000E+00 -0.00000000000E+00 -0.24304523521E+02  0.24304523521E+02  0.00000000000E+00 0.  1.
         25    2    1    2    0    0  0.14585642408E+02  0.10553770217E+03  0.74217992104E+03  0.76015156515E+03  0.12509364199E+03 0.  0.
          5    1    3    3  502    0  0.61120665038E+02  0.29051474314E+02  0.21596532753E+03  0.22635860697E+03  0.41800000000E+01 0. -1.
         -5    1    3    3    0  502 -0.46535022630E+02  0.76486227857E+02  0.52621459351E+03  0.53379295818E+03  0.41800000000E+01 0. -1.
        -11    1    1    2    0    0  0.23437989061E+02 -0.35678895986E+02  0.38342904368E+02  0.57380321238E+02  0.00000000000E+00 0.  1.
         11    1    1    2    0    0 -0.38023631469E+02 -0.69858806185E+02  0.26687487573E+03  0.27847486179E+03  0.00000000000E+00 0. -1.
</event>
<event>
 7    1  0.2856214E-009  0.1111432E+03  0.7561462E-02  0.1258467E+00
         -2   -1    0    0    0  501 -0.00000000000E+00  0.00000000000E+00  0.26794230181E+03  0.26794230181E+03  0.00000000000E+00 0.  1.
          2   -1    0    0  501    0  0.00000000000E+00 -0.00000000000E+00 -0.59231563765E+02  0.59231563765E+02  0.00000000000E+00 0. -1.
         25    2    1    2    0    0  0.39624439133E+02 -0.28207697180E+02  0.62720770393E+02  0.14814551325E+03  0.12508967863E+03 0.  0.
          5    1    3    3  502    0  0.31946895854E+02 -0.76056961821E+02  0.24121672328E+02  0.86049945218E+02  0.41800000000E+01 0. -1.
         -5    1    3    3    0  502  0.76775432791E+01  0.47849264641E+02  0.38599098065E+02  0.62095568029E+02  0.41800000000E+01 0. -1.
        -11    1    1    2    0    0 -0.62491865818E+02  0.13737291804E+02  0.13578834555E+03  0.15010803199E+03  0.00000000000E+00 0. -1.
         11    1    1    2    0    0  0.22867426685E+02  0.14470405376E+02  0.10201622095E+02  0.28920320336E+02  0.00000000000E+00 0.  1.
</event>
<event>
 7    1  0.2856214E-009  0.8925093E+02  0.7561462E-02  0.1304676E+00
          1   -1    0    0  501    0  0.00000000000E+00  0.00000000000E+00  0.14821008021E+03  0.14821008021E+03  0.00000000000E+00 0. -1.
         -1   -1    0    0    0  501 -0.00000000000E+00 -0.00000000000E+00 -0.96220094081E+02  0.96220094081E+02  0.00000000000E+00 0.  1.
         25    2    1    2    0    0 -0.45775153444E+02 -0.17720885391E+01  0.85594068582E+01  0.13348961518E+03  0.12509080280E+03 0.  0.
          5    1    3    3  502    0  0.19606747713E+02 -0.33443967895E+02  0.38504745504E+02  0.54799738783E+02  0.41800000000E+01 0.  1.
         -5    1    3    3    0  502 -0.65381901157E+02  0.31671879356E+02 -0.29945338645E+02  0.78689876397E+02  0.41800000000E+01 0.  1.
        -11    1    1    2    0    0  0.45898935879E+02 -0.16270368603E+02 -0.14058921309E+02  0.50686196125E+02  0.00000000000E+00 0.  1.
         11    1    1    2    0    0 -0.12378243434E+00  0.18042457142E+02  0.57489500585E+02  0.60254362990E+02  0.00000000000E+00 0. -1.
</event>
<event>
 7    1  0.2856214E-009  0.1270090E+03  0.7561462E-02  0.1231963E+00
         -1   -1    0    0    0  501 -0.00000000000E+00  0.00000000000E+00  0.28805310230E+02  0.28805310230E+02  0.00000000000E+00 0.  1.
          1   -1    0    0  501    0  0.00000000000E+00 -0.00000000000E+00 -0.93125319073E+03  0.93125319073E+03  0.00000000000E+00 0. -1.
         25    2    1    2    0    0  0.40843685051E+02  0.92524723848E+02 -0.68586840616E+03  0.70447998565E+03  0.12509016142E+03 0.  0.
          5    1    3    3  502    0  0.87351121578E+01  0.94808710597E+02 -0.25231934503E+03  0.26971747823E+03  0.41800000000E+01 0. -1.
         -5    1    3    3    0  502  0.32108572893E+02 -0.22839867483E+01 -0.43354906113E+03  0.43476250742E+03  0.41800000000E+01 0. -1.
        -11    1    1    2    0    0  0.20851315349E+02 -0.40505329336E+02 -0.12743192436E+03  0.13533053758E+03  0.00000000000E+00 0. -1.
         11    1    1    2    0    0 -0.61695000400E+02 -0.52019394513E+02 -0.89147549983E+02  0.12024797773E+03  0.00000000000E+00 0.  1.
</event>
<event>
 7    1  0.2856214E-009  0.2734009E+03  0.7561462E-02  0.1099349E+00
          4   -1    0    0  501    0  0.00000000000E+00  0.00000000000E+00  0.54520470689E+03  0.54520470689E+03  0.00000000000E+00 0. -1.
         -4   -1    0    0    0  501 -0.00000000000E+00 -0.00000000000E+00 -0.15686444712E+03  0.15686444712E+03  0.00000000000E+00 0.  1.
         25    2    1    2    0    0 -0.24694711851E+03  0.97269798563E+02  0.13151471302E+03  0.32154042883E+03  0.12509130498E+03 0.  0.
          5    1    3    3  502    0 -0.20156931204E+03  0.72171210569E+02  0.42320649385E+02  0.21828280041E+03  0.41800000000E+01 0. -1.
         -5    1    3    3    0  502 -0.45377806467E+02  0.25098587994E+02  0.89194063636E+02  0.10325762842E+03  0.41800000000E+01 0. -1.
        -11    1    1    2    0    0  0.16066267563E+03 -0.10814467153E+03  0.18299761058E+03  0.26645054100E+03  0.00000000000E+00 0. -1.
         11    1    1    2    0    0  0.86284442880E+02  0.10874872970E+02  0.73827936175E+02  0.11407818418E+03  0.00000000000E+00 0.  1.
</event>
<event>
 7    1  0.2856214E-009  0.6004529E+02  0.7561462E-02  0.1397642E+00
          1   -1    0    0  501    0  0.00000000000E+00  0.00000000000E+00  0.31813695502E+03  0.31813695502E+03  0.00000000000E+00 0. -1.
         -1   -1    0    0    0  501 -0.00000000000E+00 -0.00000000000E+00 -0.39014869055E+02  0.39014869055E+02  0.00000000000E+00 0.  1.
         25    2    1    2    0    0 -0.17903932316E+02  0.20302433807E+02  0.15043279701E+03  0.19751138663E+03  0.12509189350E+03 0.  0.
          5    1    3    3  502    0  0.15128159363E+02 -0.11083322012E+02 -0.15937557792E+02  0.24963561062E+02  0.41800000000E+01 0. -1.
         -5    1    3    3    0  502 -0.33032091679E+02  0.31385755819E+02  0.16637035481E+03  0.17254782556E+03  0.41800000000E+01 0. -1.
        -11    1    1    2    0    0  0.29266384359E+02 -0.28700746317E+02  0.13716838007E+03  0.14316221074E+03  0.00000000000E+00 0. -1.
         11    1    1    2    0    0 -0.11362452043E+02  0.83983125102E+01 -0.84790911147E+01  0.16478226712E+02  0.00000000000E+00 0.  1.
</event>
<event>
 7    1  0.2856214E-009  0.2361980E+03  0.7561462E-02  0.1122352E+00
          4   -1    0    0  501    0  0.00000000000E+00  0.00000000000E+00  0.51163603490E+03  0.51163603490E+03  0.00000000000E+00 0. -1.
         -4   -1    0    0    0  501 -0.00000000000E+00 -0.00000000000E+00 -0.12092423399E+03  0.12092423399E+03  0.00000000000E+00 0.  1.
         25    2    1    2    0    0 -0.18143176633E+03 -0.12347798583E+03  0.14461901241E+03  0.29107754202E+03  0.12508868013E+03 0.  0.
          5    1    3    3  502    0 -0.52171240093E+02  0.22687769006E+02  0.25996217002E+02  0.62688506552E+02  0.41800000000E+01 0.  1.
         -5    1    3    3    0  502 -0.12926052624E+03 -0.14616575483E+03  0.11862279541E+03  0.22838903546E+03  0.41800000000E+01 0.  1.
        -11    1    1    2    0    0  0.10096418171E+03  0.57963110199E+02  0.66514778276E+02  0.13408096010E+03  0.00000000000E+00 0.  1.
         11    1    1    2    0    0  0.80467584621E+02  0.65514875629E+02  0.17957801023E+03  0.20740176677E+03  0.00000000000E+00 0. -1.
</event>
<event>
 7    1  0.2856214E-009  0.1242780E+03  0.7561462E-02  0.1236202E+00
         -1   -1    0    0    0  501 -0.00000000000E+00  0.00000000000E+00  0.57779243480E+02  0.57779243480E+02  0.00000000000E+00 0.  1.
          1   -1    0    0  501    0  0.00000000000E+00 -0.00000000000E+00 -0.35726978282E+03  0.35726978282E+03  0.00000000000E+00 0. -1.
         25    2    1    2    0    0  0.52365758965E+02  0.73660155605E+02 -0.12075398404E+03  0.19595189000E+03  0.12509047645E+03 0.  0.
          5    1    3    3  502    0  0.76261857387E+02 -0.16923088391E+00 -0.54463916652E+02  0.93806663667E+02  0.41800000000E+01 0.  1.
         -5    1    3    3    0  502 -0.23896098422E+02  0.73829386489E+02 -0.66290067385E+02  0.10214522634E+03  0.41800000000E+01 0.  1.
        -11    1    1    2    0    0 -0.46560704171E+02 -0.43387512146E+02 -0.36100451936E+02  0.73168422240E+02  0.00000000000E+00 0.  1.
         11    1    1    2    0    0 -0.58050547938E+01 -0.30272643459E+02 -0.14263610337E+03  0.14592871406E+03  0.00000000000E+00 0. -1.
</event>
<event>
 7    1  0.2856214E-009  0.2560026E+03  0.7561462E-02  0.1109569E+00
          1   -1    0    0  501    0  0.00000000000E+00  0.00000000000E+00  0.21248005655E+03  0.21248005655E+03  0.00000000000E+00 0. -1.
         -1   -1    0    0    0  501 -0.00000000000E+00 -0.00000000000E+00 -0.39150297178E+03  0.39150297178E+03  0.00000000000E+00 0.  1.
         25    2    1    2    0    0  0.63900480657E+02 -0.23656843626E+03  0.19476201061E+02  0.27581651314E+03  0.12509008773E+03 0.  0.
          5    1    3    3  502    0  0.37975651935E+01 -0.11414249379E+03 -0.47568922182E+02  0.12378693448E+03  0.41800000000E+01 0. -1.
         -5    1    3    3    0  502  0.60102915463E+02 -0.12242594247E+03  0.67045123243E+02  0.15202957866E+03  0.41800000000E+01 0. -1.
        -11    1    1    2    0    0  0.11710155629E+02  0.13045533920E+03 -0.96279035312E+02  0.16255883831E+03  0.00000000000E+00 0.  1.
         11    1    1    2    0    0 -0.75610636286E+02  0.10611309706E+03 -0.10222008098E+03  0.16560767688E+03  0.00000000000E+00 0. -1.
</event>
<event>
 7    1  0.2856214E-009  0.1127073E+03  0.7561462E-02  0.1255637E+00
          2   -1    0    0  501    0  0.00000000000E+00  0.00000000000E+00  0.90271420556E+03  0.90271420556E+03  0.00000000000E+00 0. -1.
         -2   -1    0    0    0  501 -0.00000000000E+00 -0.00000000000E+00 -0.20929669707E+02  0.20929669707E+02  0.00000000000E+00 0.  1.
         25    2    1    2    0    0 -0.73615921899E+01  0.69289584790E+02  0.61249850907E+03  0.62901311680E+03  0.12509131821E+03 0.  0.
          5    1    3    3  502    0  0.14080263555E+02  0.81079394554E+02  0.58931257741E+03  0.59504529940E+03  0.41800000000E+01 0.  1.
         -5    1    3    3    0  502 -0.21441855745E+02 -0.11789809764E+02  0.23185931666E+02  0.33967817406E+02  0.41800000000E+01 0.  1.
        -11    1    1    2    0    0  0.35898266963E+02 -0.80020692659E+02  0.21779647255E+03  0.23479203624E+03  0.00000000000E+00 0. -1.
         11    1    1    2    0    0 -0.28536674773E+02  0.10731107870E+02  0.51489554226E+02  0.59838722225E+02  0.00000000000E+00 0.  1.
</event>
<event>
 7    1  0.2856214E-009  0.6400493E+02  0.7561462E-02  0.1381754E+00
         -2   -1    0    0    0  501 -0.00000000000E+00  0.00000000000E+00  0.23372739880E+02  0.23372739880E+02  0.00000000000E+00 0.  1.
          2   -1    0    0  501    0  0.00000000000E+00 -0.00000000000E+00 -0.67590652615E+03  0.67590652615E+03  0.00000000000E+00 0. -1.
         25    2    1    2    0    0 -0.70484919262E+01 -0.32359055640E+02 -0.21867677597E+03  0.25409630377E+03  0.12509440243E+03 0.  0.
          5    1    3    3  502    0 -0.29153241391E+01 -0.12213786955E+01 -0.22215633184E+03  0.22221813396E+03  0.41800000000E+01 0. -1.
         -5    1    3    3    0  502 -0.41331677871E+01 -0.31137676945E+02  0.34795558709E+01  0.31878169811E+02  0.41800000000E+01 0. -1.
        -11    1    1    2    0    0 -0.45909311222E+01 -0.28628015345E+02 -0.65502662647E+02  0.71632665209E+02  0.00000000000E+00 0.  1.
         11    1    1    2    0    0  0.11639423048E+02  0.60987070985E+02 -0.36835434765E+03  0.37355029705E+03  0.00000000000E+00 0. -1.
</event>
<event>
 7    1  0.2856214E-009  0.1405159E+03  0.7561462E-02  0.1212636E+00
         -4   -1    0    0    0  501 -0.00000000000E+00  0.00000000000E+00  0.11220880678E+03  0.11220880678E+03  0.00000000000E+00 0.  1.
          4   -1    0    0  501    0  0.00000000000E+00 -0.00000000000E+00 -0.34275551134E+03  0.34275551134E+03  0.00000000000E+00 0. -1.
         25    2    1    2    0    0 -0.13393809450E+03 -0.35898031659E+02 -0.14781989029E+03  0.23817348132E+03  0.12509118835E+03 0.  0.
          5    1    3    3  502    0 -0.10198648011E+03 -0.37910609072E+02 -0.16792640305E+03  0.20013796653E+03  0.41800000000E+01 0.  1.
         -5    1    3    3    0  502 -0.31951614396E+02  0.20125774130E+01  0.20106512758E+02  0.38035514794E+02  0.41800000000E+01 0.  1.
        -11    1    1    2    0    0  0.89251840460E+01  0.75106407292E+01  0.38576331727E+02  0.40301389603E+02  0.00000000000E+00 0.  1.
         11    1    1    2    0    0  0.12501291046E+03  0.28387390929E+02 -0.12130314599E+03  0.17648944720E+03  0.00000000000E+00 0. -1.
</event>
<event>
 7    1  0.2856214E-009  0.1033068E+03  0.7561462E-02  0.1273492E+00
          1   -1    0    0  501    0  0.00000000000E+00  0.00000000000E+00  0.29556066891E+02  0.29556066891E+02  0.00000000000E+00 0. -1.
         -1   -1    0    0    0  501 -0.00000000000E+00 -0.00000000000E+00 -0.58273794429E+03  0.58273794429E+03  0.00000000000E+00 0.  1.
         25    2    1    2    0    0  0.33781389813E+02 -0.49161777895E+02 -0.40538876062E+03  0.42842186447E+03  0.12508870460E+03 0.  0.
          5    1    3    3  502    0  0.44320037030E+02 -0.85649672837E+02 -0.33109081047E+03  0.34487494736E+03  0.41800000000E+01 0.  1.
         -5    1    3    3    0  502 -0.10538647218E+02  0.36487894942E+02 -0.74297950143E+02  0.83546917106E+02  0.41800000000E+01 0.  1.
        -11    1    1    2    0    0 -0.38217616586E+02  0.21476274882E+02 -0.12332552681E+02  0.45540185067E+02  0.00000000000E+00 0. -1.
         11    1    1    2    0    0  0.44362267735E+01  0.27685503014E+02 -0.13546056410E+03  0.13833196164E+03  0.00000000000E+00 0.  1.
</event>
<event>
 7    1  0.2856214E-009  0.2233110E+03  0.7561462E-02  0.1131438E+00
          1   -1    0    0  501    0  0.00000000000E+00  0.00000000000E+00  0.77189980372E+03  0.77189980372E+03  0.00000000000E+00 0. -1.
         -1   -1    0    0    0  501 -0.00000000000E+00 -0.00000000000E+00 -0.67848168396E+02  0.67848168396E+02  0.00000000000E+00 0.  1.
         25    2    1    2    0    0  0.16949626329E+02  0.19624352763E+03  0.44230874565E+03  0.50008280554E+03  0.12508786492E+03 0.  0.
          5    1    3    3  502    0  0.64001722895E+02  0.16206639243E+03  0.34795197735E+03  0.38916550083E+03  0.41800000000E+01 0.  1.
         -5    1    3    3    0  502 -0.47052096567E+02  0.34177135194E+02  0.94356768295E+02  0.11091730471E+03  0.41800000000E+01 0.  1.
        -11    1    1    2    0    0 -0.45988927257E+02 -0.65130436007E+02  0.73566282150E+02  0.10848480536E+03  0.00000000000E+00 0. -1.
         11    1    1    2    0    0  0.29039300928E+02 -0.13111309162E+03  0.18817660752E+03  0.23118036121E+03  0.00000000000E+00 0.  1.
</event>
<event>
 7    1  0.2856214E-009  0.1208686E+03  0.7561462E-02  0.1241671E+00
         -4   -1    0    0    0  501 -0.00000000000E+00  0.00000000000E+00  0.27049025109E+03  0.27049025109E+03  0.00000000000E+00 0.  1.
          4   -1    0    0  501    0  0.00000000000E+00 -0.00000000000E+00 -0.58759572172E+02  0.58759572172E+02  0.00000000000E+00 0. -1.
         25    2    1    2    0    0  0.38345878412E+02  0.41119874296E+02  0.15830182037E+03  0.20944858602E+03  0.12509193979E+03 0.  0.
          5    1    3    3  502    0  0.34116500809E+02  0.85556463459E+02  0.10250455173E+03  0.13787131534E+03  0.41800000000E+01 0. -1.
         -5    1    3    3    0  502  0.42293776025E+01 -0.44436589163E+02  0.55797268636E+02  0.71577270684E+02  0.41800000000E+01 0. -1.
        -11    1    1    2    0    0 -0.47747032874E+02  0.13229070460E+02  0.38255710511E+02  0.62596220655E+02  0.00000000000E+00 0. -1.
         11    1    1    2    0    0  0.94011544624E+01 -0.54348944756E+02  0.15173148040E+02  0.57205016587E+02  0.00000000000E+00 0.  1.
</event>
<event>
 7    1  0.2856214E-009  0.1593287E+03  0.7561462E-02  0.1189457E+00
          4   -1    0    0  501    0  0.00000000000E+00  0.00000000000E+00  0.71571012946E+02  0.71571012946E+02  0.00000000000E+00 0. -1.
         -4   -1    0    0    0  501 -0.00000000000E+00 -0.00000000000E+00 -0.40110268405E+03  0.40110268405E+03  0.00000000000E+00 0.  1.
         25    2    1    2    0    0  0.77757075227E+00  0.12584154473E+03 -0.14833719808E+03  0.23127085969E+03  0.12508232173E+03 0.  0.
          5    1    3    3  502    0  0.50974376867E+02  0.11433411176E+03 -0.11282540140E+03  0.16857556113E+03  0.41800000000E+01 0. -1.
         -5    1    3    3    0  502 -0.50196806115E+02  0.11507432973E+02 -0.35511796683E+02  0.62695298560E+02  0.41800000000E+01 0. -1.
        -11    1    1    2    0    0 -0.32966613395E+02 -0.66731619062E+02 -0.14950873042E+03  0.16701127822E+03  0.00000000000E+00 0.  1.
         11    1    1    2    0    0  0.32189042643E+02 -0.59109925671E+02 -0.31685742600E+02  0.74391559086E+02  0.00000000000E+00 0. -1.
</event>
<event>
 7    1  0.2856214E-009  0.1787866E+03  0.7561462E-02  0.1168983E+00
          2   -1    0    0  501    0  0.00000000000E+00  0.00000000000E+00  0.58767801080E+03  0.58767801080E+03  0.00000000000E+00 0. -1.
         -2   -1    0    0    0  501 -0.00000000000E+00 -0.00000000000E+00 -0.75093711827E+02  0.75093711827E+02  0.00000000000E+00 0.  1.
         25    2    1    2    0    0  0.14285552479E+03 -0.10666852327E+03  0.23474715916E+03  0.32021898649E+03  0.12509234892E+03 0.  0.
          5    1    3    3  502    0  0.23781213749E+02 -0.11287143906E+02  0.13565604086E+03  0.13824970006E+03  0.41800000000E+01 0.  1.
         -5    1    3    3    0  502  0.11907431104E+03 -0.95381379367E+02  0.99091118302E+02  0.18196928644E+03  0.41800000000E+01 0.  1.
        -11    1    1    2    0    0 -0.43255597239E+02  0.33414693406E+02  0.22988257742E+02  0.59296276628E+02  0.00000000000E+00 0.  1.
         11    1    1    2    0    0 -0.99599927550E+02  0.73253829867E+02  0.25484888207E+03  0.28325645951E+03  0.00000000000E+00 0. -1.
</event>
<event>
 7    1  0.2856214E-009  0.8356463E+02  0.7561462E-02  0.1319229E+00
          1   -1    0    0  501    0  0.00000000000E+00  0.00000000000E+00  0.55536104825E+02  0.55536104825E+02  0.00000000000E+00 0. -1.
         -1   -1    0    0    0  501 -0.00000000000E+00 -0.00000000000E+00 -0.26324862531E+03  0.26324862531E+03  0.00000000000E+00 0.  1.
         25    2    1    2    0    0 -0.52706554340E+02 -0.25166117497E+02 -0.12039635180E+03  0.18317652916E+03  0.12508814879E+03 0.  0.
          5    1    3    3  502    0  0.73393543839E+01 -0.25719869085E+02  0.17827963370E+02  0.32414294169E+02  0.41800000000E+01 0. -1.
         -5    1    3    3    0  502 -0.60045908724E+02  0.55375158775E+00 -0.13822431517E+03  0.15076223499E+03  0.41800000000E+01 0. -1.
        -11    1    1    2    0    0  0.63628468456E+02  0.26369612957E+02 -0.98328370692E+02  0.12005168457E+03  0.00000000000E+00 0.  1.
         11    1    1    2    0    0 -0.10921914116E+02 -0.12034954601E+01  0.11012202012E+02  0.15556516398E+02  0.00000000000E+00 0. -1.
</event>
<event>
 7    1  0.2856214E-009  0.2392498E+03  0.7561462E-02  0.1120294E+00
          2   -1    0    0  501    0  0.00000000000E+00  0.00000000000E+00  0.11539880330E+04  0.11539880330E+04  0.00000000000E+00 0. -1.
         -2   -1    0    0    0  501 -0.00000000000E+00 -0.00000000000E+00 -0.59231946515E+02  0.59231946515E+02  0.00000000000E+00 0.  1.
         25    2    1    2    0    0  0.18813353388E+03 -0.14274464853E+03  0.61353414917E+03  0.66921028092E+03  0.12509191278E+03 0.  0.
          5    1    3    3  502    0  0.11239425544E+03 -0.88135323786E+02  0.51039917199E+03  0.53002367034E+03  0.41800000000E+01 0. -1.
         -5    1    3    3    0  502  0.75739278437E+02 -0.54609324742E+02  0.10313497718E+03  0.13918661058E+03  0.41800000000E+01 0. -1.
        -11    1    1    2    0    0 -0.14257919878E+03  0.76671712623E+02  0.23759392444E+03  0.28750348237E+03  0.00000000000E+00 0.  1.
         11    1    1    2    0    0 -0.45554335091E+02  0.66072935904E+02  0.24362801288E+03  0.25650621623E+03  0.00000000000E+00 0. -1.
</event>
<event>
 7    1  0.2856214E-009  0.1239969E+03  0.7561462E-02  0.1236645E+00
         -1   -1    0    0    0  501 -0.00000000000E+00  0.00000000000E+00  0.79316662740E+02  0.79316662740E+02  0.00000000000E+00 0.  1.
          1   -1    0    0  501    0  0.00000000000E+00 -0.00000000000E+00 -0.20186698526E+03  0.20186698526E+03  0.00000000000E+00 0. -1.
         25    2    1    2    0    0 -0.55680730271E+02 -0.33525190362E+02 -0.82416084172E+02  0.16329013000E+03  0.12508786317E+03 0.  0.
          5    1    3    3  502    0 -0.54936462086E+01 -0.73880434727E+02 -0.29564124274E+02  0.79874956202E+02  0.41800000000E+01 0.  1.
         -5    1    3    3    0  502 -0.50187084062E+02  0.40355244365E+02 -0.52851959898E+02  0.83415173796E+02  0.41800000000E+01 0.  1.
        -11    1    1    2    0    0 -0.18464995720E+02  0.29750468628E+02 -0.37489584512E+01  0.35215069785E+02  0.00000000000E+00 0. -1.
         11    1    1    2    0    0  0.74145725991E+02  0.37747217347E+01 -0.36385279901E+02  0.82678448222E+02  0.00000000000E+00 0.  1.
</event>
<event>
 7    1  0.2856214E-009  0.8858301E+02  0.7561462E-02  0.1306320E+00
         -2   -1    0    0    0  501 -0.00000000000E+00  0.00000000000E+00  0.97657584516E+02  0.97657584516E+02  0.00000000000E+00 0.  1.
          2   -1    0    0  501    0  0.00000000000E+00 -0.00000000000E+00 -0.28462085051E+03  0.28462085051E+03  0.00000000000E+00 0. -1.
         25    2    1    2    0    0  0.20769810741E+02 -0.22271090173E+02 -0.23979359010E+03  0.27216960185E+03  0.12509172565E+03 0.  0.
          5    1    3    3  502    0  0.67259414419E+02  0.24416692496E+01 -0.84309035148E+02  0.10795960534E+03  0.41800000000E+01 0. -1.
         -5    1    3    3    0  502 -0.46489603678E+02 -0.24712759422E+02 -0.15548455495E+03  0.16420999652E+03  0.41800000000E+01 0. -1.
        -11    1    1    2    0    0  0.10100667501E+02 -0.85951079959E+01 -0.20706950269E+02  0.24590184116E+02  0.00000000000E+00 0. -1.
         11    1    1    2    0    0 -0.30870478242E+02  0.30866198168E+02  0.73537274366E+02  0.85518649063E+02  0.00000000000E+00 0.  1.
</event>
<event>
 7    1  0.2856214E-009  0.1341330E+03  0.7561462E-02  0.1221449E+00
         -1   -1    0    0    0  501 -0.00000000000E+00  0.00000000000E+00  0.91648873025E+02  0.91648873025E+02  0.00000000000E+00 0.  1.
          1   -1    0    0  501    0  0.00000000000E+00 -0.00000000000E+00 -0.24092699484E+03  0.24092699484E+03  0.00000000000E+00 0. -1.
         25    2    1    2    0    0  0.76801380809E+02 -0.61835984904E+02 -0.58441393293E+02  0.16965938036E+03  0.12508704078E+03 0.  0.
          5    1    3    3  502    0  0.70471833137E+02  0.69209641507E+00  0.15752385656E+02  0.72335111232E+02  0.41800000000E+01 0. -1.
         -5    1    3    3    0  502  0.63295476720E+01 -0.62528081319E+02 -0.74193778949E+02  0.97324269131E+02  0.41800000000E+01 0. -1.
        -11    1    1    2    0    0 -0.75972505333E+02  0.83563836303E+02 -0.81393497030E+02  0.13921076705E+03  0.00000000000E+00 0.  1.
         11    1    1    2    0    0 -0.82887547571E+00 -0.21727851400E+02 -0.94432314887E+01  0.23705720448E+02  0.00000000000E+00 0. -1.
</event>
<event>
 7    1  0.2856214E-009  0.9760453E+02  0.7561462E-02  0.1285415E+00
          2   -1    0    0  501    0  0.00000000000E+00  0.00000000000E+00  0.10541458508E+04  0.10541458508E+04  0.00000000000E+00 0. -1.
         -2   -1    0    0    0  501 -0.00000000000E+00 -0.00000000000E+00 -0.14641275255E+02  0.14641275255E+02  0.00000000000E+00 0.  1.
         25    2    1    2    0    0  0.34207092485E+02 -0.23454170921E+02  0.78859582562E+03  0.79953180100E+03  0.12508997289E+03 0.  0.
          5    1    3    3  502    0 -0.27427426986E+02 -0.32161797078E+02  0.10753576158E+03  0.11562031552E+03  0.41800000000E+01 0.  1.
         -5    1    3    3    0  502  0.61634519471E+02  0.87076261565E+01  0.68106006404E+03  0.68391148548E+03  0.41800000000E+01 0.  1.
        -11    1    1    2    0    0 -0.13290626403E+02  0.52723294190E+02  0.97016268365E+02  0.11121395069E+03  0.00000000000E+00 0. -1.
         11    1    1    2    0    0 -0.20916466083E+02 -0.29269123269E+02  0.15389248158E+03  0.15804137439E+03  0.00000000000E+00 0.  1.
</event>
<event>
 7    1  0.4329834E-009  0.1565861E+03  0.7561462E-02  0.1192606E+00
          2   -1    0    0  501    0  0.00000000000E+00  0.00000000000E+00  0.89714638901E+03  0.89714638901E+03  0.00000000000E+00 0. -1.
         -2   -1    0    0    0  501 -0.00000000000E+00 -0.00000000000E+00 -0.51573344313E+02  0.51573344313E+02  0.00000000000E+00 0.  1.
         25    2    1    2    0    0 -0.13871913343E+03 -0.46338821446E+00  0.71069992748E+03  0.73483767858E+03  0.12509522062E+03 0.  0.
          5    1    3    3  502    0 -0.70650748389E+02  0.49269905368E+02  0.20907447011E+03  0.22616069127E+03  0.41800000000E+01 0. -1.
         -5    1    3    3    0  502 -0.68068385038E+02 -0.49733293582E+02  0.50162545737E+03  0.50867698731E+03  0.41800000000E+01 0. -1.
        -11    1    1    2    0    0  0.88144342748E+02 -0.15502003903E+02  0.13363153717E+03  0.16083259934E+03  0.00000000000E+00 0. -1.
         11    1    1    2    0    0  0.50574790679E+02  0.15965392118E+02  0.12415800399E+01  0.53049455404E+02  0.00000000000E+00 0.  1.
</event>
<event>
 7    1  0.2856214E-009  0.1181137E+03  0.7561462E-02  0.1246242E+00
         -2   -1    0    0    0  501 -0.00000000000E+00  0.00000000000E+00  0.96979157224E+02  0.96979157224E+02  0.00000000000E+00 0.  1.
          2   -1    0    0  501    0  0.00000000000E+00 -0.00000000000E+00 -0.15810651285E+03  0.15810651285E+03  0.00000000000E+00 0. -1.
         25    2    1    2    0    0 -0.52727366126E+02  0.17693310566E+02 -0.13069623243E+02  0.13751940108E+03  0.12509013648E+03 0.  0.
          5    1    3    3  502    0 -0.93835652558E+02  0.12374409581E+02 -0.36720545496E+01  0.94811455469E+02  0.41800000000E+01 0. -1.
         -5    1    3    3    0  502  0.41108286433E+02  0.53189009853E+01 -0.93975686931E+01  0.42707945613E+02  0.41800000000E+01 0. -1.
        -11    1    1    2    0    0  0.70233418794E+02  0.58620657897E+01 -0.52501585793E+02  0.87883522014E+02  0.00000000000E+00 0. -1.
         11    1    1    2    0    0 -0.17506052669E+02 -0.23555376356E+02  0.44438534063E+01  0.29682746982E+02  0.00000000000E+00 0.  1.
</event>
<event>
 7    1  0.2856214E-009  0.2473298E+03  0.7561462E-02  0.1115004E+00
         -2   -1    0    0    0  501 -0.00000000000E+00  0.00000000000E+00  0.32838249104E+02  0.32838249104E+02  0.00000000000E+00 0.  1.
          2   -1    0    0  501    0  0.00000000000E+00 -0.00000000000E+00 -0.22766154470E+04  0.22766154470E+04  0.00000000000E+00 0. -1.
         25    2    1    2    0    0  0.43395390900E+02 -0.22113570414E+03 -0.16304628491E+04  0.16507091794E+04  0.12509010013E+03 0.  0.
          5    1    3    3  502    0 -0.22154116679E+01  0.15092200891E+02 -0.67257531552E+02  0.69092188611E+02  0.41800000000E+01 0. -1.
         -5    1    3    3    0  502  0.45610802567E+02 -0.23622790503E+03 -0.15632053175E+04  0.15816169908E+04  0.41800000000E+01 0. -1.
        -11    1    1    2    0    0 -0.23133588083E+02  0.85437159092E+01 -0.40512883232E+02  0.47428384822E+02  0.00000000000E+00 0.  1.
         11    1    1    2    0    0 -0.20261802817E+02  0.21259198823E+03 -0.57280146558E+03  0.61131613187E+03  0.00000000000E+00 0. -1.
</event>
<event>
 7    1  0.2856214E-009  0.8259944E+02  0.7561462E-02  0.1321832E+00
         -1   -1    0    0    0  501 -0.00000000000E+00  0.00000000000E+00  0.51239296407E+02  0.51239296407E+02  0.00000000000E+00 0.  1.
          1   -1    0    0  501    0  0.00000000000E+00 -0.00000000000E+00 -0.29234902167E+03  0.29234902167E+03  0.00000000000E+00 0. -1.
         25    2    1    2    0    0  0.27351619712E+02 -0.38453328417E+02 -0.83163372732E+02  0.15745059762E+03  0.12509106506E+03 0.  0.
          5    1    3    3  502    0 -0.23348024028E+02  0.31802016112E+01 -0.88327069780E+02  0.91511679934E+02  0.41800000000E+01 0.  1.
         -5    1    3    3    0  502  0.50699643740E+02 -0.41633530028E+02  0.51636970481E+01  0.65938917683E+02  0.41800000000E+01 0.  1.
        -11    1    1    2    0    0 -0.45206936286E+02  0.18750581255E+02 -0.34547009396E+02  0.59906153640E+02  0.00000000000E+00 0.  1.
         11    1    1    2    0    0  0.17855316574E+02  0.19702747162E+02 -0.12339934313E+03  0.12623156682E+03  0.00000000000E+00 0. -1.
</event>
<event>
 7    1  0.2856214E-009  0.1148048E+03  0.7561462E-02  0.1251922E+00
          2   -1    0    0  501    0  0.00000000000E+00  0.00000000000E+00  0.42060941624E+03  0.42060941624E+03  0.00000000000E+00 0.  1.
         -2   -1    0    0    0  501 -0.00000000000E+00 -0.00000000000E+00 -0.45933126203E+02  0.45933126203E+02  0.00000000000E+00 0. -1.
         25    2    1    2    0    0 -0.49678147875E+02 -0.56652184911E+02  0.28014895093E+03  0.31592411343E+03  0.12508885764E+03 0.  0.
          5    1    3    3  502    0 -0.71952447469E+02 -0.29401423816E+02  0.76237107196E+02  0.10895488669E+03  0.41800000000E+01 0. -1.
         -5    1    3    3    0  502  0.22274299593E+02 -0.27250761094E+02  0.20391184374E+03  0.20696922674E+03  0.41800000000E+01 0. -1.
        -11    1    1    2    0    0 -0.58336706805E+01 -0.20480228831E+02  0.10396122489E+02  0.23697064151E+02  0.00000000000E+00 0. -1.
         11    1    1    2    0    0  0.55511818556E+02  0.77132413742E+02  0.84131216611E+02  0.12692136486E+03  0.00000000000E+00 0.  1.
</event>
<event>
 7    1  0.2856214E-009  0.1142138E+03  0.7561462E-02  0.1252960E+00
          2   -1    0    0  501    0  0.00000000000E+00  0.00000000000E+00  0.25317070822E+03  0.25317070822E+03  0.00000000000E+00 0.  1.
         -2   -1    0    0    0  501 -0.00000000000E+00 -0.00000000000E+00 -0.69189730407E+02  0.69189730407E+02  0.00000000000E+00 0. -1.
         25    2    1    2    0    0 -0.42148516575E+02  0.15651215572E+02  0.26972903727E+02  0.13563496950E+03  0.12509136428E+03 0.  0.
          5    1    3    3  502    0 -0.83990785527E+02 -0.21210679651E+01  0.31350774135E+02  0.89773573069E+02  0.41800000000E+01 0. -1.
         -5    1    3    3    0  502  0.41842268951E+02  0.17772283537E+02 -0.43778704081E+01  0.45861396429E+02  0.41800000000E+01 0. -1.
        -11    1    1    2    0    0 -0.27553436777E+02 -0.19823501368E+01  0.63914180006E+02  0.69628614780E+02  0.00000000000E+00 0. -1.
         11    1    1    2    0    0  0.69701953353E+02 -0.13668865435E+02  0.93093894079E+02  0.11709685435E+03  0.00000000000E+00 0.  1.
</event>
<event>
 7    1  0.2856214E-009  0.1320576E+03  0.7561462E-02  0.1224434E+00
         -1   -1    0    0    0  501 -0.00000000000E+00  0.00000000000E+00  0.73749692577E+02  0.73749692577E+02  0.00000000000E+00 0.  1.
          1   -1    0    0  501    0  0.00000000000E+00 -0.00000000000E+00 -0.35220749683E+03  0.35220749683E+03  0.00000000000E+00 0. -1.
         25    2    1    2    0    0 -0.11576661884E+03  0.24465922803E+02 -0.16686946886E+03  0.23977811705E+03  0.12509050468E+03 0.  0.
          5    1    3    3  502    0 -0.14443768575E+01  0.11023635419E+01 -0.10966184285E+03  0.10975651966E+03  0.41800000000E+01 0. -1.
         -5    1    3    3    0  502 -0.11432224198E+03  0.23363559262E+02 -0.57207626005E+02  0.13002159738E+03  0.41800000000E+01 0. -1.
        -11    1    1    2    0    0  0.12017568485E+03 -0.39993597285E+02 -0.11331305843E+03  0.16994567445E+03  0.00000000000E+00 0. -1.
         11    1    1    2    0    0 -0.44090660126E+01  0.15527674481E+02  0.17247230444E+01  0.16233397903E+02  0.00000000000E+00 0.  1.
</event>
<event>
 7    1  0.2856214E-009  0.1234546E+03  0.7561462E-02  0.1237504E+00
          1   -1    0    0  501    0  0.00000000000E+00  0.00000000000E+00  0.28908397102E+02  0.28908397102E+02  0.00000000000E+00 0. -1.
         -1   -1    0    0    0  501 -0.00000000000E+00 -0.00000000000E+00 -0.72187516793E+03  0.72187516793E+03  0.00000000000E+00 0.  1.
         25    2    1    2    0    0  0.29034919668E+02 -0.71995153867E+02 -0.22121308949E+03  0.26572637719E+03  0.12509575466E+03 0.  0.
          5    1    3    3  502    0 -0.32593834203E+01 -0.10245037603E+03 -0.15740570761E+03  0.18788489114E+03  0.41800000000E+01 0. -1.
         -5    1    3    3    0  502  0.32294303088E+02  0.30455222166E+02 -0.63807381876E+02  0.77841486053E+02  0.41800000000E+01 0. -1.
        -11    1    1    2    0    0 -0.43232134922E+02  0.73692230535E+02 -0.45535275738E+03  0.46329871140E+03  0.00000000000E+00 0.  1.
         11    1    1    2    0    0  0.14197215254E+02 -0.16970766680E+01 -0.16400923956E+02  0.21758476436E+02  0.00000000000E+00 0. -1.
</event>
<event>
 7    1  0.2856214E-009  0.1021425E+03  0.7561462E-02  0.1275854E+00
          1   -1    0    0  501    0  0.00000000000E+00  0.00000000000E+00  0.97706082444E+02  0.97706082444E+02  0.00000000000E+00 0. -1.
         -1   -1    0    0    0  501 -0.00000000000E+00 -0.00000000000E+00 -0.22722700050E+03  0.22722700050E+03  0.00000000000E+00 0.  1.
         25    2    1    2    0    0  0.33580619614E+01  0.47240283599E+02 -0.17115258935E+03  0.21721870930E+03  0.12509131807E+03 0.  0.
          5    1    3    3  502    0  0.20648070532E+02 -0.35237259566E+02 -0.95277691843E+02  0.10374641315E+03  0.41800000000E+01 0. -1.
         -5    1    3    3    0  502 -0.17290008570E+02  0.82477543165E+02 -0.75874897504E+02  0.11347229615E+03  0.41800000000E+01 0. -1.
        -11    1    1    2    0    0  0.63041786620E+01  0.14790288467E+02 -0.15863178742E+02  0.22586184745E+02  0.00000000000E+00 0.  1.
         11    1    1    2    0    0 -0.96622406234E+01 -0.62030572067E+02  0.57494850032E+02  0.85128188897E+02  0.00000000000E+00 0. -1.
</event>
<event>
 7    1  0.2856214E-009  0.1034270E+03  0.7561462E-02  0.1273250E+00
         -1   -1    0    0    0  501 -0.00000000000E+00  0.00000000000E+00  0.25112022329E+02  0.25112022329E+02  0.00000000000E+00 0.  1.
          1   -1    0    0  501    0  0.00000000000E+00 -0.00000000000E+00 -0.54556888290E+03  0.54556888290E+03  0.00000000000E+00 0. -1.
         25    2    1    2    0    0 -0.38968087082E+02 -0.24809909293E+02 -0.29472187070E+03  0.32348334114E+03  0.12508576064E+03 0.  0.
          5    1    3    3  502    0 -0.74722060474E+02  0.73486152883E+01 -0.23474121789E+03  0.24649198819E+03  0.41800000000E+01 0. -1.
         -5    1    3    3    0  502  0.35753973392E+02 -0.32158524581E+02 -0.59980652807E+02  0.76991352941E+02  0.41800000000E+01 0. -1.
        -11    1    1    2    0    0  0.34106344000E+02 -0.19178674448E+02 -0.38834579899E+02  0.55128838647E+02  0.00000000000E+00 0.  1.
         11    1    1    2    0    0  0.48617430816E+01  0.43988583741E+02 -0.18690040997E+03  0.19206872544E+03  0.00000000000E+00 0. -1.
</event>
<event>
 7    1  0.2856214E-009  0.1269671E+03  0.7561462E-02  0.1232027E+00
         -1   -1    0    0    0  501 -0.00000000000E+00  0.00000000000E+00  0.49382774331E+02  0.49382774331E+02  0.00000000000E+00 0.  1.
          1   -1    0    0  501    0  0.00000000000E+00 -0.00000000000E+00 -0.69772701511E+03  0.69772701511E+03  0.00000000000E+00 0. -1.
         25    2    1    2    0    0  0.63859262122E+02 -0.62570711660E+02 -0.98250110787E+02  0.18246547717E+03  0.12508983481E+03 0.  0.
          5    1    3    3  502    0  0.77813787641E+02 -0.15028229250E+02 -0.10570972854E+03  0.13218491718E+03  0.41800000000E+01 0.  1.
         -5    1    3    3    0  502 -0.13954525519E+02 -0.47542482409E+02  0.74596177550E+01  0.50280559993E+02  0.41800000000E+01 0.  1.
        -11    1    1    2    0    0 -0.73829335820E+02  0.13849206129E+02 -0.27415672259E+03  0.28426128804E+03  0.00000000000E+00 0. -1.
         11    1    1    2    0    0  0.99700736983E+01  0.48721505531E+02 -0.27593740741E+03  0.28038302423E+03  0.00000000000E+00 0.  1.
</event>
<event>
 7    1  0.2856214E-009  0.1756284E+03  0.7561462E-02  0.1172102E+00
         -2   -1    0    0    0  501 -0.00000000000E+00  0.00000000000E+00  0.52675818457E+02  0.52675818457E+02  0.00000000000E+00 0.  1.
          2   -1    0    0  501    0  0.00000000000E+00 -0.00000000000E+00 -0.67802971254E+03  0.67802971254E+03  0.00000000000E+00 0. -1.
         25    2    1    2    0    0  0.12849518780E+03  0.85443719955E+02 -0.34059861542E+03  0.39429302521E+03  0.12509168770E+03 0.  0.
          5    1    3    3  502    0  0.38193694552E+02 -0.15862791635E+02 -0.17639109827E+03  0.18122273149E+03  0.41800000000E+01 0. -1.
         -5    1    3    3    0  502  0.90301493249E+02  0.10130651159E+03 -0.16420751716E+03  0.21307029372E+03  0.41800000000E+01 0. -1.
        -11    1    1    2    0    0 -0.64363055571E+02  0.32712307982E+01 -0.68631534442E+02  0.94146648338E+02  0.00000000000E+00 0.  1.
         11    1    1    2    0    0 -0.64132132229E+02 -0.88714950753E+02 -0.21612374421E+03  0.24226585745E+03  0.00000000000E+00 0. -1.
</event>
<event>
 7    1  0.2856214E-009  0.9867413E+02  0.7561462E-02  0.1283109E+00
         -1   -1    0    0    0  501 -0.00000000000E+00  0.00000000000E+00  0.47845063520E+03  0.47845063520E+03  0.00000000000E+00 0.  1.
          1   -1    0    0  501    0  0.00000000000E+00 -0.00000000000E+00 -0.29772196487E+02  0.29772196487E+02  0.00000000000E+00 0. -1.
         25    2    1    2    0    0 -0.44196190856E+02  0.22250556071E+02  0.25154955816E+03  0.28526042423E+03  0.12509172191E+03 0.  0.
          5    1    3    3  502    0  0.43564440446E+01 -0.27058830247E+02  0.19163696540E+03  0.19363201648E+03  0.41800000000E+01 0.  1.
         -5    1    3    3    0  502 -0.48552634900E+02  0.49309386318E+02  0.59912592754E+02  0.91628407742E+02  0.41800000000E+01 0.  1.
        -11    1    1    2    0    0 -0.13730381947E+02 -0.37886031878E+02  0.11020780519E+03  0.11734408858E+03  0.00000000000E+00 0.  1.
         11    1    1    2    0    0  0.57926572803E+02  0.15635475807E+02  0.86921075364E+02  0.10561831888E+03  0.00000000000E+00 0. -1.
</event>
<event>
 7    1  0.2856214E-009  0.1093924E+03  0.7561462E-02  0.1261699E+00
          1   -1    0    0  501    0  0.00000000000E+00  0.00000000000E+00  0.84290135318E+03  0.84290135318E+03  0.00000000000E+00 0. -1.
         -1   -1    0    0    0  501 -0.00000000000E+00 -0.00000000000E+00 -0.22570969347E+02  0.22570969347E+02  0.00000000000E+00 0.  1.
         25    2    1    2    0    0  0.26646245288E+02 -0.74490118084E+02  0.45124475691E+03  0.47489741389E+03  0.12508766127E+03 0.  0.
          5    1    3    3  502    0 -0.95000766380E+01  0.90499329999E+01  0.28488257471E+03  0.28521519335E+03  0.41800000000E+01 0. -1.
         -5    1    3    3    0  502  0.36146321926E+02 -0.83540051084E+02  0.16636218220E+03  0.18968222054E+03  0.41800000000E+01 0. -1.
        -11    1    1    2    0    0  0.16704055382E+02  0.68046878835E+02  0.30494440758E+03  0.31289054780E+03  0.00000000000E+00 0. -1.
         11    1    1    2    0    0 -0.43350300670E+02  0.64432392486E+01  0.64141219342E+02  0.77684360838E+02  0.00000000000E+00 0.  1.
</event>
<event>
 7    1  0.2856214E-009  0.1358793E+03  0.7561462E-02  0.1218984E+00
         -1   -1    0    0    0  501 -0.00000000000E+00  0.00000000000E+00  0.77585050672E+02  0.77585050672E+02  0.00000000000E+00 0.  1.
          1   -1    0    0  501    0  0.00000000000E+00 -0.00000000000E+00 -0.32954526362E+03  0.32954526362E+03  0.00000000000E+00 0. -1.
         25    2    1    2    0    0 -0.45960268678E+02  0.84466696615E+02 -0.50714130937E+02  0.16573152147E+03  0.12509214602E+03 0.  0.
          5    1    3    3  502    0 -0.45040217403E+02 -0.17948593800E+02  0.52458499515E+01  0.48946547834E+02  0.41800000000E+01 0.  1.
         -5    1    3    3    0  502 -0.92005127409E+00  0.10241529042E+03 -0.55959980888E+02  0.11678497363E+03  0.41800000000E+01 0.  1.
        -11    1    1    2    0    0  0.12324989913E+02  0.12741027452E+02 -0.28939527495E+01  0.17961462063E+02  0.00000000000E+00 0.  1.
         11    1    1    2    0    0  0.33635278764E+02 -0.97207724068E+02 -0.19835212926E+03  0.22343733076E+03  0.00000000000E+00 0. -1.
</event>
<event>
 7    1  0.2856214E-009  0.1497126E+03  0.7561462E-02  0.1200827E+00
          2   -1    0    0  501    0  0.00000000000E+00  0.00000000000E+00  0.91254874555E+02  0.91254874555E+02  0.00000000000E+00 0. -1.
         -2   -1    0    0    0  501 -0.00000000000E+00 -0.00000000000E+00 -0.29570899465E+03  0.29570899465E+03  0.00000000000E+00 0.  1.
         25    2    1    2    0    0  0.35740444488E+02  0.12026973970E+03 -0.12283597705E+03  0.21558811251E+03  0.12508943735E+03 0.  0.
          5    1    3    3  502    0  0.39844240344E+02 -0.49778867948E+01 -0.44767850728E+00  0.40373452435E+02  0.41800000000E+01 0.  1.
         -5    1    3    3    0  502 -0.41037958557E+01  0.12524762650E+03 -0.12238829854E+03  0.17521466007E+03  0.41800000000E+01 0.  1.
        -11    1    1    2    0    0  0.88789124027E+01 -0.52886437397E+01  0.12509043731E+02  0.16225936433E+02  0.00000000000E+00 0. -1.
         11    1    1    2    0    0 -0.44619356891E+02 -0.11498109596E+03 -0.94127186780E+02  0.15514982027E+03  0.00000000000E+00 0.  1.
</event>
<event>
 7    1  0.3202416E-009  0.1253033E+03  0.7561462E-02  0.1234596E+00
         -2   -1    0    0    0  501 -0.00000000000E+00  0.00000000000E+00  0.65362687676E+02  0.65362687676E+02  0.00000000000E+00 0.  1.
          2   -1    0    0  501    0  0.00000000000E+00 -0.00000000000E+00 -0.29131310832E+03  0.29131310832E+03  0.00000000000E+00 0. -1.
         25    2    1    2    0    0 -0.32834789073E+02 -0.59917214441E+02 -0.58840416289E+02  0.15420503010E+03  0.12509516682E+03 0.  0.
          5    1    3    3  502    0 -0.77491318253E+02 -0.38665678080E+02 -0.58462541302E+02  0.10457189011E+03  0.41800000000E+01 0.  1.
         -5    1    3    3    0  502  0.44656529179E+02 -0.21251536362E+02 -0.37787498629E+00  0.49633139993E+02  0.41800000000E+01 0.  1.
        -11    1    1    2    0    0 -0.95982246240E+00  0.76584654496E+02 -0.10927410990E+03  0.13344272800E+03  0.00000000000E+00 0.  1.
         11    1    1    2    0    0  0.33794611536E+02 -0.16667440054E+02 -0.57835894460E+02  0.69028037889E+02  0.00000000000E+00 0. -1.
</event>
<event>
 7    1  0.2856214E-009  0.1647766E+03  0.7561462E-02  0.1183407E+00
         -2   -1    0    0    0  501 -0.00000000000E+00  0.00000000000E+00  0.84289471074E+02  0.84289471074E+02  0.00000000000E+00 0. -1.
          2   -1    0    0  501    0  0.00000000000E+00 -0.00000000000E+00 -0.48539090942E+03  0.48539090942E+03  0.00000000000E+00 0.  1.
         25    2    1    2    0    0 -0.13671462640E+03 -0.18070261133E+02 -0.35215461175E+03  0.39834411272E+03  0.12509091953E+03 0.  0.
          5    1    3    3  502    0 -0.85082479646E+02  0.49571004326E+02 -0.15656081543E+03  0.18500020038E+03  0.41800000000E+01 0.  1.
         -5    1    3    3    0  502 -0.51632146749E+02 -0.67641265459E+02 -0.19559379632E+03  0.21334391233E+03  0.41800000000E+01 0.  1.
        -11    1    1    2    0    0  0.80336551868E+02  0.33964056550E+02  0.10534500991E+02  0.87854962378E+02  0.00000000000E+00 0. -1.
         11    1    1    2    0    0  0.56378074527E+02 -0.15893795418E+02 -0.59481327588E+02  0.83481305403E+02  0.00000000000E+00 0.  1.
</event>
<event>
 7    1  0.3431129E-009  0.1212504E+03  0.7561462E-02  0.1241048E+00
          2   -1    0    0  501    0  0.00000000000E+00  0.00000000000E+00  0.13936671459E+04  0.13936671459E+04  0.00000000000E+00 0. -1.
         -2   -1    0    0    0  501 -0.00000000000E+00 -0.00000000000E+00 -0.19746613933E+02  0.19746613933E+02  0.00000000000E+00 0.  1.
         25    2    1    2    0    0 -0.23308272089E+02 -0.93769657667E+02  0.10714329240E+04  0.10830291284E+04  0.12509019994E+03 0.  0.
          5    1    3    3  502    0 -0.54590507200E+02 -0.76163930822E+02  0.40930080189E+03  0.41991152243E+03  0.41800000000E+01 0. -1.
         -5    1    3    3    0  502  0.31282235111E+02 -0.17605726845E+02  0.66213212213E+03  0.66311760601E+03  0.41800000000E+01 0. -1.
        -11    1    1    2    0    0  0.34493507811E+02  0.24291198522E+02  0.20984847067E+03  0.21404729629E+03  0.00000000000E+00 0. -1.
         11    1    1    2    0    0 -0.11185235722E+02  0.69478459145E+02  0.92639137262E+02  0.11633733509E+03  0.00000000000E+00 0.  1.
</event>
<event>
 7    1  0.2856214E-009  0.1114482E+03  0.7561462E-02  0.1257911E+00
         -1   -1    0    0    0  501 -0.00000000000E+00  0.00000000000E+00  0.25316701196E+02  0.25316701196E+02  0.00000000000E+00 0.  1.
          1   -1    0    0  501    0  0.00000000000E+00 -0.00000000000E+00 -0.88172830277E+03  0.88172830277E+03  0.00000000000E+00 0. -1.
         25    2    1    2    0    0  0.10865141551E+02  0.62296598024E+02 -0.70969614552E+03  0.72340550217E+03  0.12509190297E+03 0.  0.
          5    1    3    3  502    0  0.38820543559E+01 -0.32220951672E+02 -0.77407166989E+02  0.84039288276E+02  0.41800000000E+01 0. -1.
         -5    1    3    3    0  502  0.69830871951E+01  0.94517549696E+02 -0.63228897853E+03  0.63936621390E+03  0.41800000000E+01 0. -1.
        -11    1    1    2    0    0 -0.39648084051E+02 -0.50490205127E+02 -0.48055489284E+02  0.80190781472E+02  0.00000000000E+00 0.  1.
         11    1    1    2    0    0  0.28782942500E+02 -0.11806392897E+02 -0.98659966773E+02  0.10344872032E+03  0.00000000000E+00 0. -1.
</event>
<event>
 7    1  0.2856214E-009  0.1362564E+03  0.7561462E-02  0.1218457E+00
          1   -1    0    0  501    0  0.00000000000E+00  0.00000000000E+00  0.18567255184E+03  0.18567255184E+03  0.00000000000E+00 0. -1.
         -1   -1    0    0    0  501 -0.00000000000E+00 -0.00000000000E+00 -0.12141362800E+03  0.12141362800E+03  0.00000000000E+00 0.  1.
         25    2    1    2    0    0  0.58994596134E+02 -0.75202549514E+02 -0.99406826910E+01  0.15773965180E+03  0.12508874751E+03 0.  0.
          5    1    3    3  502    0  0.48327099139E+02  0.20088798466E+02  0.21513178651E+02  0.56739383065E+02  0.41800000000E+01 0. -1.
         -5    1    3    3    0  502  0.10667496996E+02 -0.95291347980E+02 -0.31453861342E+02  0.10100026874E+03  0.41800000000E+01 0. -1.
        -11    1    1    2    0    0 -0.58722608670E+02  0.10895614438E+02  0.57501492200E+02  0.82906458061E+02  0.00000000000E+00 0. -1.
         11    1    1    2    0    0 -0.27198746402E+00  0.64306935076E+02  0.16698114330E+02  0.66440069975E+02  0.00000000000E+00 0.  1.
</event>
<event>
 7    1  0.2856214E-009  0.2402351E+03  0.7561462E-02  0.1119636E+00
         -3   -1    0    0    0  501 -0.00000000000E+00  0.00000000000E+00  0.44477487383E+02  0.44477487383E+02  0.00000000000E+00 0.  1.
          3   -1    0    0  501    0  0.00000000000E+00 -0.00000000000E+00 -0.13057750364E+04  0.13057750364E+04  0.00000000000E+00 0. -1.
         25    2    1    2    0    0 -0.28920709805E+02 -0.21265819439E+03 -0.65320827682E+03  0.69884803471E+03  0.12509039775E+03 0.  0.
          5    1    3    3  502    0 -0.36845842679E+01  0.16525739288E+02 -0.56442677798E+02  0.59075582919E+02  0.41800000000E+01 0.  1.
         -5    1    3    3    0  502 -0.25236125537E+02 -0.22918393368E+03 -0.59676559902E+03  0.63977245179E+03  0.41800000000E+01 0.  1.
        -11    1    1    2    0    0  0.51973711714E+02  0.66214660793E+02 -0.19004437258E+03  0.20785213870E+03  0.00000000000E+00 0.  1.
         11    1    1    2    0    0 -0.23053001909E+02  0.14644353359E+03 -0.41804489961E+03  0.44355235037E+03  0.00000000000E+00 0. -1.
</event>
<event>
 7    1  0.2856214E-009  0.1608022E+03  0.7561462E-02  0.1187794E+00
          2   -1    0    0  501    0  0.00000000000E+00  0.00000000000E+00  0.16902528128E+03  0.16902528128E+03  0.00000000000E+00 0. -1.
         -2   -1    0    0    0  501 -0.00000000000E+00 -0.00000000000E+00 -0.23860026512E+03  0.23860026512E+03  0.00000000000E+00 0.  1.
         25    2    1    2    0    0 -0.13326162682E+03  0.12231983569E+02  0.67691486471E+02  0.19528888558E+03  0.12508928366E+03 0.  0.
          5    1    3    3  502    0  0.15475555507E+02  0.19915459503E+02 -0.97614909712E+01  0.27365625362E+02  0.41800000000E+01 0. -1.
         -5    1    3    3    0  502 -0.14873718233E+03 -0.76834759333E+01  0.77452977442E+02  0.16792326022E+03  0.41800000000E+01 0. -1.
        -11    1    1    2    0    0  0.12106096319E+03  0.10220423139E+02 -0.14142891824E+03  0.18644664859E+03  0.00000000000E+00 0.  1.
         11    1    1    2    0    0  0.12200663626E+02 -0.22452406709E+02  0.41624479302E+01  0.25890012219E+02  0.00000000000E+00 0. -1.
</event>
<event>
 7    1  0.2856214E-009  0.2267220E+03  0.7561462E-02  0.1128968E+00
         -2   -1    0    0    0  501 -0.00000000000E+00  0.00000000000E+00  0.14604212701E+03  0.14604212701E+03  0.00000000000E+00 0. -1.
          2   -1    0    0  501    0  0.00000000000E+00 -0.00000000000E+00 -0.47052378334E+03  0.47052378334E+03  0.00000000000E+00 0.  1.
         25    2    1    2    0    0 -0.21455393155E+03 -0.15990450093E+02 -0.47671105234E+02  0.25339600472E+03  0.12509163399E+03 0.  0.
          5    1    3    3  502    0 -0.15661995337E+03  0.53044765477E+01 -0.87778281469E+02  0.17966759965E+03  0.41800000000E+01 0. -1.
         -5    1    3    3    0  502 -0.57933978178E+02 -0.21294926641E+02  0.40107176235E+02  0.73728405067E+02  0.41800000000E+01 0. -1.
        -11    1    1    2    0    0  0.14204040993E+03 -0.34849698506E+02 -0.18089850040E+03  0.23262469127E+03  0.00000000000E+00 0. -1.
         11    1    1    2    0    0  0.72513521619E+02  0.50840148599E+02 -0.95912050695E+02  0.13054521437E+03  0.00000000000E+00 0.  1.
</event>
<event>
 7    1  0.2856214E-009  0.1207343E+03  0.7561462E-02  0.1241891E+00
          3   -1    0    0  501    0  0.00000000000E+00  0.00000000000E+00  0.13837452595E+03  0.13837452595E+03  0.00000000000E+00 0. -1.
         -3   -1    0    0    0  501 -0.00000000000E+00 -0.00000000000E+00 -0.16983687696E+03  0.16983687696E+03  0.00000000000E+00 0.  1.
         25    2    1    2    0    0  0.25163112279E+02 -0.75537826149E+02  0.55065791164E+02  0.15816865646E+03  0.12508372048E+03 0.  0.
          5    1    3    3  502    0 -0.37117848434E+02 -0.31437440254E+02 -0.18384231147E+02  0.52167994756E+02  0.41800000000E+01 0. -1.
         -5    1    3    3    0  502  0.62280960713E+02 -0.44100385895E+02  0.73450022311E+02  0.10600066170E+03  0.41800000000E+01 0. -1.
        -11    1    1    2    0    0  0.26887263650E+02  0.53139257152E+02 -0.20386127056E+02  0.62946801139E+02  0.00000000000E+00 0. -1.
         11    1    1    2    0    0 -0.52050375930E+02  0.22398568997E+02 -0.66142015114E+02  0.87095945318E+02  0.00000000000E+00 0.  1.
</event>
<event>
 7    1  0.2856214E-009  0.9682158E+02  0.7561462E-02  0.1287125E+00
          2   -1    0    0  501    0  0.00000000000E+00  0.00000000000E+00  0.55405162145E+02  0.55405162145E+02  0.00000000000E+00 0. -1.
         -2   -1    0    0    0  501 -0.00000000000E+00 -0.00000000000E+00 -0.25542564837E+03  0.25542564837E+03  0.00000000000E+00 0.  1.
         25    2    1    2    0    0  0.15494987170E+02 -0.23059329977E+02 -0.16580405245E+03  0.20954653796E+03  0.12508773095E+03 0.  0.
          5    1    3    3  502    0 -0.32433918644E+02  0.22610660988E+02 -0.12614000945E+03  0.13225723213E+03  0.41800000000E+01 0.  1.
         -5    1    3    3    0  502  0.47928905814E+02 -0.45669990965E+02 -0.39664043003E+02  0.77289305823E+02  0.41800000000E+01 0.  1.
        -11    1    1    2    0    0  0.34457705155E+02  0.10869848281E+02 -0.34367036835E+02  0.49865622096E+02  0.00000000000E+00 0.  1.
         11    1    1    2    0    0 -0.49952692325E+02  0.12189481696E+02  0.15060305214E+00  0.51418650467E+02  0.00000000000E+00 0. -1.
</event>
<event>
 7    1  0.2856214E-009  0.1414659E+03  0.7561462E-02  0.1211370E+00
         -1   -1    0    0    0  501 -0.00000000000E+00  0.00000000000E+00  0.29135157973E+03  0.29135157973E+03  0.00000000000E+00 0.  1.
          1   -1    0    0  501    0  0.00000000000E+00 -0.00000000000E+00 -0.86838904783E+02  0.86838904783E+02  0.00000000000E+00 0. -1.
         25    2    1    2    0    0 -0.28193759093E+02  0.11155363956E+03  0.12654015028E+03  0.21189051571E+03  0.12508428544E+03 0.  0.
          5    1    3    3  502    0 -0.51515384429E+02  0.10063287609E+03  0.37617573389E+02  0.11921981719E+03  0.41800000000E+01 0.  1.
         -5    1    3    3    0  502  0.23321625336E+02  0.10920763471E+02  0.88922576888E+02  0.92670698516E+02  0.41800000000E+01 0.  1.
        -11    1    1    2    0    0  0.56762711323E+01  0.14548417771E+02  0.20834791274E+02  0.26037761828E+02  0.00000000000E+00 0.  1.
         11    1    1    2    0    0  0.22517487961E+02 -0.12610205734E+03  0.57137733399E+02  0.14026220698E+03  0.00000000000E+00 0. -1.
</event>
<event>
 7    1  0.2856214E-009  0.8388859E+02  0.7561462E-02  0.1318365E+00
         -1   -1    0    0    0  501 -0.00000000000E+00  0.00000000000E+00  0.26283615148E+02  0.26283615148E+02  0.00000000000E+00 0.  1.
          1   -1    0    0  501    0  0.00000000000E+00 -0.00000000000E+00 -0.56436211350E+03  0.56436211350E+03  0.00000000000E+00 0. -1.
         25    2    1    2    0    0 -0.52784899940E+01 -0.30985564893E+02 -0.41850931652E+03  0.43793352785E+03  0.12509100330E+03 0.  0.
          5    1    3    3  502    0  0.36301369013E+02  0.99391615197E+01 -0.40580216444E+02  0.55504978971E+02  0.41800000000E+01 0.  1.
         -5    1    3    3    0  502 -0.41579859007E+02 -0.40924726413E+02 -0.37792910008E+03  0.38242854887E+03  0.41800000000E+01 0.  1.
        -11    1    1    2    0    0  0.32167097935E+01  0.51098210324E+02 -0.12203901643E+03  0.13234385460E+03  0.00000000000E+00 0. -1.
         11    1    1    2    0    0  0.20617802005E+01 -0.20112645431E+02  0.24698346027E+01  0.20368346197E+02  0.00000000000E+00 0.  1.
</event>
<event>
 7    1  0.2856214E-009  0.9213864E+02  0.7561462E-02  0.1297754E+00
          2   -1    0    0  501    0  0.00000000000E+00  0.00000000000E+00  0.46458084951E+03  0.46458084951E+03  0.00000000000E+00 0. -1.
         -2   -1    0    0    0  501 -0.00000000000E+00 -0.00000000000E+00 -0.27003913219E+02  0.27003913219E+02  0.00000000000E+00 0.  1.
         25    2    1    2    0    0 -0.18251003734E+02 -0.10592479583E+02  0.21179300927E+03  0.24688300281E+03  0.12509851534E+03 0.  0.
          5    1    3    3  502    0  0.30205625335E+02 -0.27383023774E+02  0.18378787209E+03  0.18830205554E+03  0.41800000000E+01 0.  1.
         -5    1    3    3    0  502 -0.48456629068E+02  0.16790544191E+02  0.28005137182E+02  0.58580947274E+02  0.41800000000E+01 0.  1.
        -11    1    1    2    0    0  0.42218433928E+02  0.37028963907E+02  0.10941231449E+03  0.12298209176E+03  0.00000000000E+00 0.  1.
         11    1    1    2    0    0 -0.23967430195E+02 -0.26436484325E+02  0.11637161253E+03  0.12171966816E+03  0.00000000000E+00 0. -1.
</event>
<event>
 7    1  0.2856214E-009  0.1017915E+03  0.7561462E-02  0.1276573E+00
          2   -1    0    0  501    0  0.00000000000E+00  0.00000000000E+00  0.60387448626E+03  0.60387448626E+03  0.00000000000E+00 0. -1.
         -2   -1    0    0    0  501 -0.00000000000E+00 -0.00000000000E+00 -0.32313040755E+02  0.32313040755E+02  0.00000000000E+00 0.  1.
         25    2    1    2    0    0 -0.82778333074E+02 -0.31364787096E+02  0.24394964979E+03  0.28808574819E+03  0.12508382941E+03 0.  0.
          5    1    3    3  502    0 -0.43708327303E+02 -0.27935497488E+02  0.24312754819E+03  0.24863484668E+03  0.41800000000E+01 0. -1.
         -5    1    3    3    0  502 -0.39070005771E+02 -0.34292896085E+01  0.82210159531E+00  0.39450901501E+02  0.41800000000E+01 0. -1.
        -11    1    1    2    0    0  0.66879086913E+02  0.52941850094E+02  0.28728720743E+03  0.29968248416E+03  0.00000000000E+00 0. -1.
         11    1    1    2    0    0  0.15899246161E+02 -0.21577062998E+02  0.40324588288E+02  0.48419294674E+02  0.00000000000E+00 0.  1.
</event>
<event>
 7    1  0.2856214E-009  0.9467411E+02  0.7561462E-02  0.1291912E+00
         -1   -1    0    0    0  501 -0.00000000000E+00  0.00000000000E+00  0.90035375516E+02  0.90035375516E+02  0.00000000000E+00 0.  1.
          1   -1    0    0  501    0  0.00000000000E+00 -0.00000000000E+00 -0.12472140141E+03  0.12472140141E+03  0.00000000000E+00 0. -1.
         25    2    1    2    0    0 -0.33910576684E+02 -0.22390296515E+01 -0.41145911949E+02  0.13599340889E+03  0.12508509394E+03 0.  0.
          5    1    3    3  502    0 -0.31591326166E+02 -0.52820492429E+02  0.11586636006E+02  0.62767338986E+02  0.41800000000E+01 0. -1.
         -5    1    3    3    0  502 -0.23192505177E+01  0.50581462778E+02 -0.52732547955E+02  0.73226069904E+02  0.41800000000E+01 0. -1.
        -11    1    1    2    0    0  0.45103959362E+02  0.24941558018E+02  0.11846273566E+02  0.52884616514E+02  0.00000000000E+00 0.  1.
         11    1    1    2    0    0 -0.11193382678E+02 -0.22702528366E+02 -0.53863875133E+01  0.25878751524E+02  0.00000000000E+00 0. -1.
</event>
<event>
 7    1  0.2856214E-009  0.1683869E+03  0.7561462E-02  0.1179541E+00
          1   -1    0    0  501    0  0.00000000000E+00  0.00000000000E+00  0.12365991350E+03  0.12365991350E+03  0.00000000000E+00 0. -1.
         -1   -1    0    0    0  501 -0.00000000000E+00 -0.00000000000E+00 -0.26450840361E+03  0.26450840361E+03  0.00000000000E+00 0.  1.
         25    2    1    2    0    0  0.83902359712E+02 -0.11644155536E+03 -0.60534370421E+02  0.19977009306E+03  0.12508172648E+03 0.  0.
          5    1    3    3  502    0  0.43877168034E+01 -0.78444260572E+02 -0.76924396748E+02  0.11003449137E+03  0.41800000000E+01 0.  1.
         -5    1    3    3    0  502  0.79514642909E+02 -0.37997294788E+02  0.16390026328E+02  0.89735601693E+02  0.41800000000E+01 0.  1.
        -11    1    1    2    0    0  0.12282124677E+02  0.53569775250E+02 -0.33167091373E+02  0.64192112888E+02  0.00000000000E+00 0.  1.
         11    1    1    2    0    0 -0.96184484389E+02  0.62871780111E+02 -0.47147028319E+02  0.12420611116E+03  0.00000000000E+00 0. -1.
</event>
<event>
 7    1  0.2856214E-009  0.1123904E+03  0.7561462E-02  0.1256206E+00
          2   -1    0    0  501    0  0.00000000000E+00  0.00000000000E+00  0.25233633358E+03  0.25233633358E+03  0.00000000000E+00 0. -1.
         -2   -1    0    0    0  501 -0.00000000000E+00 -0.00000000000E+00 -0.72715802689E+02  0.72715802689E+02  0.00000000000E+00 0.  1.
         25    2    1    2    0    0  0.49738743812E+02  0.60995317623E+02  0.76812113912E+02  0.16656202257E+03  0.12509370532E+03 0.  0.
          5    1    3    3  502    0 -0.19582281100E+02  0.19034310460E+02  0.80731802270E+02  0.85327996611E+02  0.41800000000E+01 0. -1.
         -5    1    3    3    0  502  0.69321024912E+02  0.41961007163E+02 -0.39196883581E+01  0.81234025961E+02  0.41800000000E+01 0. -1.
        -11    1    1    2    0    0 -0.61360207608E+02 -0.81412913903E+01  0.76240233260E+02  0.98203507426E+02  0.00000000000E+00 0. -1.
         11    1    1    2    0    0  0.11621463797E+02 -0.52854026233E+02  0.26568183721E+02  0.60286606274E+02  0.00000000000E+00 0.  1.
</event>
<event>
 7    1  0.2856214E-009  0.2283420E+03  0.7561462E-02  0.1127812E+00
          2   -1    0    0  501    0  0.00000000000E+00  0.00000000000E+00  0.15660803476E+04  0.15660803476E+04  0.00000000000E+00 0.  1.
         -2   -1    0    0    0  501 -0.00000000000E+00 -0.00000000000E+00 -0.41159700504E+02  0.41159700504E+02  0.00000000000E+00 0. -1.
         25    2    1    2    0    0 -0.37464608886E+00  0.22078392656E+03  0.59025717449E+03  0.64248975527E+03  0.12507546124E+03 0.  0.
          5    1    3    3  502    0 -0.14309075543E+02  0.62999190390E+02  0.34128874191E+03  0.34737461822E+03  0.41800000000E+01 0.  1.
         -5    1    3    3    0  502  0.13934429455E+02  0.15778473617E+03  0.24896843258E+03  0.29511513705E+03  0.41800000000E+01 0.  1.
        -11    1    1    2    0    0  0.38162902604E+02 -0.10787598112E+03  0.56192670132E+03  0.57345902390E+03  0.00000000000E+00 0.  1.
         11    1    1    2    0    0 -0.37788256515E+02 -0.11290794544E+03  0.37273677129E+03  0.39129126894E+03  0.00000000000E+00 0. -1.
</event>
<event>
 7    1  0.2856214E-009  0.1151640E+03  0.7561462E-02  0.1251295E+00
          1   -1    0    0  501    0  0.00000000000E+00  0.00000000000E+00  0.13932568445E+04  0.13932568445E+04  0.00000000000E+00 0. -1.
         -1   -1    0    0    0  501 -0.00000000000E+00 -0.00000000000E+00 -0.10957798616E+02  0.10957798616E+02  0.00000000000E+00 0.  1.
         25    2    1    2    0    0 -0.16020657332E+02  0.40029044360E+02  0.10062894843E+04  0.10149506653E+04  0.12508933168E+03 0.  0.
          5    1    3    3  502    0  0.25299917115E+02 -0.36351474110E+02  0.39824381146E+03  0.40072075220E+03  0.41800000000E+01 0. -1.
         -5    1    3    3    0  502 -0.41320574447E+02  0.76380518470E+02  0.60804567285E+03  0.61422991310E+03  0.41800000000E+01 0. -1.
        -11    1    1    2    0    0  0.44003389549E+02 -0.52296994364E+02  0.29136254800E+03  0.29927146254E+03  0.00000000000E+00 0. -1.
         11    1    1    2    0    0 -0.27982732218E+02  0.12267950004E+02  0.84647013531E+02  0.89992515241E+02  0.00000000000E+00 0.  1.
</event>
<event>
 7    1  0.2856214E-009  0.1017903E+03  0.7561462E-02  0.1276576E+00
         -1   -1    0    0    0  501 -0.00000000000E+00  0.00000000000E+00  0.51377940308E+02  0.51377940308E+02  0.00000000000E+00 0.  1.
          1   -1    0    0  501    0  0.00000000000E+00 -0.00000000000E+00 -0.36426475017E+03  0.36426475017E+03  0.00000000000E+00 0. -1.
         25    2    1    2    0    0 -0.31356601753E+02  0.39543572215E+02 -0.27261863077E+03  0.30416495945E+03  0.12509386130E+03 0.  0.
          5    1    3    3  502    0  0.37086020077E+02 -0.18763276032E+02 -0.11900912904E+03  0.12612723183E+03  0.41800000000E+01 0.  1.
         -5    1    3    3    0  502 -0.68442621829E+02  0.58306848247E+02 -0.15360950173E+03  0.17803772762E+03  0.41800000000E+01 0.  1.
        -11    1    1    2    0    0  0.45484030282E+02 -0.33209137009E+02 -0.62663431173E+02  0.84251702641E+02  0.00000000000E+00 0. -1.
         11    1    1    2    0    0 -0.14127428530E+02 -0.63344352063E+01  0.22395252080E+02  0.27226028391E+02  0.00000000000E+00 0.  1.
</event>
<event>
 7    1  0.2856214E-009  0.1841570E+03  0.7561462E-02  0.1163839E+00
          1   -1    0    0  501    0  0.00000000000E+00  0.00000000000E+00  0.94532664541E+03  0.94532664541E+03  0.00000000000E+00 0. -1.
         -1   -1    0    0    0  501 -0.00000000000E+00 -0.00000000000E+00 -0.40293921350E+02  0.40293921350E+02  0.00000000000E+00 0.  1.
         25    2    1    2    0    0  0.37167246145E+02 -0.14799162946E+03  0.34076901472E+03  0.39376877805E+03  0.12508957828E+03 0.  0.
          5    1    3    3  502    0  0.39311971660E+02  0.61731038188E+01  0.45118010594E+02  0.60304606844E+02  0.41800000000E+01 0. -1.
         -5    1    3    3    0  502 -0.21447255154E+01 -0.15416473328E+03  0.29565100413E+03  0.33346417120E+03  0.41800000000E+01 0. -1.
        -11    1    1    2    0    0 -0.63588709216E+02  0.11839418814E+03  0.48409325508E+03  0.50240122148E+03  0.00000000000E+00 0. -1.
         11    1    1    2    0    0  0.26421463071E+02  0.29597441317E+02  0.80170454255E+02  0.89450567236E+02  0.00000000000E+00 0.  1.
</event>
<event>
 7    1  0.2856214E-009  0.9576140E+02  0.7561462E-02  0.1289470E+00
         -3   -1    0    0    0  501 -0.00000000000E+00  0.00000000000E+00  0.99840377087E+02  0.99840377087E+02  0.00000000000E+00 0.  1.
          3   -1    0    0  501    0  0.00000000000E+00 -0.00000000000E+00 -0.15402311688E+03  0.15402311688E+03  0.00000000000E+00 0. -1.
         25    2    1    2    0    0 -0.57668957739E+02 -0.53175775129E+01 -0.44755023798E+02  0.14493099958E+03  0.12509195484E+03 0.  0.
          5    1    3    3  502    0 -0.81518977032E+02 -0.17965380062E+02 -0.69018698150E+02  0.10839350346E+03  0.41800000000E+01 0.  1.
         -5    1    3    3    0  502  0.23850019293E+02  0.12647802549E+02  0.24263674352E+02  0.36537496119E+02  0.41800000000E+01 0.  1.
        -11    1    1    2    0    0  0.22023306084E+02  0.30037985929E+02  0.31883966726E+02  0.49029521146E+02  0.00000000000E+00 0.  1.
         11    1    1    2    0    0  0.35645651655E+02 -0.24720408416E+02 -0.41311682717E+02  0.59902973241E+02  0.00000000000E+00 0. -1.
</event>
<event>
 7    1  0.2856214E-009  0.1099107E+03  0.7561462E-02  0.1260735E+00
          2   -1    0    0  501    0  0.00000000000E+00  0.00000000000E+00  0.45801071780E+03  0.45801071780E+03  0.00000000000E+00 0. -1.
         -2   -1    0    0    0  501 -0.00000000000E+00 -0.00000000000E+00 -0.32272852896E+02  0.32272852896E+02  0.00000000000E+00 0.  1.
         25    2    1    2    0    0  0.20192326735E+02  0.43410904718E+02  0.30186099527E+03  0.33024521309E+03  0.12509837568E+03 0.  0.
          5    1    3    3  502    0 -0.18771844618E+02  0.78065331958E+02  0.20416221418E+03  0.21942256106E+03  0.41800000000E+01 0. -1.
         -5    1    3    3    0  502  0.38964171352E+02 -0.34654427241E+02  0.97698781091E+02  0.11082265203E+03  0.41800000000E+01 0. -1.
        -11    1    1    2    0    0 -0.35867048001E+02 -0.56341761006E+02  0.50037703817E+02  0.83454244762E+02  0.00000000000E+00 0.  1.
         11    1    1    2    0    0  0.15674721266E+02  0.12930856288E+02  0.73839165817E+02  0.76584112842E+02  0.00000000000E+00 0. -1.
</event>
<event>
 7    1  0.2856214E-009  0.1040222E+03  0.7561462E-02  0.1272058E+00
         -2   -1    0    0    0  501 -0.00000000000E+00  0.00000000000E+00  0.78712625127E+02  0.78712625127E+02  0.00000000000E+00 0.  1.
          2   -1    0    0  501    0  0.00000000000E+00 -0.00000000000E+00 -0.19356722690E+03  0.19356722690E+03  0.00000000000E+00 0. -1.
         25    2    1    2    0    0 -0.50232506279E+02 -0.15760666853E+02 -0.91892652877E+02  0.16390062178E+03  0.12508977121E+03 0.  0.
          5    1    3    3  502    0  0.17905610352E+02 -0.42439184375E+02  0.13633932269E+00  0.46251337721E+02  0.41800000000E+01 0.  1.
         -5    1    3    3    0  502 -0.68138116631E+02  0.26678517522E+02 -0.92028992200E+02  0.11764928406E+03  0.41800000000E+01 0.  1.
        -11    1    1    2    0    0  0.50344023817E+02 -0.18946965100E+02 -0.42495692856E+02  0.68552112527E+02  0.00000000000E+00 0. -1.
         11    1    1    2    0    0 -0.11151753795E+00  0.34707631953E+02  0.19533743965E+02  0.39827117712E+02  0.00000000000E+00 0.  1.
</event>
<event>
 7    1  0.2856214E-009  0.1106323E+03  0.7561462E-02  0.1259403E+00
          2   -1    0    0  501    0  0.00000000000E+00  0.00000000000E+00  0.17108516366E+04  0.17108516366E+04  0.00000000000E+00 0.  1.
         -2   -1    0    0    0  501 -0.00000000000E+00 -0.00000000000E+00 -0.10516735080E+02  0.10516735080E+02  0.00000000000E+00 0. -1.
         25    2    1    2    0    0 -0.66747345122E+01  0.63425248919E+02  0.13584587762E+04  0.13656945308E+04  0.12507593899E+03 0.  0.
          5    1    3    3  502    0 -0.33533143632E+02  0.91698849374E+02  0.81858054290E+03  0.82439355184E+03  0.41800000000E+01 0.  1.
         -5    1    3    3    0  502  0.26858409119E+02 -0.28273600454E+02  0.53987823327E+03  0.54130097892E+03  0.41800000000E+01 0.  1.
        -11    1    1    2    0    0  0.30834509437E+02 -0.41424923266E+02  0.28853615332E+03  0.29312096993E+03  0.00000000000E+00 0.  1.
         11    1    1    2    0    0 -0.24159774925E+02 -0.22000325653E+02  0.53339972045E+02  0.62552871005E+02  0.00000000000E+00 0. -1.
</event>
<event>
 7    1  0.2856214E-009  0.9414858E+02  0.7561462E-02  0.1293105E+00
          1   -1    0    0  501    0  0.00000000000E+00  0.00000000000E+00  0.15569554835E+03  0.15569554835E+03  0.00000000000E+00 0. -1.
         -1   -1    0    0    0  501 -0.00000000000E+00 -0.00000000000E+00 -0.10867830665E+03  0.10867830665E+03  0.00000000000E+00 0.  1.
         25    2    1    2    0    0 -0.24207438143E+02  0.65977248328E+01  0.10027465351E+03  0.16227158383E+03  0.12509009053E+03 0.  0.
          5    1    3    3  502    0  0.38015444479E+02 -0.22584015821E+01 -0.59550234647E+01  0.38771240645E+02  0.41800000000E+01 0.  1.
         -5    1    3    3    0  502 -0.62222882622E+02  0.88561264149E+01  0.10622967698E+03  0.12350034319E+03  0.41800000000E+01 0.  1.
        -11    1    1    2    0    0  0.40178326231E+02 -0.35734495699E+02 -0.30352414951E+02  0.61745616645E+02  0.00000000000E+00 0. -1.
         11    1    1    2    0    0 -0.15970888088E+02  0.29136770866E+02 -0.22904996864E+02  0.40356654521E+02  0.00000000000E+00 0.  1.
</event>
<event>
 7    1  0.2856214E-009  0.1132726E+03  0.7561462E-02  0.1254627E+00
          2   -1    0    0  501    0  0.00000000000E+00  0.00000000000E+00  0.11700690120E+04  0.11700690120E+04  0.00000000000E+00 0. -1.
         -2   -1    0    0    0  501 -0.00000000000E+00 -0.00000000000E+00 -0.28925067716E+02  0.28925067716E+02  0.00000000000E+00 0.  1.
         25    2    1    2    0    0 -0.94907560800E+02  0.13204986564E+02  0.98101141040E+03  0.99358546248E+03  0.12508743806E+03 0.  0.
          5    1    3    3  502    0 -0.74918375467E+02  0.20313837357E+02  0.96094997915E+03  0.96408907773E+03  0.41800000000E+01 0. -1.
         -5    1    3    3    0  502 -0.19989185333E+02 -0.71088507935E+01  0.20061431254E+02  0.29496384759E+02  0.41800000000E+01 0. -1.
        -11    1    1    2    0    0  0.58589137901E+02  0.33912172613E+02  0.10052404485E+03  0.12119325940E+03  0.00000000000E+00 0.  1.
         11    1    1    2    0    0  0.36318422899E+02 -0.47117159177E+02  0.59608489064E+02  0.84215357859E+02  0.00000000000E+00 0. -1.
</event>
<event>
 7    1  0.2856214E-009  0.9150832E+02  0.7561462E-02  0.1299240E+00
         -1   -1    0    0    0  501 -0.00000000000E+00  0.00000000000E+00  0.38715091764E+02  0.38715091764E+02  0.00000000000E+00 0.  1.
          1   -1    0    0  501    0  0.00000000000E+00 -0.00000000000E+00 -0.59151077611E+03  0.59151077611E+03  0.00000000000E+00 0. -1.
         25    2    1    2    0    0  0.17862883351E+01 -0.11170667128E+02 -0.84309538158E+02  0.15127288956E+03  0.12508962492E+03 0.  0.
          5    1    3    3  502    0 -0.38798295957E+02  0.79072720967E+01  0.14745846377E+02  0.42458745937E+02  0.41800000000E+01 0.  1.
         -5    1    3    3    0  502  0.40584584292E+02 -0.19077939224E+02 -0.99055384535E+02  0.10881414362E+03  0.41800000000E+01 0.  1.
        -11    1    1    2    0    0  0.18597683214E+02  0.50526179040E+02 -0.21618488945E+03  0.22278840862E+03  0.00000000000E+00 0. -1.
         11    1    1    2    0    0 -0.20383971549E+02 -0.39355511912E+02 -0.25230125674E+03  0.25616456969E+03  0.00000000000E+00 0.  1.
</event>
<event>
 7    1  0.2856214E-009  0.1131578E+03  0.7561462E-02  0.1254831E+00
          1   -1    0    0  501    0  0.00000000000E+00  0.00000000000E+00  0.13289627670E+03  0.13289627670E+03  0.00000000000E+00 0. -1.
         -1   -1    0    0    0  501 -0.00000000000E+00 -0.00000000000E+00 -0.13348134861E+03  0.13348134861E+03  0.00000000000E+00 0.  1.
         25    2    1    2    0    0  0.24388695732E+02 -0.44842185754E+02 -0.58145247898E+02  0.14709540876E+03  0.12510219551E+03 0.  0.
          5    1    3    3  502    0 -0.21994479668E+02 -0.70916226903E+02 -0.96664623980E+01  0.74991874688E+02  0.41800000000E+01 0. -1.
         -5    1    3    3    0  502  0.46383175400E+02  0.26074041149E+02 -0.48478785501E+02  0.72103534072E+02  0.41800000000E+01 0. -1.
        -11    1    1    2    0    0  0.30124397302E+02  0.38485690997E+01  0.37361802493E+02  0.48147638389E+02  0.00000000000E+00 0. -1.
         11    1    1    2    0    0 -0.54513093035E+02  0.40993616654E+02  0.20198373495E+02  0.71134578163E+02  0.00000000000E+00 0.  1.
</event>
<event>
 7    1  0.2856214E-009  0.9954265E+02  0.7561462E-02  0.1281261E+00
         -2   -1    0    0    0  501 -0.00000000000E+00  0.00000000000E+00  0.74321903910E+02  0.74321903910E+02  0.00000000000E+00 0.  1.
          2   -1    0    0  501    0  0.00000000000E+00 -0.00000000000E+00 -0.29963201926E+03  0.29963201926E+03  0.00000000000E+00 0. -1.
         25    2    1    2    0    0 -0.62367779787E+02 -0.66161812746E+02 -0.65297251472E+02  0.16786023055E+03  0.12508477337E+03 0.  0.
          5    1    3    3  502    0  0.22248359122E+01 -0.28604908313E+01 -0.76441210789E+02  0.76641133926E+02  0.41800000000E+01 0. -1.
         -5    1    3    3    0  502 -0.64592615699E+02 -0.63301321915E+02  0.11143959316E+02  0.91219096621E+02  0.41800000000E+01 0. -1.
        -11    1    1    2    0    0 -0.97490134065E+00  0.30125596995E+02 -0.11839477222E+03  0.12217129006E+03  0.00000000000E+00 0. -1.
         11    1    1    2    0    0  0.63342681128E+02  0.36036215751E+02 -0.41618091660E+02  0.83922402560E+02  0.00000000000E+00 0.  1.
</event>
<event>
 7    1  0.2856214E-009  0.9628269E+02  0.7561462E-02  0.1288313E+00
          1   -1    0    0  501    0  0.00000000000E+00  0.00000000000E+00  0.41700645560E+02  0.41700645560E+02  0.00000000000E+00 0. -1.
         -1   -1    0    0    0  501 -0.00000000000E+00 -0.00000000000E+00 -0.35930798995E+03  0.35930798995E+03  0.00000000000E+00 0.  1.
         25    2    1    2    0    0 -0.18678745074E+02 -0.70799704038E+01 -0.25595517220E+03  0.28558629884E+03  0.12508981738E+03 0.  0.
          5    1    3    3  502    0 -0.62053266912E+00 -0.50112540853E+02 -0.39031031863E+02  0.63659607758E+02  0.41800000000E+01 0. -1.
         -5    1    3    3    0  502 -0.18058212405E+02  0.43032570450E+02 -0.21692414033E+03  0.22192669108E+03  0.41800000000E+01 0. -1.
        -11    1    1    2    0    0  0.53902057663E+02 -0.12200029862E+02 -0.23572204333E+02  0.60082621165E+02  0.00000000000E+00 0.  1.
         11    1    1    2    0    0 -0.35223312589E+02  0.19280000266E+02 -0.38079967857E+02  0.55339715504E+02  0.00000000000E+00 0. -1.
</event>
<event>
 7    1  0.2856214E-009  0.1399390E+03  0.7561462E-02  0.1213411E+00
         -1   -1    0    0    0  501 -0.00000000000E+00  0.00000000000E+00  0.53710749772E+02  0.53710749772E+02  0.00000000000E+00 0.  1.
          1   -1    0    0  501    0  0.00000000000E+00 -0.00000000000E+00 -0.52498771167E+03  0.52498771167E+03  0.00000000000E+00 0. -1.
         25    2    1    2    0    0 -0.72372023861E+02  0.54128530090E+02 -0.94892339834E+02  0.18116340148E+03  0.12509202321E+03 0.  0.
          5    1    3    3  502    0 -0.10527089273E+03  0.22024537291E+02 -0.73190913285E+02  0.13015922282E+03  0.41800000000E+01 0.  1.
         -5    1    3    3    0  502  0.32898868866E+02  0.32103992799E+02 -0.21701426549E+02  0.51004178658E+02  0.41800000000E+01 0.  1.
        -11    1    1    2    0    0  0.92089413086E+02 -0.53196840507E+02 -0.28895437979E+03  0.30790420173E+03  0.00000000000E+00 0.  1.
         11    1    1    2    0    0 -0.19717389225E+02 -0.93168958319E+00 -0.87430242276E+02  0.89630858234E+02  0.00000000000E+00 0. -1.
</event>
<event>
 7    1  0.2856214E-009  0.1724139E+03  0.7561462E-02  0.1175354E+00
          1   -1    0    0  501    0  0.00000000000E+00  0.00000000000E+00  0.61680979968E+03  0.61680979968E+03  0.00000000000E+00 0. -1.
         -1   -1    0    0    0  501 -0.00000000000E+00 -0.00000000000E+00 -0.67144191088E+02  0.67144191088E+02  0.00000000000E+00 0.  1.
         25    2    1    2    0    0  0.14789642892E+03 -0.33348321816E+02  0.42164262181E+03  0.46520017667E+03  0.12507293708E+03 0.  0.
          5    1    3    3  502    0 -0.14297913730E+02 -0.60320853576E+01  0.43603731825E+01  0.16652376560E+02  0.41800000000E+01 0.  1.
         -5    1    3    3    0  502  0.16219434265E+03 -0.27316236458E+02  0.41728224863E+03  0.44854780011E+03  0.41800000000E+01 0.  1.
        -11    1    1    2    0    0 -0.10945414460E+03 -0.54726178466E+01  0.43072275574E+02  0.11775134920E+03  0.00000000000E+00 0.  1.
         11    1    1    2    0    0 -0.38442284324E+02  0.38820939662E+02  0.84950711210E+02  0.10100246490E+03  0.00000000000E+00 0. -1.
</event>
<event>
 7    1  0.2856214E-009  0.1598852E+03  0.7561462E-02  0.1188826E+00
          1   -1    0    0  501    0  0.00000000000E+00  0.00000000000E+00  0.17359170869E+03  0.17359170869E+03  0.00000000000E+00 0. -1.
         -1   -1    0    0    0  501 -0.00000000000E+00 -0.00000000000E+00 -0.15940730128E+03  0.15940730128E+03  0.00000000000E+00 0.  1.
         25    2    1    2    0    0  0.10409433620E+03  0.57816648384E+02 -0.32530056909E+02  0.17573585050E+03  0.12508592602E+03 0.  0.
          5    1    3    3  502    0  0.71778995982E+02 -0.30797064520E+02 -0.12332167815E+02  0.79184835734E+02  0.41800000000E+01 0. -1.
         -5    1    3    3    0  502  0.32315340216E+02  0.88613712904E+02 -0.20197889094E+02  0.96551014763E+02  0.41800000000E+01 0. -1.
        -11    1    1    2    0    0 -0.52403418602E+01 -0.47452684766E+02  0.30236521209E+02  0.56510757286E+02  0.00000000000E+00 0. -1.
         11    1    1    2    0    0 -0.98853994338E+02 -0.10363963618E+02  0.16477943111E+02  0.10075240219E+03  0.00000000000E+00 0.  1.
</event>
<event>
 7    1  0.2856214E-009  0.1897274E+03  0.7561462E-02  0.1158707E+00
          1   -1    0    0  501    0  0.00000000000E+00  0.00000000000E+00  0.53485492989E+03  0.53485492989E+03  0.00000000000E+00 0. -1.
         -1   -1    0    0    0  501 -0.00000000000E+00 -0.00000000000E+00 -0.10233875940E+03  0.10233875940E+03  0.00000000000E+00 0.  1.
         25    2    1    2    0    0  0.23582991277E+02 -0.15679336130E+03  0.42064564979E+02  0.20629607662E+03  0.12509327711E+03 0.  0.
          5    1    3    3  502    0  0.49276641891E+02 -0.73094340116E+01  0.61291131342E+01  0.50365203160E+02  0.41800000000E+01 0.  1.
         -5    1    3    3    0  502 -0.25693650614E+02 -0.14948392729E+03  0.35935451845E+02  0.15593087346E+03  0.41800000000E+01 0.  1.
        -11    1    1    2    0    0  0.24936038588E+02  0.99864554553E+02  0.17742376886E+03  0.20511930439E+03  0.00000000000E+00 0.  1.
         11    1    1    2    0    0 -0.48519029865E+02  0.56928806746E+02  0.21302783665E+03  0.22577830827E+03  0.00000000000E+00 0. -1.
</event>
<event>
 7    1  0.2856214E-009  0.1656055E+03  0.7561462E-02  0.1182510E+00
         -2   -1    0    0    0  501 -0.00000000000E+00  0.00000000000E+00  0.29666086513E+02  0.29666086513E+02  0.00000000000E+00 0.  1.
          2   -1    0    0  501    0  0.00000000000E+00 -0.00000000000E+00 -0.99493850311E+03  0.99493850311E+03  0.00000000000E+00 0. -1.
         25    2    1    2    0    0 -0.68952586543E+02  0.10609231066E+03 -0.62966792450E+03  0.65432347060E+03  0.12508985354E+03 0.  0.
          5    1    3    3  502    0  0.26313143135E+02  0.71492416341E+02 -0.28532893726E+03  0.29535338483E+03  0.41800000000E+01 0.  1.
         -5    1    3    3    0  502 -0.95265729678E+02  0.34599894315E+02 -0.34433898725E+03  0.35897008577E+03  0.41800000000E+01 0.  1.
        -11    1    1    2    0    0  0.21476841316E+02  0.13112799701E+02 -0.32244010697E+02  0.40900812397E+02  0.00000000000E+00 0. -1.
         11    1    1    2    0    0  0.47475745227E+02 -0.11920511036E+03 -0.30336048139E+03  0.32938030662E+03  0.00000000000E+00 0.  1.
</event>
<event>
 7    1  0.2856214E-009  0.2206136E+03  0.7561462E-02  0.1133426E+00
          1   -1    0    0  501    0  0.00000000000E+00  0.00000000000E+00  0.43761044382E+03  0.43761044382E+03  0.00000000000E+00 0. -1.
         -1   -1    0    0    0  501 -0.00000000000E+00 -0.00000000000E+00 -0.21929088655E+03  0.21929088655E+03  0.00000000000E+00 0.  1.
         25    2    1    2    0    0  0.21735361168E+03 -0.71317616662E+01  0.31416952812E+03  0.40204941132E+03  0.12509109566E+03 0.  0.
          5    1    3    3  502    0  0.50033907796E+02 -0.17049458664E+02  0.17898499289E+03  0.18667398332E+03  0.41800000000E+01 0. -1.
         -5    1    3    3    0  502  0.16731970388E+03  0.99176969976E+01  0.13518453523E+03  0.21537542800E+03  0.41800000000E+01 0. -1.
        -11    1    1    2    0    0 -0.10403822642E+03 -0.14901640441E+02 -0.45873425904E+00  0.10510100799E+03  0.00000000000E+00 0. -1.
         11    1    1    2    0    0 -0.11331538526E+03  0.22033402107E+02 -0.95391236587E+02  0.14975091106E+03  0.00000000000E+00 0.  1.
</event>
<event>
 7    1  0.2856214E-009  0.8919916E+02  0.7561462E-02  0.1304803E+00
          1   -1    0    0  501    0  0.00000000000E+00  0.00000000000E+00  0.68448976313E+03  0.68448976313E+03  0.00000000000E+00 0. -1.
         -1   -1    0    0    0  501 -0.00000000000E+00 -0.00000000000E+00 -0.18651555531E+02  0.18651555531E+02  0.00000000000E+00 0.  1.
         25    2    1    2    0    0  0.67777873615E+01 -0.78289267575E+01  0.49757342776E+03  0.51315616212E+03  0.12507078079E+03 0.  0.
          5    1    3    3  502    0  0.48127577332E+02  0.52646474858E+01  0.82097803297E+02  0.95401792013E+02  0.41800000000E+01 0.  1.
         -5    1    3    3    0  502 -0.41349789970E+02 -0.13093574243E+02  0.41547562447E+03  0.41775437011E+03  0.41800000000E+01 0.  1.
        -11    1    1    2    0    0  0.11142282813E+01 -0.38861023907E+02  0.96164437683E+02  0.10372569478E+03  0.00000000000E+00 0.  1.
         11    1    1    2    0    0 -0.78920156429E+01  0.46689950665E+02  0.72100342150E+02  0.86259461754E+02  0.00000000000E+00 0. -1.
</event>
<event>
 7    1  0.2856214E-009  0.1741576E+03  0.7561462E-02  0.1173580E+00
          4   -1    0    0  501    0  0.00000000000E+00  0.00000000000E+00  0.23749201555E+03  0.23749201555E+03  0.00000000000E+00 0. -1.
         -4   -1    0    0    0  501 -0.00000000000E+00 -0.00000000000E+00 -0.19643561015E+03  0.19643561015E+03  0.00000000000E+00 0.  1.
         25    2    1    2    0    0 -0.71901334858E+02  0.11849800483E+03 -0.10321647767E+03  0.21333496598E+03  0.12508631957E+03 0.  0.
          5    1    3    3  502    0 -0.63182786528E+02  0.14269989033E+03 -0.69942455222E+02  0.17106940888E+03  0.41800000000E+01 0.  1.
         -5    1    3    3    0  502 -0.87185483304E+01 -0.24201885501E+02 -0.33274022444E+02  0.42265557093E+02  0.41800000000E+01 0.  1.
        -11    1    1    2    0    0  0.93426283297E+02 -0.84935393431E+02  0.11817657246E+03  0.17293985587E+03  0.00000000000E+00 0.  1.
         11    1    1    2    0    0 -0.21524948439E+02 -0.33562611397E+02  0.26096310603E+02  0.47652803865E+02  0.00000000000E+00 0. -1.
</event>
<event>
 7    1  0.2856214E-009  0.1411706E+03  0.7561462E-02  0.1211762E+00
         -1   -1    0    0    0  501 -0.00000000000E+00  0.00000000000E+00  0.74596255782E+02  0.74596255782E+02  0.00000000000E+00 0.  1.
          1   -1    0    0  501    0  0.00000000000E+00 -0.00000000000E+00 -0.54257386684E+03  0.54257386684E+03  0.00000000000E+00 0. -1.
         25    2    1    2    0    0  0.46084279423E+01 -0.12542241536E+03 -0.70929646164E+02  0.19086948459E+03  0.12509246804E+03 0.  0.
          5    1    3    3  502    0 -0.15441917851E+02 -0.93495293407E+01  0.30288607011E+02  0.35506881593E+02  0.41800000000E+01 0.  1.
         -5    1    3    3    0  502  0.20050345793E+02 -0.11607288601E+03 -0.10121825318E+03  0.15536260300E+03  0.41800000000E+01 0.  1.
        -11    1    1    2    0    0 -0.38720806269E+02  0.82368906995E+02 -0.31242925266E+03  0.32541661850E+03  0.00000000000E+00 0. -1.
         11    1    1    2    0    0  0.34112378326E+02  0.43053508360E+02 -0.84618712239E+02  0.10088401954E+03  0.00000000000E+00 0.  1.
</event>
<event>
 7    1  0.2856214E-009  0.1112361E+03  0.7561462E-02  0.1258298E+00
         -1   -1    0    0    0  501 -0.00000000000E+00  0.00000000000E+00  0.13357166376E+02  0.13357166376E+02  0.00000000000E+00 0.  1.
          1   -1    0    0  501    0  0.00000000000E+00 -0.00000000000E+00 -0.10843272470E+04  0.10843272470E+04  0.00000000000E+00 0. -1.
         25    2    1    2    0    0  0.44518113989E+02 -0.16981161032E+02 -0.62024579164E+03  0.63452542919E+03  0.12508979149E+03 0.  0.
          5    1    3    3  502    0 -0.31468338883E+02  0.13870358096E+02 -0.35924317074E+03  0.36090964424E+03  0.41800000000E+01 0. -1.
         -5    1    3    3    0  502  0.75986452873E+02 -0.30851519128E+02 -0.26100262090E+03  0.27361578494E+03  0.41800000000E+01 0. -1.
        -11    1    1    2    0    0 -0.25335298675E+02  0.56424675516E+02 -0.23366164969E+03  0.24170930454E+03  0.00000000000E+00 0.  1.
         11    1    1    2    0    0 -0.19182815314E+02 -0.39443514484E+02 -0.21706263926E+03  0.22144967961E+03  0.00000000000E+00 0. -1.
</event>
<event>
 7    1  0.2856214E-009  0.1515344E+03  0.7561462E-02  0.1198600E+00
         -2   -1    0    0    0  501 -0.00000000000E+00  0.00000000000E+00  0.76039125235E+02  0.76039125235E+02  0.00000000000E+00 0.  1.
          2   -1    0    0  501    0  0.00000000000E+00 -0.00000000000E+00 -0.34646687541E+03  0.34646687541E+03  0.00000000000E+00 0. -1.
         25    2    1    2    0    0  0.40596408870E+02 -0.11032918414E+03 -0.17813347854E+03  0.24738934607E+03  0.12509738241E+03 0.  0.
          5    1    3    3  502    0 -0.37869284494E+02 -0.77792484342E+02 -0.89757279765E+02  0.12473810564E+03  0.41800000000E+01 0.  1.
         -5    1    3    3    0  502  0.78465693364E+02 -0.32536699796E+02 -0.88376198773E+02  0.12265124043E+03  0.41800000000E+01 0.  1.
        -11    1    1    2    0    0 -0.54386273454E+02  0.10112216814E+03 -0.42166083000E+02  0.12231736666E+03  0.00000000000E+00 0.  1.
         11    1    1    2    0    0  0.13789864584E+02  0.92070159937E+01 -0.50128188635E+02  0.52799287917E+02  0.00000000000E+00 0. -1.
</event>
<event>
 7    1  0.2856214E-009  0.1052321E+03  0.7561462E-02  0.1269663E+00
          1   -1    0    0  501    0  0.00000000000E+00  0.00000000000E+00  0.89710516919E+03  0.89710516919E+03  0.00000000000E+00 0. -1.
         -1   -1    0    0    0  501 -0.00000000000E+00 -0.00000000000E+00 -0.16400250883E+02  0.16400250883E+02  0.00000000000E+00 0.  1.
         25    2    1    2    0    0  0.21881573654E+02  0.40603805739E+02  0.52854538302E+03  0.54510127799E+03  0.12509080318E+03 0.  0.
          5    1    3    3  502    0  0.25055823873E+02 -0.26637920434E+02  0.51443561211E+02  0.63255715197E+02  0.41800000000E+01 0.  1.
         -5    1    3    3    0  502 -0.31742502185E+01  0.67241726172E+02  0.47710182181E+03  0.48184556279E+03  0.41800000000E+01 0.  1.
        -11    1    1    2    0    0  0.34832419786E+01 -0.68452505497E+02  0.19177317803E+03  0.20365370190E+03  0.00000000000E+00 0.  1.
         11    1    1    2    0    0 -0.25364815633E+02  0.27848699759E+02  0.16038635726E+03  0.16475044020E+03  0.00000000000E+00 0. -1.
</event>
<event>
 7    1  0.2856214E-009  0.6126080E+02  0.7561462E-02  0.1392616E+00
         -1   -1    0    0    0  501 -0.00000000000E+00  0.00000000000E+00  0.26528973410E+03  0.26528973410E+03  0.00000000000E+00 0.  1.
          1   -1    0    0  501    0  0.00000000000E+00 -0.00000000000E+00 -0.73235841694E+02  0.73235841694E+02  0.00000000000E+00 0. -1.
         25    2    1    2    0    0  0.37899234637E+02  0.23261941401E+02  0.19499183047E+03  0.23589804094E+03  0.12509437183E+03 0.  0.
          5    1    3    3  502    0  0.41861070587E+01  0.18771219438E+02 -0.13976294042E+02  0.24139000945E+02  0.41800000000E+01 0.  1.
         -5    1    3    3    0  502  0.33713127578E+02  0.44907219630E+01  0.20896812452E+03  0.21175903999E+03  0.41800000000E+01 0.  1.
        -11    1    1    2    0    0  0.99588423804E+01  0.67981772792E+01 -0.35438207067E+02  0.37433411226E+02  0.00000000000E+00 0. -1.
         11    1    1    2    0    0 -0.47858077017E+02 -0.30060118680E+02  0.32500268998E+02  0.65194123630E+02  0.00000000000E+00 0.  1.
</event>
<event>
 7    1  0.2856214E-009  0.1244103E+03  0.7561462E-02  0.1235994E+00
         -1   -1    0    0    0  501 -0.00000000000E+00  0.00000000000E+00  0.37991079768E+02  0.37991079768E+02  0.00000000000E+00 0.  1.
          1   -1    0    0  501    0  0.00000000000E+00 -0.00000000000E+00 -0.45400680331E+03  0.45400680331E+03  0.00000000000E+00 0. -1.
         25    2    1    2    0    0 -0.38603812977E+02  0.61511878917E+02 -0.20828482893E+03  0.25357673209E+03  0.12507846925E+03 0.  0.
          5    1    3    3  502    0 -0.26907437983E+02  0.97106403936E+02 -0.18043036397E+03  0.20670329592E+03  0.41800000000E+01 0.  1.
         -5    1    3    3    0  502 -0.11696374994E+02 -0.35594525019E+02 -0.27854464963E+02  0.46873436163E+02  0.41800000000E+01 0.  1.
        -11    1    1    2    0    0 -0.72146998822E+01 -0.63978696234E+02 -0.79949476273E+02  0.10265107999E+03  0.00000000000E+00 0.  1.
         11    1    1    2    0    0  0.45818512859E+02  0.24668173172E+01 -0.12778141834E+03  0.13577007101E+03  0.00000000000E+00 0. -1.
</event>
<event>
 7    1  0.2856214E-009  0.2205617E+03  0.7561462E-02  0.1133465E+00
         -2   -1    0    0    0  501 -0.00000000000E+00  0.00000000000E+00  0.11184872031E+03  0.11184872031E+03  0.00000000000E+00 0. -1.
          2   -1    0    0  501    0  0.00000000000E+00 -0.00000000000E+00 -0.46537638520E+03  0.46537638520E+03  0.00000000000E+00 0.  1.
         25    2    1    2    0    0 -0.19868956641E+03 -0.27304877308E+02 -0.20211285422E+03  0.31099848623E+03  0.12508937793E+03 0.  0.
          5    1    3    3  502    0 -0.92948775619E+02  0.43969068759E+02 -0.12502728571E+03  0.16193223419E+03  0.41800000000E+01 0.  1.
         -5    1    3    3    0  502 -0.10574079079E+03 -0.71273946067E+02 -0.77085568502E+02  0.14906625204E+03  0.41800000000E+01 0.  1.
        -11    1    1    2    0    0  0.11153633418E+02  0.20058749420E+02  0.30585628174E+01  0.23154087614E+02  0.00000000000E+00 0. -1.
         11    1    1    2    0    0  0.18753593299E+03  0.72461278875E+01 -0.15447337349E+03  0.24307253167E+03  0.00000000000E+00 0.  1.
</event>
<event>
 7    1  0.2856214E-009  0.8648117E+02  0.7561462E-02  0.1311604E+00
         -3   -1    0    0    0  501 -0.00000000000E+00  0.00000000000E+00  0.53351097424E+02  0.53351097424E+02  0.00000000000E+00 0.  1.
          3   -1    0    0  501    0  0.00000000000E+00 -0.00000000000E+00 -0.25295488465E+03  0.25295488465E+03  0.00000000000E+00 0. -1.
         25    2    1    2    0    0  0.37239731940E+02  0.12904778491E+02 -0.15131097868E+03  0.20024353470E+03  0.12509648267E+03 0.  0.
          5    1    3    3  502    0 -0.20004595611E+02  0.13684512814E+02  0.11834511116E+02  0.27294281267E+02  0.41800000000E+01 0.  1.
         -5    1    3    3    0  502  0.57244327551E+02 -0.77973432230E+00 -0.16314548979E+03  0.17294925343E+03  0.41800000000E+01 0.  1.
        -11    1    1    2    0    0 -0.49662148254E+02  0.21701555504E+02 -0.14450137294E+02  0.56090043218E+02  0.00000000000E+00 0.  1.
         11    1    1    2    0    0  0.12422416314E+02 -0.34606333995E+02 -0.33842671253E+02  0.49972404157E+02  0.00000000000E+00 0. -1.
</event>
<event>
 7    1  0.2856214E-009  0.1171537E+03  0.7561462E-02  0.1247868E+00
         -1   -1    0    0    0  501 -0.00000000000E+00  0.00000000000E+00  0.73163578060E+02  0.73163578060E+02  0.00000000000E+00 0.  1.
          1   -1    0    0  501    0  0.00000000000E+00 -0.00000000000E+00 -0.23234735991E+03  0.23234735991E+03  0.00000000000E+00 0. -1.
         25    2    1    2    0    0 -0.69231579694E+02 -0.21544999761E+02 -0.87648718222E+02  0.16907770407E+03  0.12509106110E+03 0.  0.
          5    1    3    3  502    0  0.25683973281E+02 -0.38789141702E+02 -0.18167069527E+02  0.50117649712E+02  0.41800000000E+01 0. -1.
         -5    1    3    3    0  502 -0.94915552975E+02  0.17244141941E+02 -0.69481648696E+02  0.11896005436E+03  0.41800000000E+01 0. -1.
        -11    1    1    2    0    0 -0.16190541647E-02 -0.13459255070E+02  0.15040991688E+02  0.20183730592E+02  0.00000000000E+00 0.  1.
         11    1    1    2    0    0  0.69233198748E+02  0.35004254831E+02 -0.86576055314E+02  0.11624950331E+03  0.00000000000E+00 0. -1.
</event>
<event>
 7    1  0.2856214E-009  0.1235482E+03  0.7561462E-02  0.1237356E+00
         -1   -1    0    0    0  501 -0.00000000000E+00  0.00000000000E+00  0.22419695726E+03  0.22419695726E+03  0.00000000000E+00 0.  1.
          1   -1    0    0  501    0  0.00000000000E+00 -0.00000000000E+00 -0.94817092053E+02  0.94817092053E+02  0.00000000000E+00 0. -1.
         25    2    1    2    0    0  0.87625450870E+02 -0.21817468978E+02  0.11335514004E+03  0.19144742476E+03  0.12509399298E+03 0.  0.
          5    1    3    3  502    0  0.48021771406E+02 -0.61200899177E+02  0.11071438761E+03  0.13537646994E+03  0.41800000000E+01 0.  1.
         -5    1    3    3    0  502  0.39603679464E+02  0.39383430199E+02  0.26407524326E+01  0.56070954823E+02  0.41800000000E+01 0.  1.
        -11    1    1    2    0    0 -0.86109031999E+01  0.32343867723E+02 -0.21169694310E+02  0.39603401247E+02  0.00000000000E+00 0. -1.
         11    1    1    2    0    0 -0.79014547670E+02 -0.10526398745E+02  0.37194419474E+02  0.87963223304E+02  0.00000000000E+00 0.  1.
</event>
<event>
 7    1  0.2856214E-009  0.1064851E+03  0.7561462E-02  0.1267221E+00
          1   -1    0    0  501    0  0.00000000000E+00  0.00000000000E+00  0.90049321328E+03  0.90049321328E+03  0.00000000000E+00 0. -1.
         -1   -1    0    0    0  501 -0.00000000000E+00 -0.00000000000E+00 -0.21981654687E+02  0.21981654687E+02  0.00000000000E+00 0.  1.
         25    2    1    2    0    0 -0.34437191826E+02 -0.37603205027E+02  0.72539706162E+03  0.73786737997E+03  0.12508977659E+03 0.  0.
          5    1    3    3  502    0 -0.36093597006E+02  0.40109987761E+02  0.22287450920E+03  0.22935142928E+03  0.41800000000E+01 0. -1.
         -5    1    3    3    0  502  0.16564051796E+01 -0.77713192788E+02  0.50252255242E+03  0.50851595069E+03  0.41800000000E+01 0. -1.
        -11    1    1    2    0    0 -0.11806556891E+02  0.32384018276E+02  0.12786858353E+02  0.36764428077E+02  0.00000000000E+00 0.  1.
         11    1    1    2    0    0  0.46243748717E+02  0.52191867506E+01  0.14032763862E+03  0.14784305992E+03  0.00000000000E+00 0. -1.
</event>
<event>
 7    1  0.2856214E-009  0.1209303E+03  0.7561462E-02  0.1241570E+00
          3   -1    0    0  501    0  0.00000000000E+00  0.00000000000E+00  0.26641767060E+03  0.26641767060E+03  0.00000000000E+00 0. -1.
         -3   -1    0    0    0  501 -0.00000000000E+00 -0.00000000000E+00 -0.65061235457E+02  0.65061235457E+02  0.00000000000E+00 0.  1.
         25    2    1    2    0    0  0.47599175696E+02  0.27886984195E+02  0.17138245994E+03  0.21923076495E+03  0.12508723080E+03 0.  0.
          5    1    3    3  502    0  0.88232581773E+02  0.34886947435E+02  0.12581897197E+03  0.15763874427E+03  0.41800000000E+01 0.  1.
         -5    1    3    3    0  502 -0.40633406077E+02 -0.69999632406E+01  0.45563487974E+02  0.61592020677E+02  0.41800000000E+01 0.  1.
        -11    1    1    2    0    0 -0.48910977232E+02 -0.57679016744E+02  0.32515875488E+02  0.82319103646E+02  0.00000000000E+00 0.  1.
         11    1    1    2    0    0  0.13118015359E+01  0.29792032550E+02 -0.25419002841E+01  0.29929037468E+02  0.00000000000E+00 0. -1.
</event>
<event>
 7    1  0.2856214E-009  0.3192209E+03  0.7561462E-02  0.1076008E+00
          1   -1    0    0  501    0  0.00000000000E+00  0.00000000000E+00  0.14845912585E+03  0.14845912585E+03  0.00000000000E+00 0. -1.
         -1   -1    0    0    0  501 -0.00000000000E+00 -0.00000000000E+00 -0.71728448097E+03  0.71728448097E+03  0.00000000000E+00 0.  1.
         25    2    1    2    0    0  0.25297935876E+03 -0.16228792147E+03 -0.20385059162E+03  0.38410813804E+03  0.12509225630E+03 0.  0.
          5    1    3    3  502    0  0.18750498858E+03 -0.49883353008E+02 -0.10485581088E+03  0.22058713273E+03  0.41800000000E+01 0. -1.
         -5    1    3    3    0  502  0.65474370175E+02 -0.11240456847E+03 -0.98994780741E+02  0.16352100530E+03  0.41800000000E+01 0. -1.
        -11    1    1    2    0    0 -0.14096775327E+03  0.14255265291E+03 -0.23704338435E+03  0.31045568505E+03  0.00000000000E+00 0.  1.
         11    1    1    2    0    0 -0.11201160549E+03  0.19735268566E+02 -0.12793137914E+03  0.17117978373E+03  0.00000000000E+00 0. -1.
</event>
<event>
 7    1  0.2856214E-009  0.1336938E+03  0.7561462E-02  0.1222075E+00
          1   -1    0    0  501    0  0.00000000000E+00  0.00000000000E+00  0.19505977717E+03  0.19505977717E+03  0.00000000000E+00 0. -1.
         -1   -1    0    0    0  501 -0.00000000000E+00 -0.00000000000E+00 -0.12318244871E+03  0.12318244871E+03  0.00000000000E+00 0.  1.
         25    2    1    2    0    0 -0.90529440017E+02 -0.27500484124E+00  0.10435581887E+03  0.18636882306E+03  0.12509015206E+03 0.  0.
          5    1    3    3  502    0 -0.13430670757E+02 -0.48327270872E+02  0.75909348685E+02  0.91080237399E+02  0.41800000000E+01 0. -1.
         -5    1    3    3    0  502 -0.77098769260E+02  0.48052266031E+02  0.28446470184E+02  0.95288585665E+02  0.41800000000E+01 0. -1.
        -11    1    1    2    0    0  0.10571128561E+03  0.12729203060E+02 -0.19261597542E+02  0.10820313145E+03  0.00000000000E+00 0.  1.
         11    1    1    2    0    0 -0.15181845598E+02 -0.12454198219E+02 -0.13216892871E+02  0.23670271358E+02  0.00000000000E+00 0. -1.
</event>
<event>
 7    1  0.2856214E-009  0.1115452E+03  0.7561462E-02  0.1257735E+00
         -3   -1    0    0    0  501 -0.00000000000E+00  0.00000000000E+00  0.49938526814E+02  0.49938526814E+02  0.00000000000E+00 0.  1.
          3   -1    0    0  501    0  0.00000000000E+00 -0.00000000000E+00 -0.31769059236E+03  0.31769059236E+03  0.00000000000E+00 0. -1.
         25    2    1    2    0    0  0.69237119859E+01 -0.61750812119E+02 -0.15600349947E+03  0.20939268313E+03  0.12508838202E+03 0.  0.
          5    1    3    3  502    0  0.60620535975E+02 -0.59231954749E+02 -0.10671771136E+03  0.13634300922E+03  0.41800000000E+01 0.  1.
         -5    1    3    3    0  502 -0.53696823989E+02 -0.25188573703E+01 -0.49285788110E+02  0.73049673911E+02  0.41800000000E+01 0.  1.
        -11    1    1    2    0    0 -0.31862237541E+02  0.40637872632E+02 -0.11646804840E+02  0.52936631326E+02  0.00000000000E+00 0.  1.
         11    1    1    2    0    0  0.24938525555E+02  0.21112939487E+02 -0.10010176124E+03  0.10529980472E+03  0.00000000000E+00 0. -1.
</event>
<event>
 7    1  0.2856214E-009  0.2310610E+03  0.7561462E-02  0.1125895E+00
         -2   -1    0    0    0  501 -0.00000000000E+00  0.00000000000E+00  0.28397421363E+02  0.28397421363E+02  0.00000000000E+00 0.  1.
          2   -1    0    0  501    0  0.00000000000E+00 -0.00000000000E+00 -0.23943675411E+04  0.23943675411E+04  0.00000000000E+00 0. -1.
         25    2    1    2    0    0 -0.13648689726E+03 -0.17513518903E+03 -0.16002160835E+04  0.16203826693E+04  0.12508986179E+03 0.  0.
          5    1    3    3  502    0 -0.19879790118E+02 -0.30169271716E+02 -0.70966432307E+03  0.71059574643E+03  0.41800000000E+01 0. -1.
         -5    1    3    3    0  502 -0.11660710714E+03 -0.14496591731E+03 -0.89055176046E+03  0.90978692290E+03  0.41800000000E+01 0. -1.
        -11    1    1    2    0    0  0.13733322258E+03  0.11390232097E+03 -0.56849123602E+03  0.59583255885E+03  0.00000000000E+00 0. -1.
         11    1    1    2    0    0 -0.84632532501E+00  0.61232868059E+02 -0.19726280019E+03  0.20654973429E+03  0.00000000000E+00 0.  1.
</event>
<event>
 7    1  0.2856214E-009  0.1442200E+03  0.7561462E-02  0.1207761E+00
          1   -1    0    0  501    0  0.00000000000E+00  0.00000000000E+00  0.21397332725E+03  0.21397332725E+03  0.00000000000E+00 0. -1.
         -1   -1    0    0    0  501 -0.00000000000E+00 -0.00000000000E+00 -0.10161092272E+03  0.10161092272E+03  0.00000000000E+00 0.  1.
         25    2    1    2    0    0  0.63780107581E+02  0.75985087530E+02  0.57074283989E+02  0.16955023231E+03  0.12509265259E+03 0.  0.
          5    1    3    3  502    0 -0.34297358530E+02  0.28935972349E+02 -0.30872267854E+01  0.45173030308E+02  0.41800000000E+01 0.  1.
         -5    1    3    3    0  502  0.98077466112E+02  0.47049115180E+02  0.60161510774E+02  0.12437720200E+03  0.41800000000E+01 0.  1.
        -11    1    1    2    0    0 -0.86507970564E+02 -0.69241831839E+02  0.50841174247E+02  0.12191343341E+03  0.00000000000E+00 0. -1.
         11    1    1    2    0    0  0.22727862983E+02 -0.67432556904E+01  0.44469462924E+01  0.24120584247E+02  0.00000000000E+00 0.  1.
</event>
<event>
 7    1  0.2856214E-009  0.1790854E+03  0.7561462E-02  0.1168691E+00
         -2   -1    0    0    0  501 -0.00000000000E+00  0.00000000000E+00  0.16423110388E+03  0.16423110388E+03  0.00000000000E+00 0.  1.
          2   -1    0    0  501    0  0.00000000000E+00 -0.00000000000E+00 -0.31124689671E+03  0.31124689671E+03  0.00000000000E+00 0. -1.
         25    2    1    2    0    0 -0.38046058472E+02 -0.15845823758E+03  0.41384453060E+02  0.20956296256E+03  0.12508975458E+03 0.  0.
          5    1    3    3  502    0 -0.20427642113E+02 -0.15377748679E+03 -0.93749852287E+01  0.15546757460E+03  0.41800000000E+01 0. -1.
         -5    1    3    3    0  502 -0.17618416359E+02 -0.46807507912E+01  0.50759438289E+02  0.54095387958E+02  0.41800000000E+01 0. -1.
        -11    1    1    2    0    0  0.28026504221E+02  0.16807490943E+03 -0.15749606153E+03  0.23203376805E+03  0.00000000000E+00 0.  1.
         11    1    1    2    0    0  0.10019554251E+02 -0.96166718475E+01 -0.30904184348E+02  0.33881269974E+02  0.00000000000E+00 0. -1.
</event>
<event>
 7    1  0.2856214E-009  0.7836868E+02  0.7561462E-02  0.1333746E+00
          2   -1    0    0  501    0  0.00000000000E+00  0.00000000000E+00  0.11723069816E+03  0.11723069816E+03  0.00000000000E+00 0. -1.
         -2   -1    0    0    0  501 -0.00000000000E+00 -0.00000000000E+00 -0.13534929421E+03  0.13534929421E+03  0.00000000000E+00 0.  1.
         25    2    1    2    0    0  0.20688623360E+02  0.24963527076E+02 -0.63850714319E+02  0.14413593317E+03  0.12508819565E+03 0.  0.
          5    1    3    3  502    0  0.27523658285E+02  0.63655693477E+02 -0.50731199034E+00  0.69478981303E+02  0.41800000000E+01 0.  1.
         -5    1    3    3    0  502 -0.68350349250E+01 -0.38692166401E+02 -0.63343402328E+02  0.74656951865E+02  0.41800000000E+01 0.  1.
        -11    1    1    2    0    0  0.37424361645E+01 -0.22928147805E+02 -0.24675246664E+02  0.33890612095E+02  0.00000000000E+00 0.  1.
         11    1    1    2    0    0 -0.24431059525E+02 -0.20353792713E+01  0.70407364938E+02  0.74553447109E+02  0.00000000000E+00 0. -1.
</event>
<event>
 7    1  0.2856214E-009  0.1025662E+03  0.7561462E-02  0.1274990E+00
          1   -1    0    0  501    0  0.00000000000E+00  0.00000000000E+00  0.21732850684E+03  0.21732850684E+03  0.00000000000E+00 0. -1.
         -1   -1    0    0    0  501 -0.00000000000E+00 -0.00000000000E+00 -0.50266296488E+02  0.50266296488E+02  0.00000000000E+00 0.  1.
         25    2    1    2    0    0 -0.11674107598E+02 -0.19982462565E+02  0.10004275688E+03  0.16183532009E+03  0.12508610645E+03 0.  0.
          5    1    3    3  502    0  0.24422055765E+02  0.44995022025E+02  0.52797645218E+02  0.73661744178E+02  0.41800000000E+01 0. -1.
         -5    1    3    3    0  502 -0.36096163363E+02 -0.64977484590E+02  0.47245111662E+02  0.88173575912E+02  0.41800000000E+01 0. -1.
        -11    1    1    2    0    0 -0.29518292135E+02 -0.66610976174E+01  0.13432489840E+02  0.33107877844E+02  0.00000000000E+00 0.  1.
         11    1    1    2    0    0  0.41192399733E+02  0.26643560183E+02  0.53586963631E+02  0.72651605393E+02  0.00000000000E+00 0. -1.
</event>
<event>
 7    1  0.2856214E-009  0.1874873E+03  0.7561462E-02  0.1160747E+00
          2   -1    0    0  501    0  0.00000000000E+00  0.00000000000E+00  0.13616531209E+03  0.13616531209E+03  0.00000000000E+00 0. -1.
         -2   -1    0    0    0  501 -0.00000000000E+00 -0.00000000000E+00 -0.30197195066E+03  0.30197195066E+03  0.00000000000E+00 0.  1.
         25    2    1    2    0    0 -0.16018147354E+03 -0.23809546005E+02 -0.14333489682E+03  0.24984235867E+03  0.12510520610E+03 0.  0.
          5    1    3    3  502    0 -0.29866152091E+02 -0.60019549438E+02 -0.31022297584E+02  0.73987760494E+02  0.41800000000E+01 0. -1.
         -5    1    3    3    0  502 -0.13031532145E+03  0.36210003433E+02 -0.11231259924E+03  0.17585459818E+03  0.41800000000E+01 0. -1.
        -11    1    1    2    0    0  0.99309806452E+02 -0.14795876031E+02 -0.48695721250E+02  0.11159134766E+03  0.00000000000E+00 0.  1.
         11    1    1    2    0    0  0.60871667092E+02  0.38605422036E+02  0.26223979500E+02  0.76703556410E+02  0.00000000000E+00 0. -1.
</event>
<event>
 7    1  0.2856214E-009  0.8869044E+02  0.7561462E-02  0.1306054E+00
          1   -1    0    0  501    0  0.00000000000E+00  0.00000000000E+00  0.23959327962E+03  0.23959327962E+03  0.00000000000E+00 0. -1.
         -1   -1    0    0    0  501 -0.00000000000E+00 -0.00000000000E+00 -0.12184301136E+03  0.12184301136E+03  0.00000000000E+00 0.  1.
         25    2    1    2    0    0 -0.70029120966E+02  0.18701811592E+02 -0.54059311330E+02  0.15436460591E+03  0.12510870024E+03 0.  0.
          5    1    3    3  502    0 -0.12187926891E+01  0.13059164369E+02 -0.79487629714E+02  0.80670830584E+02  0.41800000000E+01 0. -1.
         -5    1    3    3    0  502 -0.68810328277E+02  0.56426472228E+01  0.25428318384E+02  0.73693775321E+02  0.41800000000E+01 0. -1.
        -11    1    1    2    0    0  0.67748106489E+02 -0.36191778410E+02  0.70566877222E+02  0.10430405034E+03  0.00000000000E+00 0.  1.
         11    1    1    2    0    0  0.22810144773E+01  0.17489966818E+02  0.10124270237E+03  0.10276763473E+03  0.00000000000E+00 0. -1.
</event>
<event>
 7    1  0.2856214E-009  0.9603131E+02  0.7561462E-02  0.1288870E+00
          1   -1    0    0  501    0  0.00000000000E+00  0.00000000000E+00  0.22176260658E+03  0.22176260658E+03  0.00000000000E+00 0.  1.
         -1   -1    0    0    0  501 -0.00000000000E+00 -0.00000000000E+00 -0.74356974014E+02  0.74356974014E+02  0.00000000000E+00 0. -1.
         25    2    1    2    0    0  0.25609119361E+02  0.33120327022E+02  0.20180797160E+02  0.13344273963E+03  0.12508763780E+03 0.  0.
          5    1    3    3  502    0  0.35715622513E+02  0.64173958098E+02 -0.24862436076E+02  0.77649956324E+02  0.41800000000E+01 0. -1.
         -5    1    3    3    0  502 -0.10106503152E+02 -0.31053631076E+02  0.45043233236E+02  0.55792783309E+02  0.41800000000E+01 0. -1.
        -11    1    1    2    0    0  0.25426537150E+02 -0.13532169206E+01  0.86239236880E+02  0.89919663952E+02  0.00000000000E+00 0.  1.
         11    1    1    2    0    0 -0.51035656512E+02 -0.31767110102E+02  0.40985598521E+02  0.72757177006E+02  0.00000000000E+00 0. -1.
</event>
<event>
 7    1  0.2856214E-009  0.2021611E+03  0.7561462E-02  0.1147928E+00
         -2   -1    0    0    0  501 -0.00000000000E+00  0.00000000000E+00  0.16858737362E+03  0.16858737362E+03  0.00000000000E+00 0.  1.
          2   -1    0    0  501    0  0.00000000000E+00 -0.00000000000E+00 -0.26906562363E+03  0.26906562363E+03  0.00000000000E+00 0. -1.
         25    2    1    2    0    0 -0.21665344670E+02  0.17839394728E+03 -0.79661468073E+02  0.23299512968E+03  0.12508794256E+03 0.  0.
          5    1    3    3  502    0 -0.68561311973E+02  0.96349286773E+02 -0.17031157830E+02  0.11954652357E+03  0.41800000000E+01 0.  1.
         -5    1    3    3    0  502  0.46895967302E+02  0.82044660510E+02 -0.62630310243E+02  0.11344860611E+03  0.41800000000E+01 0.  1.
        -11    1    1    2    0    0 -0.23754522559E+02 -0.67941985158E+02 -0.42050935213E+02  0.83358693856E+02  0.00000000000E+00 0. -1.
         11    1    1    2    0    0  0.45419867229E+02 -0.11045196213E+03  0.21234153282E+02  0.12129917371E+03  0.00000000000E+00 0.  1.
</event>
<event>
 7    1  0.2856214E-009  0.9931665E+02  0.7561462E-02  0.1281740E+00
          1   -1    0    0  501    0  0.00000000000E+00  0.00000000000E+00  0.42881270765E+03  0.42881270765E+03  0.00000000000E+00 0. -1.
         -1   -1    0    0    0  501 -0.00000000000E+00 -0.00000000000E+00 -0.31430071953E+02  0.31430071953E+02  0.00000000000E+00 0.  1.
         25    2    1    2    0    0  0.10599386918E+02 -0.38861687534E+02  0.22333470406E+03  0.25912957674E+03  0.12508864754E+03 0.  0.
          5    1    3    3  502    0  0.50560381403E+02 -0.60042623133E+01  0.30648466471E+02  0.59575198116E+02  0.41800000000E+01 0. -1.
         -5    1    3    3    0  502 -0.39960994485E+02 -0.32857425220E+02  0.19268623759E+03  0.19955437863E+03  0.41800000000E+01 0. -1.
        -11    1    1    2    0    0 -0.48932338943E+02  0.24338194562E+02  0.66856790647E+02  0.86351328679E+02  0.00000000000E+00 0.  1.
         11    1    1    2    0    0  0.38332952026E+02  0.14523492971E+02  0.10719114099E+03  0.11476187418E+03  0.00000000000E+00 0. -1.
</event>
<event>
 7    1  0.2856214E-009  0.9115732E+02  0.7561462E-02  0.1300073E+00
         -1   -1    0    0    0  501 -0.00000000000E+00  0.00000000000E+00  0.82596385551E+02  0.82596385551E+02  0.00000000000E+00 0.  1.
          1   -1    0    0  501    0  0.00000000000E+00 -0.00000000000E+00 -0.20495919540E+03  0.20495919540E+03  0.00000000000E+00 0. -1.
         25    2    1    2    0    0  0.35528790843E+02 -0.40482518571E+02 -0.12058143683E+03  0.18191301128E+03  0.12510528157E+03 0.  0.
          5    1    3    3  502    0  0.37752489234E+02  0.36283641166E+00  0.14540730079E+02  0.40672931107E+02  0.41800000000E+01 0.  1.
         -5    1    3    3    0  502 -0.22236983914E+01 -0.40845354983E+02 -0.13512216690E+03  0.14124008017E+03  0.41800000000E+01 0.  1.
        -11    1    1    2    0    0 -0.36609106186E+02  0.67171552278E+02 -0.11208930968E+02  0.77316778416E+02  0.00000000000E+00 0. -1.
         11    1    1    2    0    0  0.10803153431E+01 -0.26689033707E+02  0.94275579444E+01  0.28325791256E+02  0.00000000000E+00 0.  1.
</event>
<event>
 7    1  0.2856214E-009  0.9090801E+02  0.7561462E-02  0.1300668E+00
          1   -1    0    0  501    0  0.00000000000E+00  0.00000000000E+00  0.20401495383E+03  0.20401495383E+03  0.00000000000E+00 0. -1.
         -1   -1    0    0    0  501 -0.00000000000E+00 -0.00000000000E+00 -0.78314194295E+02  0.78314194295E+02  0.00000000000E+00 0.  1.
         25    2    1    2    0    0 -0.63236043189E+01 -0.19884883646E+02  0.13984154917E+03  0.18878290516E+03  0.12509168572E+03 0.  0.
          5    1    3    3  502    0  0.56559306182E+02 -0.27766365721E+02  0.74482441814E+02  0.97647492132E+02  0.41800000000E+01 0. -1.
         -5    1    3    3    0  502 -0.62882910500E+02  0.78814820743E+01  0.65359107356E+02  0.91135413024E+02  0.41800000000E+01 0. -1.
        -11    1    1    2    0    0  0.28868556288E+02  0.10154187296E+02 -0.44807127737E+02  0.54260296330E+02  0.00000000000E+00 0.  1.
         11    1    1    2    0    0 -0.22544951969E+02  0.97306963499E+01  0.30666338102E+02  0.39285946639E+02  0.00000000000E+00 0. -1.
</event>
<event>
 7    1  0.3579444E-009  0.1761574E+03  0.7561462E-02  0.1171575E+00
         -1   -1    0    0    0  501 -0.00000000000E+00  0.00000000000E+00  0.51047862323E+02  0.51047862323E+02  0.00000000000E+00 0.  1.
          1   -1    0    0  501    0  0.00000000000E+00 -0.00000000000E+00 -0.70783723287E+03  0.70783723287E+03  0.00000000000E+00 0. -1.
         25    2    1    2    0    0  0.10462032317E+03 -0.10694389060E+03 -0.43291416984E+03  0.47481276575E+03  0.12510026504E+03 0.  0.
          5    1    3    3  502    0 -0.53310444175E+01 -0.71637987652E+02 -0.10635130272E+03  0.12840752821E+03  0.41800000000E+01 0. -1.
         -5    1    3    3    0  502  0.10995136759E+03 -0.35305902947E+02 -0.32656286711E+03  0.34640523754E+03  0.41800000000E+01 0. -1.
        -11    1    1    2    0    0 -0.66327891305E+02  0.19177445251E+02 -0.48893560447E+02  0.84603450429E+02  0.00000000000E+00 0.  1.
         11    1    1    2    0    0 -0.38292431865E+02  0.87766445347E+02 -0.17498164026E+03  0.19946887901E+03  0.00000000000E+00 0. -1.
</event>
<event>
 7    1  0.2856214E-009  0.8525678E+02  0.7561462E-02  0.1314762E+00
          2   -1    0    0  501    0  0.00000000000E+00  0.00000000000E+00  0.42358212926E+03  0.42358212926E+03  0.00000000000E+00 0. -1.
         -2   -1    0    0    0  501 -0.00000000000E+00 -0.00000000000E+00 -0.29106652736E+02  0.29106652736E+02  0.00000000000E+00 0.  1.
         25    2    1    2    0    0  0.19311678943E+02  0.95690194764E+01  0.26534952830E+03  0.29414751963E+03  0.12509150276E+03 0.  0.
          5    1    3    3  502    0  0.33576352063E+02  0.56077163821E+02  0.85000166728E+02  0.10730573360E+03  0.41800000000E+01 0. -1.
         -5    1    3    3    0  502 -0.14264673120E+02 -0.46508144344E+02  0.18034936157E+03  0.18684178603E+03  0.41800000000E+01 0. -1.
        -11    1    1    2    0    0 -0.24051986226E+02  0.16840755110E+02  0.29108630380E+01  0.29505629933E+02  0.00000000000E+00 0.  1.
         11    1    1    2    0    0  0.47403072838E+01 -0.26409774587E+02  0.12621508519E+03  0.12903563243E+03  0.00000000000E+00 0. -1.
</event>
<event>
 7    1  0.2856214E-009  0.1055658E+03  0.7561462E-02  0.1269009E+00
          1   -1    0    0  501    0  0.00000000000E+00  0.00000000000E+00  0.23295853474E+03  0.23295853474E+03  0.00000000000E+00 0. -1.
         -1   -1    0    0    0  501 -0.00000000000E+00 -0.00000000000E+00 -0.60699685914E+02  0.60699685914E+02  0.00000000000E+00 0.  1.
         25    2    1    2    0    0  0.14607050464E+02 -0.45336010008E+02  0.98855047029E+02  0.16639670132E+03  0.12508725818E+03 0.  0.
          5    1    3    3  502    0  0.51662475188E+02  0.31846991545E+00  0.93880686953E+02  0.10723883881E+03  0.41800000000E+01 0.  1.
         -5    1    3    3    0  502 -0.37055424724E+02 -0.45654479924E+02  0.49743600766E+01  0.59157862510E+02  0.41800000000E+01 0.  1.
        -11    1    1    2    0    0  0.29447665876E+01  0.70009503764E+02  0.34910802307E+02  0.78286438067E+02  0.00000000000E+00 0.  1.
         11    1    1    2    0    0 -0.17551817052E+02 -0.24673493756E+02  0.38492999493E+02  0.48975081275E+02  0.00000000000E+00 0. -1.
</event>
<event>
 7    1  0.2856214E-009  0.1338690E+03  0.7561462E-02  0.1221825E+00
         -1   -1    0    0    0  501 -0.00000000000E+00  0.00000000000E+00  0.50110054291E+02  0.50110054291E+02  0.00000000000E+00 0.  1.
          1   -1    0    0  501    0  0.00000000000E+00 -0.00000000000E+00 -0.41294014620E+03  0.41294014620E+03  0.00000000000E+00 0. -1.
         25    2    1    2    0    0  0.74479480825E+02  0.48044867583E+02 -0.23184277574E+03  0.27794638247E+03  0.12509043330E+03 0.  0.
          5    1    3    3  502    0  0.71221839801E+02  0.87113810739E+02 -0.15503965370E+03  0.19161454304E+03  0.41800000000E+01 0.  1.
         -5    1    3    3    0  502  0.32576410237E+01 -0.39068943157E+02 -0.76803122039E+02  0.86331839430E+02  0.41800000000E+01 0.  1.
        -11    1    1    2    0    0 -0.73529783328E+02 -0.61295225668E+01 -0.37766004623E+02  0.82888305498E+02  0.00000000000E+00 0.  1.
         11    1    1    2    0    0 -0.94969749739E+00 -0.41915345016E+02 -0.93221311553E+02  0.10221551253E+03  0.00000000000E+00 0. -1.
</event>
<event>
 7    1  0.2856214E-009  0.9683051E+02  0.7561462E-02  0.1287106E+00
         -3   -1    0    0    0  501 -0.00000000000E+00  0.00000000000E+00  0.31933384722E+03  0.31933384722E+03  0.00000000000E+00 0.  1.
          3   -1    0    0  501    0  0.00000000000E+00 -0.00000000000E+00 -0.48610394499E+02  0.48610394499E+02  0.00000000000E+00 0. -1.
         25    2    1    2    0    0  0.30270138040E+02  0.33974595229E+02  0.94239315802E+02  0.16308995711E+03  0.12508689416E+03 0.  0.
          5    1    3    3  502    0  0.67021640111E+01  0.57321782013E+02  0.11138159477E+03  0.12551508973E+03  0.41800000000E+01 0. -1.
         -5    1    3    3    0  502  0.23567974029E+02 -0.23347186784E+02 -0.17142278972E+02  0.37574867384E+02  0.41800000000E+01 0. -1.
        -11    1    1    2    0    0 -0.24695994925E+02  0.29596056136E+02  0.84782205259E+02  0.93133458181E+02  0.00000000000E+00 0.  1.
         11    1    1    2    0    0 -0.55741431154E+01 -0.63570651365E+02  0.91701931659E+02  0.11172082642E+03  0.00000000000E+00 0. -1.
</event>
<event>
 7    1  0.2856214E-009  0.1260062E+03  0.7561462E-02  0.1233505E+00
          1   -1    0    0  501    0  0.00000000000E+00  0.00000000000E+00  0.18967785364E+03  0.18967785364E+03  0.00000000000E+00 0. -1.
         -1   -1    0    0    0  501 -0.00000000000E+00 -0.00000000000E+00 -0.14311583331E+03  0.14311583331E+03  0.00000000000E+00 0.  1.
         25    2    1    2    0    0  0.31204629352E+02 -0.69630080948E+02 -0.73306947345E+02  0.16383907081E+03  0.12508899044E+03 0.  0.
          5    1    3    3  502    0 -0.35908235018E+02 -0.52537230734E+02 -0.69540911512E+02  0.94355565438E+02  0.41800000000E+01 0. -1.
         -5    1    3    3    0  502  0.67112864370E+02 -0.17092850214E+02 -0.37660358330E+01  0.69483505369E+02  0.41800000000E+01 0. -1.
        -11    1    1    2    0    0  0.11718983916E+02  0.74720042017E+02  0.71395981205E+02  0.10400867942E+03  0.00000000000E+00 0.  1.
         11    1    1    2    0    0 -0.42923613268E+02 -0.50899610691E+01  0.48472986469E+02  0.64945936723E+02  0.00000000000E+00 0. -1.
</event>
<event>
 7    1  0.2856214E-009  0.1266128E+03  0.7561462E-02  0.1232570E+00
         -2   -1    0    0    0  501 -0.00000000000E+00  0.00000000000E+00  0.47528959316E+02  0.47528959316E+02  0.00000000000E+00 0.  1.
          2   -1    0    0  501    0  0.00000000000E+00 -0.00000000000E+00 -0.39736609395E+03  0.39736609395E+03  0.00000000000E+00 0. -1.
         25    2    1    2    0    0  0.62402212778E+02 -0.27868850760E+02 -0.11986001613E+03  0.18623769212E+03  0.12508935006E+03 0.  0.
          5    1    3    3  502    0  0.38255784760E+02  0.46771785225E+02 -0.72637368617E+02  0.94576766070E+02  0.41800000000E+01 0. -1.
         -5    1    3    3    0  502  0.24146428018E+02 -0.74640635985E+02 -0.47222647509E+02  0.91660926048E+02  0.41800000000E+01 0. -1.
        -11    1    1    2    0    0  0.10697320719E+02  0.38742806698E+02 -0.11648180056E+03  0.12322113294E+03  0.00000000000E+00 0. -1.
         11    1    1    2    0    0 -0.73099533496E+02 -0.10873955939E+02 -0.11349531795E+03  0.13543622821E+03  0.00000000000E+00 0.  1.
</event>
<event>
 7    1  0.2856214E-009  0.7780437E+02  0.7561462E-02  0.1335400E+00
          3   -1    0    0  501    0  0.00000000000E+00  0.00000000000E+00  0.86487184769E+02  0.86487184769E+02  0.00000000000E+00 0. -1.
         -3   -1    0    0    0  501 -0.00000000000E+00 -0.00000000000E+00 -0.16248167346E+03  0.16248167346E+03  0.00000000000E+00 0.  1.
         25    2    1    2    0    0  0.26365382678E+02  0.38330947135E+02 -0.43748858035E+02  0.14044853851E+03  0.12508970573E+03 0.  0.
          5    1    3    3  502    0  0.23135196616E+02  0.90479538461E+01  0.42392764506E+02  0.49312490037E+02  0.41800000000E+01 0. -1.
         -5    1    3    3    0  502  0.32301860625E+01  0.29282993289E+02 -0.86141622541E+02  0.91136048476E+02  0.41800000000E+01 0. -1.
        -11    1    1    2    0    0  0.23526753201E+02 -0.44553368062E+02 -0.32694246929E+01  0.50489601500E+02  0.00000000000E+00 0. -1.
         11    1    1    2    0    0 -0.49892135879E+02  0.62224209271E+01 -0.28976205968E+02  0.58030718219E+02  0.00000000000E+00 0.  1.
</event>
<event>
 7    1  0.2856214E-009  0.6348545E+02  0.7561462E-02  0.1383761E+00
          2   -1    0    0  501    0  0.00000000000E+00  0.00000000000E+00  0.15493569569E+03  0.15493569569E+03  0.00000000000E+00 0. -1.
         -2   -1    0    0    0  501 -0.00000000000E+00 -0.00000000000E+00 -0.78466777517E+02  0.78466777517E+02  0.00000000000E+00 0.  1.
         25    2    1    2    0    0  0.17042044425E+02 -0.43977426627E+01  0.40892013523E+02  0.13277679896E+03  0.12509096752E+03 0.  0.
          5    1    3    3  502    0  0.41989862156E+02  0.19736332728E+02  0.72147979281E+02  0.85880583764E+02  0.41800000000E+01 0. -1.
         -5    1    3    3    0  502 -0.24947817731E+02 -0.24134075390E+02 -0.31255965758E+02  0.46896215198E+02  0.41800000000E+01 0. -1.
        -11    1    1    2    0    0 -0.30266870245E+00  0.21494896328E+02 -0.26484864616E+02  0.34111145249E+02  0.00000000000E+00 0.  1.
         11    1    1    2    0    0 -0.16739375723E+02 -0.17097153665E+02  0.62061769269E+02  0.66514528998E+02  0.00000000000E+00 0. -1.
</event>
<event>
 7    1  0.3022754E-009  0.1091787E+03  0.7561462E-02  0.1262098E+00
         -1   -1    0    0    0  501 -0.00000000000E+00  0.00000000000E+00  0.32849946883E+02  0.32849946883E+02  0.00000000000E+00 0.  1.
          1   -1    0    0  501    0  0.00000000000E+00 -0.00000000000E+00 -0.58909158610E+03  0.58909158610E+03  0.00000000000E+00 0. -1.
         25    2    1    2    0    0 -0.49494316173E+02 -0.54477026198E+02 -0.40526840656E+03  0.43047218621E+03  0.12508552287E+03 0.  0.
          5    1    3    3  502    0 -0.52851082072E+02  0.28580687891E+02 -0.13870631359E+03  0.15121840638E+03  0.41800000000E+01 0. -1.
         -5    1    3    3    0  502  0.33567658986E+01 -0.83057714089E+02 -0.26656209296E+03  0.27925377984E+03  0.41800000000E+01 0. -1.
        -11    1    1    2    0    0  0.11327033109E+02  0.49276681253E+01  0.11806436647E+02  0.17087291725E+02  0.00000000000E+00 0.  1.
         11    1    1    2    0    0  0.38167283064E+02  0.49549358073E+02 -0.16277966930E+03  0.17438205504E+03  0.00000000000E+00 0. -1.
</event>
<event>
 7    1  0.2856214E-009  0.1118779E+03  0.7561462E-02  0.1257131E+00
         -2   -1    0    0    0  501 -0.00000000000E+00  0.00000000000E+00  0.33820051633E+02  0.33820051633E+02  0.00000000000E+00 0.  1.
          2   -1    0    0  501    0  0.00000000000E+00 -0.00000000000E+00 -0.55752775046E+03  0.55752775046E+03  0.00000000000E+00 0. -1.
         25    2    1    2    0    0 -0.43417477837E+02 -0.69218809093E+02 -0.31232446479E+03  0.34622097360E+03  0.12508425296E+03 0.  0.
          5    1    3    3  502    0 -0.74968719659E+02 -0.55085594799E+02 -0.29064681385E+03  0.30520120328E+03  0.41800000000E+01 0.  1.
         -5    1    3    3    0  502  0.31551241822E+02 -0.14133214295E+02 -0.21677650941E+02  0.41019770320E+02  0.41800000000E+01 0.  1.
        -11    1    1    2    0    0 -0.11071647924E+02  0.17326395730E+02  0.19926869753E+00  0.20562711026E+02  0.00000000000E+00 0.  1.
         11    1    1    2    0    0  0.54489125760E+02  0.51892413364E+02 -0.21158250273E+03  0.22456411747E+03  0.00000000000E+00 0. -1.
</event>
<event>
 7    1  0.2856214E-009  0.2514856E+03  0.7561462E-02  0.1112370E+00
          2   -1    0    0  501    0  0.00000000000E+00  0.00000000000E+00  0.77221088731E+03  0.77221088731E+03  0.00000000000E+00 0. -1.
         -2   -1    0    0    0  501 -0.00000000000E+00 -0.00000000000E+00 -0.92346210725E+02  0.92346210725E+02  0.00000000000E+00 0.  1.
         25    2    1    2    0    0 -0.47760826851E+02 -0.23577646889E+03  0.40350901751E+03  0.48614718349E+03  0.12509163417E+03 0.  0.
          5    1    3    3  502    0 -0.54101621505E+02 -0.17397945760E+03  0.37648118646E+03  0.41827191308E+03  0.41800000000E+01 0. -1.
         -5    1    3    3    0  502  0.63407946537E+01 -0.61797011293E+02  0.27027831048E+02  0.67875270406E+02  0.41800000000E+01 0. -1.
        -11    1    1    2    0    0 -0.11365202460E+02  0.16856300552E+03  0.17767946688E+03  0.24517880742E+03  0.00000000000E+00 0. -1.
         11    1    1    2    0    0  0.59126029311E+02  0.67213463369E+02  0.98676192205E+02  0.13323110713E+03  0.00000000000E+00 0.  1.
</event>
<event>
 7    1  0.2856214E-009  0.1292650E+03  0.7561462E-02  0.1228550E+00
         -2   -1    0    0    0  501 -0.00000000000E+00  0.00000000000E+00  0.92934770401E+03  0.92934770401E+03  0.00000000000E+00 0.  1.
          2   -1    0    0  501    0  0.00000000000E+00 -0.00000000000E+00 -0.19336463866E+02  0.19336463866E+02  0.00000000000E+00 0. -1.
         25    2    1    2    0    0  0.77690009139E+02  0.61915897127E+01  0.49475075463E+03  0.51623642045E+03  0.12509060433E+03 0.  0.
          5    1    3    3  502    0  0.17913323774E+02  0.58307219594E+02  0.29517706155E+03  0.30144251374E+03  0.41800000000E+01 0. -1.
         -5    1    3    3    0  502  0.59776685364E+02 -0.52115629881E+02  0.19957369307E+03  0.21479390671E+03  0.41800000000E+01 0. -1.
        -11    1    1    2    0    0 -0.98090367292E+01 -0.40672409681E+02  0.19381254336E+03  0.19827698826E+03  0.00000000000E+00 0.  1.
         11    1    1    2    0    0 -0.67880972409E+02  0.34480819969E+02  0.22144794216E+03  0.23417075916E+03  0.00000000000E+00 0. -1.
</event>
<event>
 7    1  0.2856214E-009  0.9066217E+02  0.7561462E-02  0.1301256E+00
          2   -1    0    0  501    0  0.00000000000E+00  0.00000000000E+00  0.39665383782E+02  0.39665383782E+02  0.00000000000E+00 0. -1.
         -2   -1    0    0    0  501 -0.00000000000E+00 -0.00000000000E+00 -0.39354153690E+03  0.39354153690E+03  0.00000000000E+00 0.  1.
         25    2    1    2    0    0  0.39126372805E+02 -0.17830897545E+02 -0.29720902628E+03  0.32531433050E+03  0.12508954539E+03 0.  0.
          5    1    3    3  502    0 -0.10554065955E+01  0.50048012204E+02 -0.15093176110E+03  0.15907163895E+03  0.41800000000E+01 0. -1.
         -5    1    3    3    0  502  0.40181779401E+02 -0.67878909749E+02 -0.14627726518E+03  0.16624269155E+03  0.41800000000E+01 0. -1.
        -11    1    1    2    0    0 -0.36865596083E+02  0.28787956608E+01 -0.75303577829E+02  0.83892720023E+02  0.00000000000E+00 0.  1.
         11    1    1    2    0    0 -0.22607767221E+01  0.14952101884E+02  0.18636450994E+02  0.23999870161E+02  0.00000000000E+00 0. -1.
</event>
<event>
 7    1  0.4593633E-009  0.1025739E+03  0.7561462E-02  0.1274975E+00
          2   -1    0    0  501    0  0.00000000000E+00  0.00000000000E+00  0.87040054539E+03  0.87040054539E+03  0.00000000000E+00 0.  1.
         -2   -1    0    0    0  501 -0.00000000000E+00 -0.00000000000E+00 -0.17426606196E+02  0.17426606196E+02  0.00000000000E+00 0. -1.
         25    2    1    2    0    0  0.48526011368E+02  0.24346617286E+02  0.55359265493E+03  0.57014187003E+03  0.12509753321E+03 0.  0.
          5    1    3    3  502    0  0.74391973221E+02  0.43553498199E+02  0.24331421004E+03  0.25816729090E+03  0.41800000000E+01 0. -1.
         -5    1    3    3    0  502 -0.25865961854E+02 -0.19206880913E+02  0.31027844490E+03  0.31197457913E+03  0.41800000000E+01 0. -1.
        -11    1    1    2    0    0 -0.31749158237E+01  0.21579331758E+02  0.16011150686E+02  0.27057431436E+02  0.00000000000E+00 0. -1.
         11    1    1    2    0    0 -0.45351095544E+02 -0.45925949044E+02  0.28337013357E+03  0.29062785011E+03  0.00000000000E+00 0.  1.
</event>
<event>
 7    1  0.2856214E-009  0.1068456E+03  0.7561462E-02  0.1266525E+00
         -1   -1    0    0    0  501 -0.00000000000E+00  0.00000000000E+00  0.63393304364E+03  0.63393304364E+03  0.00000000000E+00 0.  1.
          1   -1    0    0  501    0  0.00000000000E+00 -0.00000000000E+00 -0.21727085086E+02  0.21727085086E+02  0.00000000000E+00 0. -1.
         25    2    1    2    0    0  0.62907792859E+02  0.15477633596E+01  0.40800623373E+03  0.43136516635E+03  0.12508810498E+03 0.  0.
          5    1    3    3  502    0  0.75125071148E+02 -0.34471909097E+02  0.36288831666E+03  0.37220624874E+03  0.41800000000E+01 0.  1.
         -5    1    3    3    0  502 -0.12217278289E+02  0.36019672457E+02  0.45117917066E+02  0.59158917613E+02  0.41800000000E+01 0.  1.
        -11    1    1    2    0    0 -0.68050391735E+02 -0.22045164552E+02  0.15251168898E+03  0.16845373362E+03  0.00000000000E+00 0.  1.
         11    1    1    2    0    0  0.51425988759E+01  0.20497401192E+02  0.51688035844E+02  0.55841228749E+02  0.00000000000E+00 0. -1.
</event>
<event>
 7    1  0.2856214E-009  0.1107693E+03  0.7561462E-02  0.1259152E+00
         -2   -1    0    0    0  501 -0.00000000000E+00  0.00000000000E+00  0.29766963104E+03  0.29766963104E+03  0.00000000000E+00 0.  1.
          2   -1    0    0  501    0  0.00000000000E+00 -0.00000000000E+00 -0.76082827059E+02  0.76082827059E+02  0.00000000000E+00 0. -1.
         25    2    1    2    0    0 -0.54304424536E+02 -0.52616456666E+02  0.44864450977E+02  0.15289792688E+03  0.12508994782E+03 0.  0.
          5    1    3    3  502    0  0.10178757398E+02 -0.38922344169E+02  0.71120052223E+02  0.81817419942E+02  0.41800000000E+01 0.  1.
         -5    1    3    3    0  502 -0.64483181934E+02 -0.13694112497E+02 -0.26255601245E+02  0.71080506935E+02  0.41800000000E+01 0.  1.
        -11    1    1    2    0    0  0.50645014163E+02 -0.10577041067E+02  0.27126729041E+02  0.58417896965E+02  0.00000000000E+00 0. -1.
         11    1    1    2    0    0  0.36594103720E+01  0.63193497733E+02  0.14959562396E+03  0.16243663425E+03  0.00000000000E+00 0.  1.
</event>
<event>
 7    1  0.2856214E-009  0.8819663E+02  0.7561462E-02  0.1307279E+00
          2   -1    0    0  501    0  0.00000000000E+00  0.00000000000E+00  0.24418833845E+03  0.24418833845E+03  0.00000000000E+00 0. -1.
         -2   -1    0    0    0  501 -0.00000000000E+00 -0.00000000000E+00 -0.66322384733E+02  0.66322384733E+02  0.00000000000E+00 0.  1.
         25    2    1    2    0    0  0.50331014586E+02 -0.25798691365E+02  0.51054152192E+02  0.14646756855E+03  0.12508972250E+03 0.  0.
          5    1    3    3  502    0  0.37394020301E+02  0.90791832068E+01 -0.35276534567E+02  0.52370321873E+02  0.41800000000E+01 0.  1.
         -5    1    3    3    0  502  0.12936994285E+02 -0.34877874572E+02  0.86330686759E+02  0.94097246677E+02  0.41800000000E+01 0.  1.
        -11    1    1    2    0    0  0.19790025058E+02  0.22626081016E+02  0.60136662896E+02  0.67230966512E+02  0.00000000000E+00 0.  1.
         11    1    1    2    0    0 -0.70121039644E+02  0.31726103495E+01  0.66675138624E+02  0.96812188116E+02  0.00000000000E+00 0. -1.
</event>
<event>
 7    1  0.2856214E-009  0.1368514E+03  0.7561462E-02  0.1217629E+00
         -2   -1    0    0    0  501 -0.00000000000E+00  0.00000000000E+00  0.38258725234E+02  0.38258725234E+02  0.00000000000E+00 0.  1.
          2   -1    0    0  501    0  0.00000000000E+00 -0.00000000000E+00 -0.59400346270E+03  0.59400346270E+03  0.00000000000E+00 0. -1.
         25    2    1    2    0    0  0.92023171215E+02  0.45459351102E+02 -0.34637530594E+03  0.38230548113E+03  0.12508721634E+03 0.  0.
          5    1    3    3  502    0  0.13095840357E+02  0.59424588548E+02 -0.24775285848E+03  0.25515041455E+03  0.41800000000E+01 0.  1.
         -5    1    3    3    0  502  0.78927330858E+02 -0.13965237446E+02 -0.98622447455E+02  0.12715506657E+03  0.41800000000E+01 0.  1.
        -11    1    1    2    0    0  0.49864840291E+01 -0.34456137233E+02 -0.31003765777E+02  0.46618922214E+02  0.00000000000E+00 0.  1.
         11    1    1    2    0    0 -0.97009655244E+02 -0.11003213869E+02 -0.17836566575E+03  0.20333778459E+03  0.00000000000E+00 0. -1.
</event>
<event>
 7    1  0.2856214E-009  0.2301419E+03  0.7561462E-02  0.1126540E+00
          1   -1    0    0  501    0  0.00000000000E+00  0.00000000000E+00  0.96418386419E+03  0.96418386419E+03  0.00000000000E+00 0. -1.
         -1   -1    0    0    0  501 -0.00000000000E+00 -0.00000000000E+00 -0.61636637024E+02  0.61636637024E+02  0.00000000000E+00 0.  1.
         25    2    1    2    0    0 -0.69380912441E+02 -0.20200625180E+03  0.37201147035E+03  0.44683431115E+03  0.12509248886E+03 0.  0.
          5    1    3    3  502    0 -0.15946762563E+02  0.14223577840E+02  0.56941641838E+02  0.60962548979E+02  0.41800000000E+01 0.  1.
         -5    1    3    3    0  502 -0.53434149878E+02 -0.21622982964E+03  0.31506982852E+03  0.38587176217E+03  0.41800000000E+01 0.  1.
        -11    1    1    2    0    0  0.39576772254E+02  0.70053514622E+02  0.10386514391E+03  0.13138410837E+03  0.00000000000E+00 0.  1.
         11    1    1    2    0    0  0.29804140186E+02  0.13195273718E+03  0.42667061290E+03  0.44760208169E+03  0.00000000000E+00 0. -1.
</event>
<event>
 7    1  0.2856214E-009  0.2917180E+03  0.7561462E-02  0.1089456E+00
          2   -1    0    0  501    0  0.00000000000E+00  0.00000000000E+00  0.28719907755E+03  0.28719907755E+03  0.00000000000E+00 0. -1.
         -2   -1    0    0    0  501 -0.00000000000E+00 -0.00000000000E+00 -0.32138235060E+03  0.32138235060E+03  0.00000000000E+00 0.  1.
         25    2    1    2    0    0  0.24881805029E+03 -0.10652077887E+03 -0.10150917268E+03  0.31497265047E+03  0.12508620996E+03 0.  0.
          5    1    3    3  502    0  0.52488355108E+02  0.28393803794E+02 -0.23512933881E+02  0.64277258619E+02  0.41800000000E+01 0.  1.
         -5    1    3    3    0  502  0.19632969518E+03 -0.13491458267E+03 -0.77996238800E+02  0.25069539185E+03  0.41800000000E+01 0.  1.
        -11    1    1    2    0    0 -0.57804595038E+02 -0.14035573498E+02  0.75837120184E+01  0.59965667002E+02  0.00000000000E+00 0.  1.
         11    1    1    2    0    0 -0.19101345525E+03  0.12055635237E+03  0.59742187615E+02  0.23364311068E+03  0.00000000000E+00 0. -1.
</event>
<event>
 7    1  0.2856214E-009  0.7118917E+02  0.7561462E-02  0.1356095E+00
         -1   -1    0    0    0  501 -0.00000000000E+00  0.00000000000E+00  0.38807959269E+02  0.38807959269E+02  0.00000000000E+00 0.  1.
          1   -1    0    0  501    0  0.00000000000E+00 -0.00000000000E+00 -0.31458876662E+03  0.31458876662E+03  0.00000000000E+00 0. -1.
         25    2    1    2    0    0 -0.12230262216E+02 -0.95330838771E+01 -0.13217602711E+03  0.18263196559E+03  0.12507387302E+03 0.  0.
          5    1    3    3  502    0 -0.33612794262E+02 -0.79195927527E+00 -0.14960526755E+03  0.15339379263E+03  0.41800000000E+01 0.  1.
         -5    1    3    3    0  502  0.21382532045E+02 -0.87411246018E+01  0.17429240442E+02  0.29238172965E+02  0.41800000000E+01 0.  1.
        -11    1    1    2    0    0  0.22424912389E+02 -0.33768656088E+02 -0.35571263011E+02  0.53930636765E+02  0.00000000000E+00 0.  1.
         11    1    1    2    0    0 -0.10194650173E+02  0.43301739965E+02 -0.10803351723E+03  0.11683412353E+03  0.00000000000E+00 0. -1.
</event>
<event>
 7    1  0.2856214E-009  0.1017598E+03  0.7561462E-02  0.1276638E+00
         -1   -1    0    0    0  501 -0.00000000000E+00  0.00000000000E+00  0.41194521000E+02  0.41194521000E+02  0.00000000000E+00 0.  1.
          1   -1    0    0  501    0  0.00000000000E+00 -0.00000000000E+00 -0.30380743151E+03  0.30380743151E+03  0.00000000000E+00 0. -1.
         25    2    1    2    0    0  0.10883122216E+02 -0.27167960644E+02 -0.15473348326E+03  0.20111196383E+03  0.12508809185E+03 0.  0.
          5    1    3    3  502    0 -0.28596154501E+01 -0.76321073890E+02 -0.81733944557E+02  0.11194192161E+03  0.41800000000E+01 0. -1.
         -5    1    3    3    0  502  0.13742737666E+02  0.49153113246E+02 -0.72999538699E+02  0.89170042226E+02  0.41800000000E+01 0. -1.
        -11    1    1    2    0    0 -0.36314998134E+02  0.33723367860E+02 -0.22251051207E+02  0.54324524012E+02  0.00000000000E+00 0.  1.
         11    1    1    2    0    0  0.25431875918E+02 -0.65554072155E+01 -0.85628376045E+02  0.89565464664E+02  0.00000000000E+00 0. -1.
</event>
<event>
 7    1  0.2856214E-009  0.1496168E+03  0.7561462E-02  0.1200945E+00
          2   -1    0    0  501    0  0.00000000000E+00  0.00000000000E+00  0.84205358458E+03  0.84205358458E+03  0.00000000000E+00 0. -1.
         -2   -1    0    0    0  501 -0.00000000000E+00 -0.00000000000E+00 -0.34267543823E+02  0.34267543823E+02  0.00000000000E+00 0.  1.
         25    2    1    2    0    0  0.82823059670E+02  0.99981787699E+02  0.44615819915E+03  0.48120807028E+03  0.12509217064E+03 0.  0.
          5    1    3    3  502    0  0.35144854355E+02 -0.15754080871E+02  0.21345986241E+03  0.21694685320E+03  0.41800000000E+01 0. -1.
         -5    1    3    3    0  502  0.47678205315E+02  0.11573586857E+03  0.23269833674E+03  0.26426121709E+03  0.41800000000E+01 0. -1.
        -11    1    1    2    0    0 -0.38779978521E+02 -0.19267512110E+02  0.23306118010E+03  0.23704986275E+03  0.00000000000E+00 0. -1.
         11    1    1    2    0    0 -0.44043081149E+02 -0.80714275589E+02  0.12856666151E+03  0.15806319538E+03  0.00000000000E+00 0.  1.
</event>
<event>
 7    1  0.2856214E-009  0.3311355E+03  0.7561462E-02  0.1070636E+00
         -1   -1    0    0    0  501 -0.00000000000E+00  0.00000000000E+00  0.86370458231E+02  0.86370458231E+02  0.00000000000E+00 0.  1.
          1   -1    0    0  501    0  0.00000000000E+00 -0.00000000000E+00 -0.14379396008E+04  0.14379396008E+04  0.00000000000E+00 0. -1.
         25    2    1    2    0    0 -0.16637105601E+03  0.28286423583E+03 -0.82968680952E+03  0.90095464414E+03  0.12509022628E+03 0.  0.
          5    1    3    3  502    0 -0.16266384993E+03  0.23705561562E+03 -0.78780426145E+03  0.83863455672E+03  0.41800000000E+01 0. -1.
         -5    1    3    3    0  502 -0.37072060821E+01  0.45808620212E+02 -0.41882548071E+02  0.62320087417E+02  0.41800000000E+01 0. -1.
        -11    1    1    2    0    0  0.12729741065E+03 -0.22971432137E+03 -0.33826767974E+03  0.42825030456E+03  0.00000000000E+00 0.  1.
         11    1    1    2    0    0  0.39073645361E+02 -0.53149914462E+02 -0.18361465334E+03  0.19510511037E+03  0.00000000000E+00 0. -1.
</event>
<event>
 7    1  0.2856214E-009  0.1255349E+03  0.7561462E-02  0.1234236E+00
         -4   -1    0    0    0  501 -0.00000000000E+00  0.00000000000E+00  0.61710665402E+02  0.61710665402E+02  0.00000000000E+00 0.  1.
          4   -1    0    0  501    0  0.00000000000E+00 -0.00000000000E+00 -0.28386151490E+03  0.28386151490E+03  0.00000000000E+00 0. -1.
         25    2    1    2    0    0 -0.21159411628E+02  0.65112616320E+02 -0.80114263924E+02  0.16356938282E+03  0.12509705915E+03 0.  0.
          5    1    3    3  502    0  0.17793479191E+02  0.91648235058E+02 -0.65227609975E+02  0.11396543508E+03  0.41800000000E+01 0.  1.
         -5    1    3    3    0  502 -0.38952890818E+02 -0.26535618738E+02 -0.14886653949E+02  0.49603947733E+02  0.41800000000E+01 0.  1.
        -11    1    1    2    0    0  0.39407321143E+02 -0.78386160046E+02 -0.12880003399E+03  0.15584215027E+03  0.00000000000E+00 0. -1.
         11    1    1    2    0    0 -0.18247909515E+02  0.13273543726E+02 -0.13236551591E+02  0.26160647216E+02  0.00000000000E+00 0.  1.
</event>
<event>
 7    1  0.2856214E-009  0.2259672E+03  0.7561462E-02  0.1129511E+00
          2   -1    0    0  501    0  0.00000000000E+00  0.00000000000E+00  0.80553486074E+03  0.80553486074E+03  0.00000000000E+00 0. -1.
         -2   -1    0    0    0  501 -0.00000000000E+00 -0.00000000000E+00 -0.79381189844E+02  0.79381189844E+02  0.00000000000E+00 0.  1.
         25    2    1    2    0    0  0.20101728142E+03 -0.50866453836E+02  0.20729002960E+03  0.31876658171E+03  0.12509050199E+03 0.  0.
          5    1    3    3  502    0  0.15235073121E+03 -0.81830222483E+02  0.19303149005E+03  0.25920177307E+03  0.41800000000E+01 0.  1.
         -5    1    3    3    0  502  0.48666550210E+02  0.30963768647E+02  0.14258539548E+02  0.59564808639E+02  0.41800000000E+01 0.  1.
        -11    1    1    2    0    0 -0.19162072978E+02  0.33291249000E+02  0.14543545377E+03  0.15042261636E+03  0.00000000000E+00 0. -1.
         11    1    1    2    0    0 -0.18185520844E+03  0.17575204836E+02  0.37342818753E+03  0.41572685251E+03  0.00000000000E+00 0.  1.
</event>
<event>
 7    1  0.2856214E-009  0.1438502E+03  0.7561462E-02  0.1208240E+00
          1   -1    0    0  501    0  0.00000000000E+00  0.00000000000E+00  0.14151521806E+04  0.14151521806E+04  0.00000000000E+00 0. -1.
         -1   -1    0    0    0  501 -0.00000000000E+00 -0.00000000000E+00 -0.23581787471E+02  0.23581787471E+02  0.00000000000E+00 0.  1.
         25    2    1    2    0    0  0.52560086465E+02 -0.11096886445E+03  0.10552137520E+04  0.10696729756E+04  0.12509021028E+03 0.  0.
          5    1    3    3  502    0 -0.31054904499E+02 -0.10132880972E+02  0.40774491651E+03  0.40907269734E+03  0.41800000000E+01 0. -1.
         -5    1    3    3    0  502  0.83614990964E+02 -0.10083598347E+03  0.64746883552E+03  0.66060027827E+03  0.41800000000E+01 0. -1.
        -11    1    1    2    0    0 -0.19854877636E+02  0.59509997535E+02  0.62706394457E+02  0.88700326259E+02  0.00000000000E+00 0.  1.
         11    1    1    2    0    0 -0.32705208829E+02  0.51458866910E+02  0.27365024668E+03  0.28036066624E+03  0.00000000000E+00 0. -1.
</event>
<event>
 7    1  0.2856214E-009  0.1109927E+03  0.7561462E-02  0.1258742E+00
          1   -1    0    0  501    0  0.00000000000E+00  0.00000000000E+00  0.36829665849E+03  0.36829665849E+03  0.00000000000E+00 0. -1.
         -1   -1    0    0    0  501 -0.00000000000E+00 -0.00000000000E+00 -0.38475604440E+02  0.38475604440E+02  0.00000000000E+00 0.  1.
         25    2    1    2    0    0 -0.36826535151E+02 -0.22154412155E+01  0.24892016997E+03  0.28101652073E+03  0.12509169449E+03 0.  0.
          5    1    3    3  502    0  0.45907454442E+02 -0.14871233945E+01  0.10988770072E+03  0.11917417958E+03  0.41800000000E+01 0.  1.
         -5    1    3    3    0  502 -0.82733989593E+02 -0.72831782098E+00  0.13903246925E+03  0.16184234115E+03  0.41800000000E+01 0.  1.
        -11    1    1    2    0    0  0.57327752469E+02  0.24850509403E+02  0.68714982615E+02  0.92875012013E+02  0.00000000000E+00 0. -1.
         11    1    1    2    0    0 -0.20501217318E+02 -0.22635068187E+02  0.12185901463E+02  0.32880730190E+02  0.00000000000E+00 0.  1.
</event>
<event>
 7    1  0.2856214E-009  0.1718168E+03  0.7561462E-02  0.1175966E+00
          2   -1    0    0  501    0  0.00000000000E+00  0.00000000000E+00  0.99390064485E+03  0.99390064485E+03  0.00000000000E+00 0. -1.
         -2   -1    0    0    0  501 -0.00000000000E+00 -0.00000000000E+00 -0.40961611086E+02  0.40961611086E+02  0.00000000000E+00 0.  1.
         25    2    1    2    0    0  0.12482770253E+03  0.54800535603E+02  0.23781057059E+03  0.30130847022E+03  0.12509145743E+03 0.  0.
          5    1    3    3  502    0  0.53747702364E+02  0.90421018037E+02  0.12971553320E+03  0.16705797786E+03  0.41800000000E+01 0.  1.
         -5    1    3    3    0  502  0.71080000167E+02 -0.35620482434E+02  0.10809503738E+03  0.13425049236E+03  0.41800000000E+01 0.  1.
        -11    1    1    2    0    0 -0.43164970316E+02 -0.63327072734E+02  0.43261073610E+03  0.43934676713E+03  0.00000000000E+00 0. -1.
         11    1    1    2    0    0 -0.81662732216E+02  0.85265371309E+01  0.28251772708E+03  0.29420701858E+03  0.00000000000E+00 0.  1.
</event>
<event>
 7    1  0.2856214E-009  0.1599011E+03  0.7561462E-02  0.1188808E+00
          2   -1    0    0  501    0  0.00000000000E+00  0.00000000000E+00  0.60651595973E+03  0.60651595973E+03  0.00000000000E+00 0. -1.
         -2   -1    0    0    0  501 -0.00000000000E+00 -0.00000000000E+00 -0.60275886216E+02  0.60275886216E+02  0.00000000000E+00 0.  1.
         25    2    1    2    0    0  0.74038195416E+02 -0.13127641791E+03  0.20756886945E+03  0.28538809189E+03  0.12508547136E+03 0.  0.
          5    1    3    3  502    0  0.71564519803E+02 -0.12822801780E+03  0.22406141976E+03  0.26792703722E+03  0.41800000000E+01 0. -1.
         -5    1    3    3    0  502  0.24736756122E+01 -0.30484001136E+01 -0.16492550315E+02  0.17461054670E+02  0.41800000000E+01 0. -1.
        -11    1    1    2    0    0 -0.72523013864E+02  0.55379093211E+02  0.12585660951E+03  0.15545519503E+03  0.00000000000E+00 0.  1.
         11    1    1    2    0    0 -0.15151815522E+01  0.75897324704E+02  0.21281459456E+03  0.22594855904E+03  0.00000000000E+00 0. -1.
</event>
<event>
 7    1  0.2856214E-009  0.1337282E+03  0.7561462E-02  0.1222026E+00
         -1   -1    0    0    0  501 -0.00000000000E+00  0.00000000000E+00  0.26613967656E+03  0.26613967656E+03  0.00000000000E+00 0.  1.
          1   -1    0    0  501    0  0.00000000000E+00 -0.00000000000E+00 -0.69427780122E+02  0.69427780122E+02  0.00000000000E+00 0. -1.
         25    2    1    2    0    0  0.45210876889E+02  0.69405499553E+02  0.11234180291E+03  0.18742990611E+03  0.12509253482E+03 0.  0.
          5    1    3    3  502    0  0.87882318906E+02  0.33630856818E+02  0.70351535223E+02  0.11756337616E+03  0.41800000000E+01 0. -1.
         -5    1    3    3    0  502 -0.42671442017E+02  0.35774642735E+02  0.41990267690E+02  0.69866529950E+02  0.41800000000E+01 0. -1.
        -11    1    1    2    0    0  0.35076503555E+01 -0.68611190728E+02  0.68188058678E+02  0.96795715042E+02  0.00000000000E+00 0.  1.
         11    1    1    2    0    0 -0.48718527245E+02 -0.79430882476E+00  0.16182034845E+02  0.51341835526E+02  0.00000000000E+00 0. -1.
</event>
<event>
 7    1  0.2856214E-009  0.1305677E+03  0.7561462E-02  0.1226616E+00
         -2   -1    0    0    0  501 -0.00000000000E+00  0.00000000000E+00  0.58544459461E+03  0.58544459461E+03  0.00000000000E+00 0.  1.
          2   -1    0    0  501    0  0.00000000000E+00 -0.00000000000E+00 -0.30073454988E+02  0.30073454988E+02  0.00000000000E+00 0. -1.
         25    2    1    2    0    0 -0.56619493727E+02 -0.49446839491E+02  0.28191761180E+03  0.31745173456E+03  0.12508919586E+03 0.  0.
          5    1    3    3  502    0 -0.90016097042E+02 -0.55311647659E+01  0.16434838572E+03  0.18751361497E+03  0.41800000000E+01 0.  1.
         -5    1    3    3    0  502  0.33396603315E+02 -0.43915674725E+02  0.11756922608E+03  0.12993811958E+03  0.41800000000E+01 0.  1.
        -11    1    1    2    0    0 -0.22012815147E+02 -0.11089266537E+01  0.83442653214E+02  0.86304519721E+02  0.00000000000E+00 0.  1.
         11    1    1    2    0    0  0.78632308874E+02  0.50555766144E+02  0.19001087460E+03  0.21176179532E+03  0.00000000000E+00 0. -1.
</event>
<event>
 7    1  0.2856214E-009  0.1479464E+03  0.7561462E-02  0.1203019E+00
         -1   -1    0    0    0  501 -0.00000000000E+00  0.00000000000E+00  0.31616209220E+03  0.31616209220E+03  0.00000000000E+00 0.  1.
          1   -1    0    0  501    0  0.00000000000E+00 -0.00000000000E+00 -0.91528859970E+02  0.91528859970E+02  0.00000000000E+00 0. -1.
         25    2    1    2    0    0 -0.40178414838E+01  0.13291790316E+03  0.10402565284E+03  0.21011592835E+03  0.12507619624E+03 0.  0.
          5    1    3    3  502    0  0.41807364043E+02  0.90613880354E+02  0.10847026102E+03  0.14745169015E+03  0.41800000000E+01 0. -1.
         -5    1    3    3    0  502 -0.45825205526E+02  0.42304022807E+02 -0.44446081869E+01  0.62664238200E+02  0.41800000000E+01 0. -1.
        -11    1    1    2    0    0  0.79887381184E+01 -0.68313785158E+02  0.10113653730E+02  0.69518912327E+02  0.00000000000E+00 0. -1.
         11    1    1    2    0    0 -0.39708966346E+01 -0.64604118003E+02  0.11049392566E+03  0.12805611150E+03  0.00000000000E+00 0.  1.
</event>
<event>
 7    1  0.2856214E-009  0.1093968E+03  0.7561462E-02  0.1261691E+00
         -1   -1    0    0    0  501 -0.00000000000E+00  0.00000000000E+00  0.72341051109E+03  0.72341051109E+03  0.00000000000E+00 0.  1.
          1   -1    0    0  501    0  0.00000000000E+00 -0.00000000000E+00 -0.26059773398E+02  0.26059773398E+02  0.00000000000E+00 0. -1.
         25    2    1    2    0    0  0.37641013415E+02  0.59920179327E+02  0.48961812158E+03  0.51027551812E+03  0.12509166890E+03 0.  0.
          5    1    3    3  502    0 -0.56251220847E+01  0.68907497163E+02  0.43213050114E+03  0.43764612141E+03  0.41800000000E+01 0. -1.
         -5    1    3    3    0  502  0.43266135500E+02 -0.89873178368E+01  0.57487620436E+02  0.72629396710E+02  0.41800000000E+01 0. -1.
        -11    1    1    2    0    0 -0.46886150886E+02 -0.24665569260E+01  0.40086172667E+02  0.61735697025E+02  0.00000000000E+00 0. -1.
         11    1    1    2    0    0  0.92451374711E+01 -0.57453622401E+02  0.16764644345E+03  0.17745906935E+03  0.00000000000E+00 0.  1.
</event>
<event>
 7    1  0.2856214E-009  0.1202644E+03  0.7561462E-02  0.1242661E+00
          2   -1    0    0  501    0  0.00000000000E+00  0.00000000000E+00  0.27748008928E+03  0.27748008928E+03  0.00000000000E+00 0. -1.
         -2   -1    0    0    0  501 -0.00000000000E+00 -0.00000000000E+00 -0.63848729658E+02  0.63848729658E+02  0.00000000000E+00 0.  1.
         25    2    1    2    0    0 -0.58976595880E+02  0.60975040299E+02  0.88507277378E+02  0.17515177626E+03  0.12509361366E+03 0.  0.
          5    1    3    3  502    0 -0.49833382910E+02  0.89758258381E+02  0.99220486155E+02  0.14283587880E+03  0.41800000000E+01 0. -1.
         -5    1    3    3    0  502 -0.91432129704E+01 -0.28783218082E+02 -0.10713208776E+02  0.32315897464E+02  0.41800000000E+01 0. -1.
        -11    1    1    2    0    0 -0.11019939282E+02 -0.27653011672E+02  0.21300287779E+02  0.36603693472E+02  0.00000000000E+00 0.  1.
         11    1    1    2    0    0  0.69996535162E+02 -0.33322028626E+02  0.10382379446E+03  0.12957334920E+03  0.00000000000E+00 0. -1.
</event>
<event>
 7    1  0.2856214E-009  0.1882164E+03  0.7561462E-02  0.1160080E+00
         -3   -1    0    0    0  501 -0.00000000000E+00  0.00000000000E+00  0.96667093264E+02  0.96667093264E+02  0.00000000000E+00 0.  1.
          3   -1    0    0  501    0  0.00000000000E+00 -0.00000000000E+00 -0.64896170948E+03  0.64896170948E+03  0.00000000000E+00 0. -1.
         25    2    1    2    0    0 -0.17178338478E+03  0.23729372345E+01 -0.50362381206E+03  0.54662688932E+03  0.12509536339E+03 0.  0.
          5    1    3    3  502    0 -0.49642499047E+02  0.52271302363E+02 -0.11113327489E+03  0.13253204876E+03  0.41800000000E+01 0.  1.
         -5    1    3    3    0  502 -0.12214088573E+03 -0.49898365128E+02 -0.39249053717E+03  0.41409484056E+03  0.41800000000E+01 0.  1.
        -11    1    1    2    0    0  0.41127064613E+02  0.45482759184E+01  0.25497303384E+02  0.48602826434E+02  0.00000000000E+00 0.  1.
         11    1    1    2    0    0  0.13065632017E+03 -0.69212131529E+01 -0.74168107548E+02  0.15039908699E+03  0.00000000000E+00 0. -1.
</event>
<event>
 7    1  0.2856214E-009  0.8233471E+02  0.7561462E-02  0.1322553E+00
          2   -1    0    0  501    0  0.00000000000E+00  0.00000000000E+00  0.16790912078E+03  0.16790912078E+03  0.00000000000E+00 0. -1.
         -2   -1    0    0    0  501 -0.00000000000E+00 -0.00000000000E+00 -0.10591647357E+03  0.10591647357E+03  0.00000000000E+00 0.  1.
         25    2    1    2    0    0  0.32401619828E+02 -0.26697771082E+02 -0.33059773336E+02  0.13602520274E+03  0.12508905316E+03 0.  0.
          5    1    3    3  502    0  0.50928977507E+02 -0.28654782300E+01  0.34627406616E+02  0.61794024018E+02  0.41800000000E+01 0. -1.
         -5    1    3    3    0  502 -0.18527357679E+02 -0.23832292852E+02 -0.67687179953E+02  0.74231178726E+02  0.41800000000E+01 0. -1.
        -11    1    1    2    0    0 -0.17929608837E+02  0.51370874299E+02  0.20836880684E+02  0.58263309174E+02  0.00000000000E+00 0.  1.
         11    1    1    2    0    0 -0.14472010991E+02 -0.24673103217E+02  0.74215539860E+02  0.79537082428E+02  0.00000000000E+00 0. -1.
</event>
<event>
 7    1  0.2856214E-009  0.1169380E+03  0.7561462E-02  0.1248236E+00
          1   -1    0    0  501    0  0.00000000000E+00  0.00000000000E+00  0.33208426254E+03  0.33208426254E+03  0.00000000000E+00 0.  1.
         -1   -1    0    0    0  501 -0.00000000000E+00 -0.00000000000E+00 -0.48961047228E+02  0.48961047228E+02  0.00000000000E+00 0. -1.
         25    2    1    2    0    0 -0.68581703809E+01  0.49361962060E+02  0.90140807616E+02  0.16203830884E+03  0.12508961002E+03 0.  0.
          5    1    3    3  502    0  0.41210478576E+02 -0.23225661564E+02  0.32170503013E+02  0.57359816628E+02  0.41800000000E+01 0. -1.
         -5    1    3    3    0  502 -0.48068648956E+02  0.72587623623E+02  0.57970304604E+02  0.10467849221E+03  0.41800000000E+01 0. -1.
        -11    1    1    2    0    0  0.26447542514E+02  0.16054782075E+02  0.33946065768E+02  0.45929989263E+02  0.00000000000E+00 0. -1.
         11    1    1    2    0    0 -0.19589372134E+02 -0.65416744134E+02  0.15903634193E+03  0.17307701167E+03  0.00000000000E+00 0.  1.
</event>
<event>
 7    1  0.2856214E-009  0.2008186E+03  0.7561462E-02  0.1149050E+00
          2   -1    0    0  501    0  0.00000000000E+00  0.00000000000E+00  0.10761465337E+04  0.10761465337E+04  0.00000000000E+00 0. -1.
         -2   -1    0    0    0  501 -0.00000000000E+00 -0.00000000000E+00 -0.41188896976E+02  0.41188896976E+02  0.00000000000E+00 0.  1.
         25    2    1    2    0    0 -0.11183820605E+03 -0.14168450356E+03  0.52608390376E+03  0.57008219576E+03  0.12508858160E+03 0.  0.
          5    1    3    3  502    0 -0.13424625928E+03 -0.11871799062E+03  0.37593353090E+03  0.41648470738E+03  0.41800000000E+01 0.  1.
         -5    1    3    3    0  502  0.22408053234E+02 -0.22966512937E+02  0.15015037286E+03  0.15359748838E+03  0.41800000000E+01 0.  1.
        -11    1    1    2    0    0  0.10545256244E+03  0.92047807225E+02  0.28081032363E+03  0.31376341341E+03  0.00000000000E+00 0.  1.
         11    1    1    2    0    0  0.63856436129E+01  0.49636696334E+02  0.22806340931E+03  0.23348982148E+03  0.00000000000E+00 0. -1.
</event>
<event>
 7    1  0.2856214E-009  0.1236578E+03  0.7561462E-02  0.1237182E+00
          1   -1    0    0  501    0  0.00000000000E+00  0.00000000000E+00  0.70586226075E+03  0.70586226075E+03  0.00000000000E+00 0. -1.
         -1   -1    0    0    0  501 -0.00000000000E+00 -0.00000000000E+00 -0.30569462878E+02  0.30569462878E+02  0.00000000000E+00 0.  1.
         25    2    1    2    0    0 -0.97685803696E+02  0.14744763635E+01  0.35267622568E+03  0.38674708725E+03  0.12509236193E+03 0.  0.
          5    1    3    3  502    0 -0.94573902138E+01  0.38867354108E+02  0.30163172841E+02  0.50273281581E+02  0.41800000000E+01 0. -1.
         -5    1    3    3    0  502 -0.88228413482E+02 -0.37392877745E+02  0.32251305284E+03  0.33647380567E+03  0.41800000000E+01 0. -1.
        -11    1    1    2    0    0  0.71141079799E+02 -0.25305034022E+02  0.29517167756E+03  0.30467641395E+03  0.00000000000E+00 0. -1.
         11    1    1    2    0    0  0.26544723896E+02  0.23830557658E+02  0.27444894635E+02  0.45008222433E+02  0.00000000000E+00 0.  1.
</event>
<event>
 7    1  0.2856214E-009  0.1906323E+03  0.7561462E-02  0.1157892E+00
         -2   -1    0    0    0  501 -0.00000000000E+00  0.00000000000E+00  0.38243945710E+03  0.38243945710E+03  0.00000000000E+00 0.  1.
          2   -1    0    0  501    0  0.00000000000E+00 -0.00000000000E+00 -0.11986229106E+03  0.11986229106E+03  0.00000000000E+00 0. -1.
         25    2    1    2    0    0 -0.15853039895E+03  0.82997705786E+02  0.83585611945E+02  0.23378319566E+03  0.12509005354E+03 0.  0.
          5    1    3    3  502    0 -0.15957114198E+03  0.95881927195E+02  0.43173062011E+02  0.19114831675E+03  0.41800000000E+01 0.  1.
         -5    1    3    3    0  502  0.10407430295E+01 -0.12884221409E+02  0.40412549934E+02  0.42634878908E+02  0.41800000000E+01 0.  1.
        -11    1    1    2    0    0  0.73439732332E+02 -0.55481889961E+02  0.33910518008E+02  0.98089538842E+02  0.00000000000E+00 0.  1.
         11    1    1    2    0    0  0.85090666613E+02 -0.27515815825E+02  0.14508103609E+03  0.17042901366E+03  0.00000000000E+00 0. -1.
</event>
<event>
 7    1  0.2856214E-009  0.1345950E+03  0.7561462E-02  0.1220793E+00
         -3   -1    0    0    0  501 -0.00000000000E+00  0.00000000000E+00  0.61275081544E+02  0.61275081544E+02  0.00000000000E+00 0.  1.
          3   -1    0    0  501    0  0.00000000000E+00 -0.00000000000E+00 -0.52067943066E+03  0.52067943066E+03  0.00000000000E+00 0. -1.
         25    2    1    2    0    0 -0.22523583371E+02  0.98228486451E+02 -0.41038629736E+03  0.44070596596E+03  0.12509471618E+03 0.  0.
          5    1    3    3  502    0  0.32215559635E+02 -0.60190526345E+01 -0.16780354903E+03  0.17102507051E+03  0.41800000000E+01 0.  1.
         -5    1    3    3    0  502 -0.54739143006E+02  0.10424753909E+03 -0.24258274833E+03  0.26968089545E+03  0.41800000000E+01 0.  1.
        -11    1    1    2    0    0 -0.16028654047E+02 -0.66493977479E+02  0.38760478742E+01  0.68508324594E+02  0.00000000000E+00 0.  1.
         11    1    1    2    0    0  0.38552237418E+02 -0.31734508972E+02 -0.52894099630E+02  0.72740221648E+02  0.00000000000E+00 0. -1.
</event>
<event>
 7    1  0.2856214E-009  0.1484461E+03  0.7561462E-02  0.1202395E+00
          2   -1    0    0  501    0  0.00000000000E+00  0.00000000000E+00  0.26095017523E+03  0.26095017523E+03  0.00000000000E+00 0. -1.
         -2   -1    0    0    0  501 -0.00000000000E+00 -0.00000000000E+00 -0.10156431489E+03  0.10156431489E+03  0.00000000000E+00 0.  1.
         25    2    1    2    0    0 -0.66374967297E+02 -0.86336745969E+02  0.26966524634E+02  0.16802991903E+03  0.12508872951E+03 0.  0.
          5    1    3    3  502    0  0.35455259037E+02 -0.31088412798E+02 -0.54575698409E+01  0.47653145460E+02  0.41800000000E+01 0. -1.
         -5    1    3    3    0  502 -0.10183022633E+03 -0.55248333172E+02  0.32424094475E+02  0.12037677357E+03  0.41800000000E+01 0. -1.
        -11    1    1    2    0    0 -0.17560989425E+02  0.20182016881E+02  0.34269605370E+01  0.26971210828E+02  0.00000000000E+00 0.  1.
         11    1    1    2    0    0  0.83935956723E+02  0.66154729088E+02  0.12899237517E+03  0.16751336025E+03  0.00000000000E+00 0. -1.
</event>
<event>
 7    1  0.2856214E-009  0.1089909E+03  0.7561462E-02  0.1262450E+00
          1   -1    0    0  501    0  0.00000000000E+00  0.00000000000E+00  0.46861641029E+03  0.46861641029E+03  0.00000000000E+00 0. -1.
         -1   -1    0    0    0  501 -0.00000000000E+00 -0.00000000000E+00 -0.40686779697E+02  0.40686779697E+02  0.00000000000E+00 0.  1.
         25    2    1    2    0    0 -0.53663826580E+02  0.23465614277E+02  0.11861248702E+03  0.18206104637E+03  0.12508741419E+03 0.  0.
          5    1    3    3  502    0 -0.54881455395E+02  0.56596074035E+02  0.25230126687E+02  0.82880163097E+02  0.41800000000E+01 0. -1.
         -5    1    3    3    0  502  0.12176288146E+01 -0.33130459757E+02  0.93382360338E+02  0.99180883269E+02  0.41800000000E+01 0. -1.
        -11    1    1    2    0    0  0.78245611675E+02 -0.20292564990E+02  0.21408469697E+03  0.22883710673E+03  0.00000000000E+00 0.  1.
         11    1    1    2    0    0 -0.24581785094E+02 -0.31730492870E+01  0.95232446597E+02  0.98405036888E+02  0.00000000000E+00 0. -1.
</event>
<event>
 7    1  0.2856214E-009  0.1290289E+03  0.7561462E-02  0.1228904E+00
          2   -1    0    0  501    0  0.00000000000E+00  0.00000000000E+00  0.13917405296E+04  0.13917405296E+04  0.00000000000E+00 0. -1.
         -2   -1    0    0    0  501 -0.00000000000E+00 -0.00000000000E+00 -0.14176358209E+02  0.14176358209E+02  0.00000000000E+00 0.  1.
         25    2    1    2    0    0  0.75508757894E+02  0.30490069609E+02  0.91108577358E+03  0.92323126340E+03  0.12508981589E+03 0.  0.
          5    1    3    3  502    0  0.76330405025E+02 -0.28226639990E+02  0.36525636352E+03  0.37423623211E+03  0.41800000000E+01 0.  1.
         -5    1    3    3    0  502 -0.82164713053E+00  0.58716709600E+02  0.54582941006E+03  0.54899503128E+03  0.41800000000E+01 0.  1.
        -11    1    1    2    0    0 -0.45034579604E+02 -0.60170901420E+02  0.21799627957E+03  0.23058843996E+03  0.00000000000E+00 0.  1.
         11    1    1    2    0    0 -0.30474178290E+02  0.29680831811E+02  0.24848211827E+03  0.25209718448E+03  0.00000000000E+00 0. -1.
</event>
<event>
 7    1  0.2856214E-009  0.8938317E+02  0.7561462E-02  0.1304352E+00
         -2   -1    0    0    0  501 -0.00000000000E+00  0.00000000000E+00  0.10735409440E+03  0.10735409440E+03  0.00000000000E+00 0.  1.
          2   -1    0    0  501    0  0.00000000000E+00 -0.00000000000E+00 -0.14250783867E+03  0.14250783867E+03  0.00000000000E+00 0. -1.
         25    2    1    2    0    0 -0.65133931706E+01  0.45363979726E+02  0.16236459094E+02  0.13420235670E+03  0.12508531086E+03 0.  0.
          5    1    3    3  502    0  0.19829716639E+02 -0.24424465862E+01  0.60469416013E+02  0.63821672497E+02  0.41800000000E+01 0. -1.
         -5    1    3    3    0  502 -0.26343109809E+02  0.47806426312E+02 -0.44232956919E+02  0.70380684203E+02  0.41800000000E+01 0. -1.
        -11    1    1    2    0    0 -0.43316747871E+02 -0.20577288169E+02 -0.24363534362E+02  0.53789843289E+02  0.00000000000E+00 0. -1.
         11    1    1    2    0    0  0.49830141041E+02 -0.24786691556E+02 -0.27026669005E+02  0.61869733085E+02  0.00000000000E+00 0.  1.
</event>
<event>
 7    1  0.2856214E-009  0.1105398E+03  0.7561462E-02  0.1259573E+00
          1   -1    0    0  501    0  0.00000000000E+00  0.00000000000E+00  0.58935168748E+03  0.58935168748E+03  0.00000000000E+00 0. -1.
         -1   -1    0    0    0  501 -0.00000000000E+00 -0.00000000000E+00 -0.35134258570E+02  0.35134258570E+02  0.00000000000E+00 0.  1.
         25    2    1    2    0    0  0.54305503935E+01 -0.59826271829E+02  0.46723339427E+03  0.48740198917E+03  0.12507989705E+03 0.  0.
          5    1    3    3  502    0  0.46345591459E+02  0.75546434704E+01  0.28401384416E+03  0.28789984814E+03  0.41800000000E+01 0.  1.
         -5    1    3    3    0  502 -0.40915041066E+02 -0.67380915299E+02  0.18321955011E+03  0.19950214103E+03  0.41800000000E+01 0.  1.
        -11    1    1    2    0    0  0.15040396644E+02 -0.12669195729E+02 -0.28225126900E+01  0.19866771996E+02  0.00000000000E+00 0.  1.
         11    1    1    2    0    0 -0.20470947038E+02  0.72495467558E+02  0.89806547329E+02  0.11721718488E+03  0.00000000000E+00 0. -1.
</event>
<event>
 7    1  0.2856214E-009  0.9573700E+02  0.7561462E-02  0.1289525E+00
          1   -1    0    0  501    0  0.00000000000E+00  0.00000000000E+00  0.33706152991E+02  0.33706152991E+02  0.00000000000E+00 0. -1.
         -1   -1    0    0    0  501 -0.00000000000E+00 -0.00000000000E+00 -0.45851607671E+03  0.45851607671E+03  0.00000000000E+00 0.  1.
         25    2    1    2    0    0  0.41576084780E+02 -0.18588468026E+02 -0.31649055610E+03  0.34334806947E+03  0.12509005851E+03 0.  0.
          5    1    3    3  502    0  0.64326078322E+02 -0.19088450150E+02 -0.74876848104E+02  0.10062916110E+03  0.41800000000E+01 0. -1.
         -5    1    3    3    0  502 -0.22749993542E+02  0.49998212404E+00 -0.24161370799E+03  0.24271890837E+03  0.41800000000E+01 0. -1.
        -11    1    1    2    0    0  0.25301161674E+02  0.22855703481E+02 -0.26942401148E+02  0.43456011589E+02  0.00000000000E+00 0. -1.
         11    1    1    2    0    0 -0.66877246453E+02 -0.42672354542E+01 -0.81376966475E+02  0.10541814865E+03  0.00000000000E+00 0.  1.
</event>
<event>
 7    1  0.2856214E-009  0.1006951E+03  0.7561462E-02  0.1278841E+00
          1   -1    0    0  501    0  0.00000000000E+00  0.00000000000E+00  0.74756922525E+02  0.74756922525E+02  0.00000000000E+00 0. -1.
         -1   -1    0    0    0  501 -0.00000000000E+00 -0.00000000000E+00 -0.23360046660E+03  0.23360046660E+03  0.00000000000E+00 0.  1.
         25    2    1    2    0    0 -0.74811889472E+02 -0.69702543046E+01 -0.86039967498E+02  0.16940133160E+03  0.12509409214E+03 0.  0.
          5    1    3    3  502    0 -0.82397199364E+02 -0.19809395618E+02 -0.29699455780E+01  0.84899962276E+02  0.41800000000E+01 0. -1.
         -5    1    3    3    0  502  0.75853098925E+01  0.12839141314E+02 -0.83070021920E+02  0.84501369324E+02  0.41800000000E+01 0. -1.
        -11    1    1    2    0    0  0.31673850201E+02  0.36840744209E+02 -0.71530664763E+02  0.86470279414E+02  0.00000000000E+00 0.  1.
         11    1    1    2    0    0  0.43138039270E+02 -0.29870489904E+02 -0.12729118124E+01  0.52485778109E+02  0.00000000000E+00 0. -1.
</event>
<event>
 7    1  0.2856214E-009  0.6102379E+02  0.7561462E-02  0.1393585E+00
         -2   -1    0    0    0  501 -0.00000000000E+00  0.00000000000E+00  0.19654264062E+03  0.19654264062E+03  0.00000000000E+00 0.  1.
          2   -1    0    0  501    0  0.00000000000E+00 -0.00000000000E+00 -0.70827539538E+02  0.70827539538E+02  0.00000000000E+00 0. -1.
         25    2    1    2    0    0 -0.16189567100E+02 -0.36925875072E+02  0.42566704530E+02  0.13814568399E+03  0.12508670329E+03 0.  0.
          5    1    3    3  502    0  0.27491088223E+02 -0.72700898995E+01  0.72021235741E+02  0.77544470702E+02  0.41800000000E+01 0. -1.
         -5    1    3    3    0  502 -0.43680655323E+02 -0.29655785173E+02 -0.29454531211E+02  0.60601213292E+02  0.41800000000E+01 0. -1.
        -11    1    1    2    0    0  0.12484529451E+02  0.26909656029E+02  0.10272602633E+03  0.10692347520E+03  0.00000000000E+00 0.  1.
         11    1    1    2    0    0  0.37050376489E+01  0.10016219043E+02 -0.19577629783E+02  0.22301020959E+02  0.00000000000E+00 0. -1.
</event>
<event>
 7    1  0.2856214E-009  0.3086264E+03  0.7561462E-02  0.1081006E+00
          2   -1    0    0  501    0  0.00000000000E+00  0.00000000000E+00  0.24093846725E+04  0.24093846725E+04  0.00000000000E+00 0. -1.
         -2   -1    0    0    0  501 -0.00000000000E+00 -0.00000000000E+00 -0.41917141354E+02  0.41917141354E+02  0.00000000000E+00 0.  1.
         25    2    1    2    0    0  0.28905346657E+03  0.18718212983E+02  0.92626462314E+03  0.97852762027E+03  0.12509146061E+03 0.  0.
          5    1    3    3  502    0 -0.12412272424E+02  0.36190061556E+01  0.43761408990E+02  0.45822429323E+02  0.41800000000E+01 0. -1.
         -5    1    3    3    0  502  0.30146573900E+03  0.15099206827E+02  0.88250321415E+03  0.93270519095E+03  0.41800000000E+01 0. -1.
        -11    1    1    2    0    0 -0.84133883798E+01  0.16921949168E+02  0.60298944652E+02  0.63190981902E+02  0.00000000000E+00 0.  1.
         11    1    1    2    0    0 -0.28064007819E+03 -0.35640162150E+02  0.13809039633E+04  0.14095832116E+04  0.00000000000E+00 0. -1.
</event>
<event>
 7    1  0.2856214E-009  0.1312901E+03  0.7561462E-02  0.1225554E+00
          2   -1    0    0  501    0  0.00000000000E+00  0.00000000000E+00  0.14560126203E+04  0.14560126203E+04  0.00000000000E+00 0. -1.
         -2   -1    0    0    0  501 -0.00000000000E+00 -0.00000000000E+00 -0.16783060382E+02  0.16783060382E+02  0.00000000000E+00 0.  1.
         25    2    1    2    0    0 -0.31000307506E+02 -0.10655676780E+03  0.88925832136E+03  0.90484468135E+03  0.12509265135E+03 0.  0.
          5    1    3    3  502    0  0.63823265204E+01 -0.74686458112E+02  0.79439745658E+03  0.79793708557E+03  0.41800000000E+01 0.  1.
         -5    1    3    3    0  502 -0.37382634026E+02 -0.31870309689E+02  0.94860864785E+02  0.10690759577E+03  0.41800000000E+01 0.  1.
        -11    1    1    2    0    0  0.55949670095E+02  0.45060697227E+02  0.34862386130E+03  0.35594863209E+03  0.00000000000E+00 0. -1.
         11    1    1    2    0    0 -0.24949362589E+02  0.61496070574E+02  0.20134737725E+03  0.21200236724E+03  0.00000000000E+00 0.  1.
</event>
<event>
 7    1  0.2856214E-009  0.1108889E+03  0.7561462E-02  0.1258933E+00
         -1   -1    0    0    0  501 -0.00000000000E+00  0.00000000000E+00  0.32374051690E+02  0.32374051690E+02  0.00000000000E+00 0.  1.
          1   -1    0    0  501    0  0.00000000000E+00 -0.00000000000E+00 -0.45367337398E+03  0.45367337398E+03  0.00000000000E+00 0. -1.
         25    2    1    2    0    0 -0.38696208728E+02  0.29780308885E+02 -0.21733314082E+03  0.25547369972E+03  0.12509537874E+03 0.  0.
          5    1    3    3  502    0  0.41223710979E+02  0.46135834077E+01 -0.33783823637E+02  0.53660960094E+02  0.41800000000E+01 0.  1.
         -5    1    3    3    0  502 -0.79919919706E+02  0.25166725477E+02 -0.18354931718E+03  0.20181273962E+03  0.41800000000E+01 0.  1.
        -11    1    1    2    0    0 -0.48365706865E+01 -0.48547583479E+02 -0.51642362135E+02  0.71043605233E+02  0.00000000000E+00 0.  1.
         11    1    1    2    0    0  0.43532779414E+02  0.18767274594E+02 -0.15232381934E+03  0.15953012072E+03  0.00000000000E+00 0. -1.
</event>
<event>
 7    1  0.2856214E-009  0.9010749E+02  0.7561462E-02  0.1302592E+00
          4   -1    0    0  501    0  0.00000000000E+00  0.00000000000E+00  0.47485986772E+02  0.47485986772E+02  0.00000000000E+00 0.  1.
         -4   -1    0    0    0  501 -0.00000000000E+00 -0.00000000000E+00 -0.26024022875E+03  0.26024022875E+03  0.00000000000E+00 0. -1.
         25    2    1    2    0    0 -0.41633519089E+01 -0.18969210136E+02 -0.18506003867E+03  0.22421313453E+03  0.12508855803E+03 0.  0.
          5    1    3    3  502    0  0.51543984148E+02 -0.41485529956E+02 -0.10038505250E+03  0.12030154888E+03  0.41800000000E+01 0.  1.
         -5    1    3    3    0  502 -0.55707336057E+02  0.22516319820E+02 -0.84674986170E+02  0.10391158565E+03  0.41800000000E+01 0.  1.
        -11    1    1    2    0    0 -0.22696859027E+02  0.43634568094E+01  0.17470666583E+02  0.28972596637E+02  0.00000000000E+00 0.  1.
         11    1    1    2    0    0  0.26860210936E+02  0.14605753327E+02 -0.45164869894E+02  0.54540484361E+02  0.00000000000E+00 0. -1.
</event>
<event>
 7    1  0.2856214E-009  0.2042754E+03  0.7561462E-02  0.1146181E+00
         -4   -1    0    0    0  501 -0.00000000000E+00  0.00000000000E+00  0.42007848738E+03  0.42007848738E+03  0.00000000000E+00 0.  1.
          4   -1    0    0  501    0  0.00000000000E+00 -0.00000000000E+00 -0.14497918446E+03  0.14497918446E+03  0.00000000000E+00 0. -1.
         25    2    1    2    0    0 -0.15451923880E+03 -0.11774432449E+03  0.17618014654E+02  0.23172804292E+03  0.12509024872E+03 0.  0.
          5    1    3    3  502    0 -0.67573273155E+02 -0.71245923912E+02 -0.51774091586E+02  0.11108626323E+03  0.41800000000E+01 0.  1.
         -5    1    3    3    0  502 -0.86945965640E+02 -0.46498400583E+02  0.69392106240E+02  0.12064177969E+03  0.41800000000E+01 0.  1.
        -11    1    1    2    0    0  0.93568160194E+02  0.18905603385E+02  0.12148704407E+03  0.15450412396E+03  0.00000000000E+00 0. -1.
         11    1    1    2    0    0  0.60951078601E+02  0.98838721110E+02  0.13599424419E+03  0.17882550497E+03  0.00000000000E+00 0.  1.
</event>
<event>
 7    1  0.2856214E-009  0.1866623E+03  0.7561462E-02  0.1161507E+00
         -1   -1    0    0    0  501 -0.00000000000E+00  0.00000000000E+00  0.60389229917E+03  0.60389229917E+03  0.00000000000E+00 0.  1.
          1   -1    0    0  501    0  0.00000000000E+00 -0.00000000000E+00 -0.10443472580E+03  0.10443472580E+03  0.00000000000E+00 0. -1.
         25    2    1    2    0    0  0.18433337120E+03  0.15226651586E+02  0.44034420264E+03  0.49372167147E+03  0.12508968553E+03 0.  0.
          5    1    3    3  502    0  0.98476348197E+02  0.11079696161E+02  0.36850273558E+03  0.38161772673E+03  0.41800000000E+01 0.  1.
         -5    1    3    3    0  502  0.85857023002E+02  0.41469554247E+01  0.71841467058E+02  0.11210394474E+03  0.41800000000E+01 0.  1.
        -11    1    1    2    0    0 -0.10804631816E+03  0.79823749994E+01  0.76960172678E+02  0.13289316520E+03  0.00000000000E+00 0.  1.
         11    1    1    2    0    0 -0.76287053044E+02 -0.23209026586E+02 -0.17846801955E+02  0.81712188303E+02  0.00000000000E+00 0. -1.
</event>
<event>
 7    1  0.3135796E-009  0.7463970E+02  0.7561462E-02  0.1344990E+00
         -2   -1    0    0    0  501 -0.00000000000E+00  0.00000000000E+00  0.23417996495E+02  0.23417996495E+02  0.00000000000E+00 0.  1.
          2   -1    0    0  501    0  0.00000000000E+00 -0.00000000000E+00 -0.56003536149E+03  0.56003536149E+03  0.00000000000E+00 0. -1.
         25    2    1    2    0    0 -0.23892240526E+02 -0.64020372876E+01 -0.23675309329E+03  0.26890812340E+03  0.12509087260E+03 0.  0.
          5    1    3    3  502    0  0.15385611499E+02 -0.24250569311E+02 -0.22083305512E+03  0.22273194155E+03  0.41800000000E+01 0. -1.
         -5    1    3    3    0  502 -0.39277852026E+02  0.17848532023E+02 -0.15920038178E+02  0.46176181855E+02  0.41800000000E+01 0. -1.
        -11    1    1    2    0    0 -0.15456565233E+02  0.28031606928E+02 -0.42037534285E+02  0.52837777059E+02  0.00000000000E+00 0.  1.
         11    1    1    2    0    0  0.39348805759E+02 -0.21629569640E+02 -0.25782673741E+03  0.26170745752E+03  0.00000000000E+00 0. -1.
</event>
<event>
 7    1  0.2856214E-009  0.7854275E+02  0.7561462E-02  0.1333238E+00
         -2   -1    0    0    0  501 -0.00000000000E+00  0.00000000000E+00  0.14032357005E+03  0.14032357005E+03  0.00000000000E+00 0. -1.
          2   -1    0    0  501    0  0.00000000000E+00 -0.00000000000E+00 -0.23701071832E+03  0.23701071832E+03  0.00000000000E+00 0.  1.
         25    2    1    2    0    0 -0.35589955207E+01 -0.63075560754E+02  0.85356332488E+02  0.16408595462E+03  0.12508918496E+03 0.  0.
          5    1    3    3  502    0 -0.16641707380E+02 -0.55111758257E+02 -0.17261825555E+02  0.60246952987E+02  0.41800000000E+01 0. -1.
         -5    1    3    3    0  502  0.13082711859E+02 -0.79638024974E+01  0.10261815804E+03  0.10383900163E+03  0.41800000000E+01 0. -1.
        -11    1    1    2    0    0  0.29088854073E+02  0.31358634743E+02 -0.16259421418E+03  0.16812615469E+03  0.00000000000E+00 0.  1.
         11    1    1    2    0    0 -0.25529858552E+02  0.31716926012E+02 -0.19449266573E+02  0.45122179065E+02  0.00000000000E+00 0. -1.
</event>
<event>
 7    1  0.2856214E-009  0.1349922E+03  0.7561462E-02  0.1220231E+00
          1   -1    0    0  501    0  0.00000000000E+00  0.00000000000E+00  0.42259044584E+03  0.42259044584E+03  0.00000000000E+00 0. -1.
         -1   -1    0    0    0  501 -0.00000000000E+00 -0.00000000000E+00 -0.53526625126E+02  0.53526625126E+02  0.00000000000E+00 0.  1.
         25    2    1    2    0    0 -0.43184030765E+02  0.70070144477E+02  0.29742222149E+03  0.33298798842E+03  0.12508531865E+03 0.  0.
          5    1    3    3  502    0 -0.41373539915E+02 -0.26637345695E+02  0.13684293231E+03  0.14548119643E+03  0.41800000000E+01 0. -1.
         -5    1    3    3    0  502 -0.18104908505E+01  0.96707490172E+02  0.16057928918E+03  0.18750679200E+03  0.41800000000E+01 0. -1.
        -11    1    1    2    0    0 -0.20473909701E+02 -0.54546356733E+02  0.36909290910E+02  0.68969426319E+02  0.00000000000E+00 0.  1.
         11    1    1    2    0    0  0.63657940467E+02 -0.15523787743E+02  0.34732308323E+02  0.74159656227E+02  0.00000000000E+00 0. -1.
</event>
<event>
 7    1  0.2856214E-009  0.2014128E+03  0.7561462E-02  0.1148553E+00
          2   -1    0    0  501    0  0.00000000000E+00  0.00000000000E+00  0.16265613459E+04  0.16265613459E+04  0.00000000000E+00 0. -1.
         -2   -1    0    0    0  501 -0.00000000000E+00 -0.00000000000E+00 -0.42953998686E+02  0.42953998686E+02  0.00000000000E+00 0.  1.
         25    2    1    2    0    0  0.17318408611E+03 -0.25673846661E+02  0.13327501187E+04  0.13500083225E+04  0.12509083863E+03 0.  0.
          5    1    3    3  502    0  0.11317022877E+03  0.41771384699E+02  0.62882452345E+03  0.64030469540E+03  0.41800000000E+01 0.  1.
         -5    1    3    3    0  502  0.60013857336E+02 -0.67445231360E+02  0.70392559525E+03  0.70970362713E+03  0.41800000000E+01 0.  1.
        -11    1    1    2    0    0 -0.14989763550E+03 -0.87837266303E+01  0.22511023945E+03  0.27059392988E+03  0.00000000000E+00 0. -1.
         11    1    1    2    0    0 -0.23286450608E+02  0.34457573292E+02  0.25746989026E+02  0.48913092143E+02  0.00000000000E+00 0.  1.
</event>
<event>
 7    1  0.2856214E-009  0.1151374E+03  0.7561462E-02  0.1251341E+00
          1   -1    0    0  501    0  0.00000000000E+00  0.00000000000E+00  0.59694126589E+03  0.59694126589E+03  0.00000000000E+00 0. -1.
         -1   -1    0    0    0  501 -0.00000000000E+00 -0.00000000000E+00 -0.41810799814E+02  0.41810799814E+02  0.00000000000E+00 0.  1.
         25    2    1    2    0    0  0.28374864956E+02 -0.77388771975E+02  0.13684151862E+03  0.20289889720E+03  0.12509279067E+03 0.  0.
          5    1    3    3  502    0  0.59911510788E+02 -0.69373357208E+02  0.14261949079E+03  0.16958727360E+03  0.41800000000E+01 0.  1.
         -5    1    3    3    0  502 -0.31536645831E+02 -0.80154147671E+01 -0.57779721716E+01  0.33311623596E+02  0.41800000000E+01 0.  1.
        -11    1    1    2    0    0 -0.10745921633E+02 -0.11119444693E+02  0.11758858134E+02  0.19426467168E+02  0.00000000000E+00 0.  1.
         11    1    1    2    0    0 -0.17628943323E+02  0.88508216668E+02  0.40653008933E+03  0.41642670134E+03  0.00000000000E+00 0. -1.
</event>
<event>
 7    1  0.2856214E-009  0.8417234E+02  0.7561462E-02  0.1317611E+00
         -1   -1    0    0    0  501 -0.00000000000E+00  0.00000000000E+00  0.20607529599E+03  0.20607529599E+03  0.00000000000E+00 0.  1.
          1   -1    0    0  501    0  0.00000000000E+00 -0.00000000000E+00 -0.88758849328E+02  0.88758849328E+02  0.00000000000E+00 0. -1.
         25    2    1    2    0    0 -0.22529911321E+02 -0.14579372447E+02 -0.17913453515E+02  0.12918405528E+03  0.12508986096E+03 0.  0.
          5    1    3    3  502    0 -0.73705878798E+01  0.30913923582E+02  0.41679308697E+02  0.52579781384E+02  0.41800000000E+01 0. -1.
         -5    1    3    3    0  502 -0.15159323441E+02 -0.45493296028E+02 -0.59592762212E+02  0.76604273894E+02  0.41800000000E+01 0. -1.
        -11    1    1    2    0    0 -0.13511422455E+02 -0.28767813917E+02  0.82695505429E+02  0.88592845493E+02  0.00000000000E+00 0.  1.
         11    1    1    2    0    0  0.36041333775E+02  0.43347186364E+02  0.52534394749E+02  0.77057244550E+02  0.00000000000E+00 0. -1.
</event>
<event>
 7    1  0.2856214E-009  0.1070717E+03  0.7561462E-02  0.1266091E+00
          2   -1    0    0  501    0  0.00000000000E+00  0.00000000000E+00  0.25974425657E+03  0.25974425657E+03  0.00000000000E+00 0.  1.
         -2   -1    0    0    0  501 -0.00000000000E+00 -0.00000000000E+00 -0.80469207640E+02  0.80469207640E+02  0.00000000000E+00 0. -1.
         25    2    1    2    0    0  0.67355759063E+02  0.29296380726E+02  0.23204013610E+02  0.14690539524E+03  0.12509073786E+03 0.  0.
          5    1    3    3  502    0  0.79174359914E+02  0.53208326218E+02  0.50920034499E+02  0.10821288075E+03  0.41800000000E+01 0.  1.
         -5    1    3    3    0  502 -0.11818600851E+02 -0.23911945492E+02 -0.27716020889E+02  0.38692514486E+02  0.41800000000E+01 0.  1.
        -11    1    1    2    0    0 -0.48980802607E+02 -0.45729280410E+02  0.47914139503E+02  0.82377490100E+02  0.00000000000E+00 0. -1.
         11    1    1    2    0    0 -0.18374956456E+02  0.16432899684E+02  0.10815689582E+03  0.11093057888E+03  0.00000000000E+00 0.  1.
</event>
<event>
 7    1  0.2856214E-009  0.1034888E+03  0.7561462E-02  0.1273126E+00
         -1   -1    0    0    0  501 -0.00000000000E+00  0.00000000000E+00  0.10523496393E+03  0.10523496393E+03  0.00000000000E+00 0.  1.
          1   -1    0    0  501    0  0.00000000000E+00 -0.00000000000E+00 -0.13177005692E+03  0.13177005692E+03  0.00000000000E+00 0. -1.
         25    2    1    2    0    0  0.18877285582E+02  0.37262738555E+02 -0.37393156107E+02  0.13707825178E+03  0.12508930966E+03 0.  0.
          5    1    3    3  502    0 -0.25830827884E+02  0.59329129184E+02  0.12925804699E+02  0.66119029531E+02  0.41800000000E+01 0.  1.
         -5    1    3    3    0  502  0.44708113466E+02 -0.22066390630E+02 -0.50318960806E+02  0.70959222246E+02  0.41800000000E+01 0.  1.
        -11    1    1    2    0    0  0.11898322759E+02  0.22177331754E+02 -0.13668797832E+02  0.28639835236E+02  0.00000000000E+00 0. -1.
         11    1    1    2    0    0 -0.30775608341E+02 -0.59440070308E+02  0.24526860953E+02  0.71286933832E+02  0.00000000000E+00 0.  1.
</event>
<event>
 7    1  0.2856214E-009  0.1527380E+03  0.7561462E-02  0.1197148E+00
          2   -1    0    0  501    0  0.00000000000E+00  0.00000000000E+00  0.61762581905E+03  0.61762581905E+03  0.00000000000E+00 0. -1.
         -2   -1    0    0    0  501 -0.00000000000E+00 -0.00000000000E+00 -0.11351944664E+03  0.11351944664E+03  0.00000000000E+00 0.  1.
         25    2    1    2    0    0  0.47265404413E+02  0.97676782461E+02  0.55579525027E+03  0.57994052835E+03  0.12509150219E+03 0.  0.
          5    1    3    3  502    0  0.16818455272E+02 -0.29769228089E+02  0.12168458574E+03  0.12646611478E+03  0.41800000000E+01 0.  1.
         -5    1    3    3    0  502  0.30446949140E+02  0.12744601055E+03  0.43411066452E+03  0.45347441358E+03  0.41800000000E+01 0.  1.
        -11    1    1    2    0    0 -0.56815923653E+02 -0.17877812362E+02 -0.35122526645E+02  0.69146635734E+02  0.00000000000E+00 0. -1.
         11    1    1    2    0    0  0.95505192400E+01 -0.79798970099E+02 -0.16566351218E+02  0.82058101606E+02  0.00000000000E+00 0.  1.
</event>
<event>
 7    1  0.2856214E-009  0.1937980E+03  0.7561462E-02  0.1155080E+00
         -1   -1    0    0    0  501 -0.00000000000E+00  0.00000000000E+00  0.23484434633E+03  0.23484434633E+03  0.00000000000E+00 0.  1.
          1   -1    0    0  501    0  0.00000000000E+00 -0.00000000000E+00 -0.20844531633E+03  0.20844531633E+03  0.00000000000E+00 0. -1.
         25    2    1    2    0    0 -0.16396748028E+03  0.10107777976E+03  0.62374296625E+01  0.22975838825E+03  0.12509180345E+03 0.  0.
          5    1    3    3  502    0 -0.11516048977E+03  0.57851296246E+02 -0.55029363538E+02  0.14019420149E+03  0.41800000000E+01 0. -1.
         -5    1    3    3    0  502 -0.48806990515E+02  0.43226483518E+02  0.61266793201E+02  0.89564186757E+02  0.41800000000E+01 0. -1.
        -11    1    1    2    0    0  0.14463987182E+03 -0.95054136175E+02 -0.14189342481E+02  0.17365862710E+03  0.00000000000E+00 0. -1.
         11    1    1    2    0    0  0.19327608455E+02 -0.60236435890E+01  0.34350942825E+02  0.39872647312E+02  0.00000000000E+00 0.  1.
</event>
<event>
 7    1  0.2856214E-009  0.1131488E+03  0.7561462E-02  0.1254847E+00
         -1   -1    0    0    0  501 -0.00000000000E+00  0.00000000000E+00  0.20100157342E+03  0.20100157342E+03  0.00000000000E+00 0.  1.
          1   -1    0    0  501    0  0.00000000000E+00 -0.00000000000E+00 -0.72282297361E+02  0.72282297361E+02  0.00000000000E+00 0. -1.
         25    2    1    2    0    0 -0.35235866652E+02 -0.51090032464E+01  0.63098323249E+02  0.14455649959E+03  0.12509002744E+03 0.  0.
          5    1    3    3  502    0 -0.19199007065E+02  0.53612233610E+02  0.60929381466E+02  0.83502906481E+02  0.41800000000E+01 0. -1.
         -5    1    3    3    0  502 -0.16036859587E+02 -0.58721236857E+02  0.21689417832E+01  0.61053593112E+02  0.41800000000E+01 0. -1.
        -11    1    1    2    0    0  0.14650671086E+02 -0.48549292043E+02  0.44594585372E+02  0.67530385499E+02  0.00000000000E+00 0. -1.
         11    1    1    2    0    0  0.20585195566E+02  0.53658295289E+02  0.21026367437E+02  0.61196985689E+02  0.00000000000E+00 0.  1.
</event>
<event>
 7    1  0.2856214E-009  0.9624509E+02  0.7561462E-02  0.1288396E+00
         -1   -1    0    0    0  501 -0.00000000000E+00  0.00000000000E+00  0.18397151055E+03  0.18397151055E+03  0.00000000000E+00 0.  1.
          1   -1    0    0  501    0  0.00000000000E+00 -0.00000000000E+00 -0.79379393263E+02  0.79379393263E+02  0.00000000000E+00 0. -1.
         25    2    1    2    0    0  0.17789120547E+02  0.44502830552E+02  0.31514270757E+02  0.13760825402E+03  0.12508368230E+03 0.  0.
          5    1    3    3  502    0 -0.79228227543E+00  0.73940632997E+02 -0.18678651966E+02  0.76381996298E+02  0.41800000000E+01 0.  1.
         -5    1    3    3    0  502  0.18581402822E+02 -0.29437802445E+02  0.50192922723E+02  0.61226257726E+02  0.41800000000E+01 0.  1.
        -11    1    1    2    0    0  0.11136563763E+02 -0.52247322255E+02  0.78854364411E+02  0.95246084024E+02  0.00000000000E+00 0.  1.
         11    1    1    2    0    0 -0.28925684310E+02  0.77444917029E+01 -0.57765178830E+01  0.30496565764E+02  0.00000000000E+00 0. -1.
</event>
<event>
 7    1  0.2856214E-009  0.2037416E+03  0.7561462E-02  0.1146620E+00
          1   -1    0    0  501    0  0.00000000000E+00  0.00000000000E+00  0.15412962832E+03  0.15412962832E+03  0.00000000000E+00 0. -1.
         -1   -1    0    0    0  501 -0.00000000000E+00 -0.00000000000E+00 -0.34189452616E+03  0.34189452616E+03  0.00000000000E+00 0.  1.
         25    2    1    2    0    0  0.17458208256E+02 -0.17365520761E+03  0.11853635292E+02  0.21505508421E+03  0.12508900994E+03 0.  0.
          5    1    3    3  502    0 -0.30182375651E+02 -0.15926218508E+03 -0.53317795934E+01  0.16223846545E+03  0.41800000000E+01 0.  1.
         -5    1    3    3    0  502  0.47640583907E+02 -0.14393022526E+02  0.17185414885E+02  0.52816618760E+02  0.41800000000E+01 0.  1.
        -11    1    1    2    0    0 -0.52799093997E+02  0.86486555582E+02 -0.81912727767E+02  0.13029721253E+03  0.00000000000E+00 0.  1.
         11    1    1    2    0    0  0.35340885741E+02  0.87168652025E+02 -0.11770580536E+03  0.15067185775E+03  0.00000000000E+00 0. -1.
</event>
<event>
 7    1  0.2856214E-009  0.9563582E+02  0.7561462E-02  0.1289750E+00
         -2   -1    0    0    0  501 -0.00000000000E+00  0.00000000000E+00  0.77213292490E+02  0.77213292490E+02  0.00000000000E+00 0.  1.
          2   -1    0    0  501    0  0.00000000000E+00 -0.00000000000E+00 -0.15940580272E+03  0.15940580272E+03  0.00000000000E+00 0. -1.
         25    2    1    2    0    0  0.20681492002E+02 -0.42707300682E+02  0.90995887330E+00  0.13378901838E+03  0.12508811202E+03 0.  0.
          5    1    3    3  502    0 -0.21147666786E+02 -0.75721256445E+02 -0.96028138931E+01  0.79313422084E+02  0.41800000000E+01 0. -1.
         -5    1    3    3    0  502  0.41829158788E+02  0.33013955762E+02  0.10512772766E+02  0.54475596291E+02  0.41800000000E+01 0. -1.
        -11    1    1    2    0    0 -0.24289487622E+02  0.10135926193E+02 -0.26023109121E+02  0.37012408960E+02  0.00000000000E+00 0.  1.
         11    1    1    2    0    0  0.36079956197E+01  0.32571374489E+02 -0.57079359983E+02  0.65817667875E+02  0.00000000000E+00 0. -1.
</event>
<event>
 7    1  0.2856214E-009  0.5785477E+02  0.7561462E-02  0.1407061E+00
         -1   -1    0    0    0  501 -0.00000000000E+00  0.00000000000E+00  0.15645204071E+03  0.15645204071E+03  0.00000000000E+00 0.  1.
          1   -1    0    0  501    0  0.00000000000E+00 -0.00000000000E+00 -0.16803222998E+03  0.16803222998E+03  0.00000000000E+00 0. -1.
         25    2    1    2    0    0 -0.73313876162E+01  0.14378544092E+02 -0.12406607952E+03  0.17691977395E+03  0.12509085719E+03 0.  0.
          5    1    3    3  502    0 -0.31255643791E+02 -0.14064296169E+01 -0.14023723620E+03  0.14374577605E+03  0.41800000000E+01 0. -1.
         -5    1    3    3    0  502  0.23924256175E+02  0.15784973709E+02  0.16171156684E+02  0.33173997905E+02  0.41800000000E+01 0. -1.
        -11    1    1    2    0    0 -0.69245671545E+01  0.18278180385E+02  0.11013313691E+03  0.11185414322E+03  0.00000000000E+00 0.  1.
         11    1    1    2    0    0  0.14255954771E+02 -0.32656724477E+02  0.23527533347E+01  0.35710353516E+02  0.00000000000E+00 0. -1.
</event>
<event>
 7    1  0.2856214E-009  0.6915140E+02  0.7561462E-02  0.1363003E+00
         -2   -1    0    0    0  501 -0.00000000000E+00  0.00000000000E+00  0.33406956330E+02  0.33406956330E+02  0.00000000000E+00 0.  1.
          2   -1    0    0  501    0  0.00000000000E+00 -0.00000000000E+00 -0.45158180285E+03  0.45158180285E+03  0.00000000000E+00 0. -1.
         25    2    1    2    0    0 -0.54026158813E+02  0.18143996318E+02 -0.24592143738E+03  0.28173172400E+03  0.12508948999E+03 0.  0.
          5    1    3    3  502    0 -0.36846171617E+02  0.87148034312E+01 -0.32464980270E+01  0.38230881642E+02  0.41800000000E+01 0.  1.
         -5    1    3    3    0  502 -0.17179987196E+02  0.94291928865E+01 -0.24267493936E+03  0.24350084236E+03  0.41800000000E+01 0.  1.
        -11    1    1    2    0    0  0.54248579187E+02 -0.34190215449E+02 -0.17553187086E+03  0.18687781266E+03  0.00000000000E+00 0. -1.
         11    1    1    2    0    0 -0.22242037416E+00  0.16046219132E+02  0.32784617180E+01  0.16379222524E+02  0.00000000000E+00 0.  1.
</event>
<event>
 7    1  0.2856214E-009  0.9783774E+02  0.7561462E-02  0.1284910E+00
          1   -1    0    0  501    0  0.00000000000E+00  0.00000000000E+00  0.10838849532E+03  0.10838849532E+03  0.00000000000E+00 0. -1.
         -1   -1    0    0    0  501 -0.00000000000E+00 -0.00000000000E+00 -0.13323739878E+03  0.13323739878E+03  0.00000000000E+00 0.  1.
         25    2    1    2    0    0  0.45098246257E+02  0.36065016429E+00 -0.47909204791E+02  0.14133804389E+03  0.12508864402E+03 0.  0.
          5    1    3    3  502    0  0.49897523135E+02 -0.39715268189E+02  0.15771527579E+02  0.65827644835E+02  0.41800000000E+01 0. -1.
         -5    1    3    3    0  502 -0.47992768783E+01  0.40075918353E+02 -0.63680732370E+02  0.75510399056E+02  0.41800000000E+01 0. -1.
        -11    1    1    2    0    0  0.22830420218E+02 -0.39227070243E+01  0.22456551786E+02  0.32263174609E+02  0.00000000000E+00 0. -1.
         11    1    1    2    0    0 -0.67928666474E+02  0.35620568600E+01  0.60374954437E+00  0.68024675608E+02  0.00000000000E+00 0.  1.
</event>
<event>
 7    1  0.2856214E-009  0.9633384E+02  0.7561462E-02  0.1288200E+00
         -2   -1    0    0    0  501 -0.00000000000E+00  0.00000000000E+00  0.12253672070E+03  0.12253672070E+03  0.00000000000E+00 0.  1.
          2   -1    0    0  501    0  0.00000000000E+00 -0.00000000000E+00 -0.19048090274E+03  0.19048090274E+03  0.00000000000E+00 0. -1.
         25    2    1    2    0    0  0.15641660463E+02  0.35193597164E+02 -0.13827861319E+03  0.19039715775E+03  0.12508737743E+03 0.  0.
          5    1    3    3  502    0  0.42427200681E+02 -0.77466290892E+01 -0.25863704961E+00  0.43331477161E+02  0.41800000000E+01 0. -1.
         -5    1    3    3    0  502 -0.26785540217E+02  0.42940226253E+02 -0.13801997614E+03  0.14706568059E+03  0.41800000000E+01 0. -1.
        -11    1    1    2    0    0  0.37280085782E+02 -0.24367367148E+02  0.43689458719E+02  0.62388638236E+02  0.00000000000E+00 0.  1.
         11    1    1    2    0    0 -0.52921746246E+02 -0.10826230016E+02  0.26644972432E+02  0.60231827450E+02  0.00000000000E+00 0. -1.
</event>
<event>
 7    1  0.2856214E-009  0.1989505E+03  0.7561462E-02  0.1150628E+00
         -1   -1    0    0    0  501 -0.00000000000E+00  0.00000000000E+00  0.29840761796E+02  0.29840761796E+02  0.00000000000E+00 0.  1.
          1   -1    0    0  501    0  0.00000000000E+00 -0.00000000000E+00 -0.15249432725E+04  0.15249432725E+04  0.00000000000E+00 0. -1.
         25    2    1    2    0    0 -0.11120345201E+03  0.14240379846E+03 -0.66618303171E+03  0.70149443021E+03  0.12509817871E+03 0.  0.
          5    1    3    3  502    0 -0.99923082203E+02  0.69591588300E+02 -0.55381286135E+03  0.56705711293E+03  0.41800000000E+01 0.  1.
         -5    1    3    3    0  502 -0.11280369808E+02  0.72812210162E+02 -0.11237017035E+03  0.13443731728E+03  0.41800000000E+01 0.  1.
        -11    1    1    2    0    0  0.11325329776E+03 -0.77285696412E+02 -0.54333675148E+03  0.56036971173E+03  0.00000000000E+00 0. -1.
         11    1    1    2    0    0 -0.20498457470E+01 -0.65118102050E+02 -0.28558272754E+03  0.29291989238E+03  0.00000000000E+00 0.  1.
</event>
<event>
 7    1  0.2856214E-009  0.2106901E+03  0.7561462E-02  0.1141021E+00
         -2   -1    0    0    0  501 -0.00000000000E+00  0.00000000000E+00  0.61949211610E+02  0.61949211610E+02  0.00000000000E+00 0.  1.
          2   -1    0    0  501    0  0.00000000000E+00 -0.00000000000E+00 -0.89941925204E+03  0.89941925204E+03  0.00000000000E+00 0. -1.
         25    2    1    2    0    0 -0.10405088312E+02  0.19820734112E+03 -0.56710209260E+03  0.61371482282E+03  0.12508670745E+03 0.  0.
          5    1    3    3  502    0  0.37781792818E+02  0.64751987979E+02 -0.32048293751E+03  0.32916116030E+03  0.41800000000E+01 0. -1.
         -5    1    3    3    0  502 -0.48186881130E+02  0.13345535314E+03 -0.24661915510E+03  0.28455366253E+03  0.41800000000E+01 0. -1.
        -11    1    1    2    0    0 -0.15339825976E+02 -0.13819559043E+03 -0.23586353349E+03  0.27379725694E+03  0.00000000000E+00 0. -1.
         11    1    1    2    0    0  0.25744914289E+02 -0.60011750691E+02 -0.34504414338E+02  0.73856383892E+02  0.00000000000E+00 0.  1.
</event>
<event>
 7    1  0.2856214E-009  0.7240509E+02  0.7561462E-02  0.1352100E+00
          2   -1    0    0  501    0  0.00000000000E+00  0.00000000000E+00  0.22327497699E+03  0.22327497699E+03  0.00000000000E+00 0. -1.
         -2   -1    0    0    0  501 -0.00000000000E+00 -0.00000000000E+00 -0.73986734594E+02  0.73986734594E+02  0.00000000000E+00 0.  1.
         25    2    1    2    0    0 -0.56713764541E+01 -0.66370816664E+02  0.63657040483E+02  0.15535879102E+03  0.12508751068E+03 0.  0.
          5    1    3    3  502    0 -0.21944436782E+01 -0.46870536451E+02 -0.32411291962E+02  0.57180652470E+02  0.41800000000E+01 0. -1.
         -5    1    3    3    0  502 -0.34769327759E+01 -0.19500280213E+02  0.96068332446E+02  0.98178138548E+02  0.41800000000E+01 0. -1.
        -11    1    1    2    0    0 -0.14338263660E+02  0.95763429860E+01 -0.16162004835E+02  0.23632658548E+02  0.00000000000E+00 0.  1.
         11    1    1    2    0    0  0.20009640114E+02  0.56794473678E+02  0.10179320675E+03  0.11827026202E+03  0.00000000000E+00 0. -1.
</event>
<event>
 7    1  0.2856214E-009  0.7840226E+02  0.7561462E-02  0.1333648E+00
          1   -1    0    0  501    0  0.00000000000E+00  0.00000000000E+00  0.49823920890E+03  0.49823920890E+03  0.00000000000E+00 0. -1.
         -1   -1    0    0    0  501 -0.00000000000E+00 -0.00000000000E+00 -0.58318966798E+02  0.58318966798E+02  0.00000000000E+00 0.  1.
         25    2    1    2    0    0  0.33585633169E+02  0.24033088442E+01  0.44079401775E+03  0.45943524248E+03  0.12509038852E+03 0.  0.
          5    1    3    3  502    0 -0.30871559395E+02  0.16575147250E+02  0.40505369382E+02  0.53721001802E+02  0.41800000000E+01 0. -1.
         -5    1    3    3    0  502  0.64457192564E+02 -0.14171838406E+02  0.40028864836E+03  0.40571424067E+03  0.41800000000E+01 0. -1.
        -11    1    1    2    0    0 -0.28451808720E+02 -0.21468672525E+02  0.38874272220E+02  0.52741050047E+02  0.00000000000E+00 0. -1.
         11    1    1    2    0    0 -0.51338244500E+01  0.19065363680E+02 -0.39748047861E+02  0.44381883179E+02  0.00000000000E+00 0.  1.
</event>
<event>
 7    1  0.3025025E-009  0.9068513E+02  0.7561462E-02  0.1301201E+00
          1   -1    0    0  501    0  0.00000000000E+00  0.00000000000E+00  0.13777459408E+04  0.13777459408E+04  0.00000000000E+00 0. -1.
         -1   -1    0    0    0  501 -0.00000000000E+00 -0.00000000000E+00 -0.15752818005E+02  0.15752818005E+02  0.00000000000E+00 0.  1.
         25    2    1    2    0    0  0.67861097456E+02  0.39596571192E+02  0.10275664536E+04  0.10381296223E+04  0.12508908426E+03 0.  0.
          5    1    3    3  502    0  0.54988427655E+02  0.40362707819E+02  0.10206052990E+04  0.10228907684E+04  0.41800000000E+01 0. -1.
         -5    1    3    3    0  502  0.12872669802E+02 -0.76613662639E+00  0.69611546438E+01  0.15238853865E+02  0.41800000000E+01 0. -1.
        -11    1    1    2    0    0 -0.70596113358E+02 -0.51420795468E+02  0.33159872340E+03  0.34290760095E+03  0.00000000000E+00 0. -1.
         11    1    1    2    0    0  0.27350159017E+01  0.11824224276E+02  0.28279457463E+01  0.12461535573E+02  0.00000000000E+00 0.  1.
</event>
<event>
 7    1  0.2856214E-009  0.1400422E+03  0.7561462E-02  0.1213272E+00
         -4   -1    0    0    0  501 -0.00000000000E+00  0.00000000000E+00  0.14240875563E+03  0.14240875563E+03  0.00000000000E+00 0. -1.
          4   -1    0    0  501    0  0.00000000000E+00 -0.00000000000E+00 -0.19590736573E+03  0.19590736573E+03  0.00000000000E+00 0.  1.
         25    2    1    2    0    0  0.95594623238E+02 -0.82233941600E+02 -0.16654436264E+02  0.17839805322E+03  0.12509093493E+03 0.  0.
          5    1    3    3  502    0  0.11868081282E+02 -0.67679821877E+02  0.36657052977E+02  0.77991163446E+02  0.41800000000E+01 0.  1.
         -5    1    3    3    0  502  0.83726541955E+02 -0.14554119723E+02 -0.53311489241E+02  0.10040688977E+03  0.41800000000E+01 0.  1.
        -11    1    1    2    0    0 -0.45736868109E+02  0.41951123975E+02 -0.65034061087E+02  0.89895422624E+02  0.00000000000E+00 0.  1.
         11    1    1    2    0    0 -0.49857755129E+02  0.40282817625E+02  0.28189887257E+02  0.70022645522E+02  0.00000000000E+00 0. -1.
</event>
<event>
 7    1  0.2856214E-009  0.2346096E+03  0.7561462E-02  0.1123437E+00
          2   -1    0    0  501    0  0.00000000000E+00  0.00000000000E+00  0.35507426887E+03  0.35507426887E+03  0.00000000000E+00 0. -1.
         -2   -1    0    0    0  501 -0.00000000000E+00 -0.00000000000E+00 -0.18142133120E+03  0.18142133120E+03  0.00000000000E+00 0.  1.
         25    2    1    2    0    0 -0.19021126088E+03 -0.12614035590E+03  0.68478725748E+02  0.26912449006E+03  0.12508773767E+03 0.  0.
          5    1    3    3  502    0 -0.39324963524E+02 -0.16683832848E+02  0.70641047664E+02  0.82658532831E+02  0.41800000000E+01 0. -1.
         -5    1    3    3    0  502 -0.15088629735E+03 -0.10945652305E+03 -0.21623219163E+01  0.18646595722E+03  0.41800000000E+01 0. -1.
        -11    1    1    2    0    0  0.59003566309E+02  0.17270343810E+01  0.52608756380E+02  0.79070125413E+02  0.00000000000E+00 0. -1.
         11    1    1    2    0    0  0.13120769457E+03  0.12441332152E+03  0.52565455537E+02  0.18830098460E+03  0.00000000000E+00 0.  1.
</event>
<event>
 7    1  0.2856214E-009  0.8654971E+02  0.7561462E-02  0.1311429E+00
          2   -1    0    0  501    0  0.00000000000E+00  0.00000000000E+00  0.28819707812E+02  0.28819707812E+02  0.00000000000E+00 0. -1.
         -2   -1    0    0    0  501 -0.00000000000E+00 -0.00000000000E+00 -0.52064461548E+03  0.52064461548E+03  0.00000000000E+00 0.  1.
         25    2    1    2    0    0  0.19717787591E+02  0.83858362995E+01 -0.39232093951E+03  0.41233699709E+03  0.12508783391E+03 0.  0.
          5    1    3    3  502    0 -0.94434931842E+01 -0.53688808188E+02 -0.12709947502E+03  0.13835973633E+03  0.41800000000E+01 0. -1.
         -5    1    3    3    0  502  0.29161280775E+02  0.62074644487E+02 -0.26522146449E+03  0.27397726076E+03  0.41800000000E+01 0. -1.
        -11    1    1    2    0    0  0.87607959778E+01  0.11881275538E+02  0.12781895425E+02  0.19526727970E+02  0.00000000000E+00 0. -1.
         11    1    1    2    0    0 -0.28478583568E+02 -0.20267111837E+02 -0.11228586358E+03  0.11760059823E+03  0.00000000000E+00 0.  1.
</event>
<event>
 7    1  0.2856214E-009  0.4488250E+03  0.7561462E-02  0.1028073E+00
          1   -1    0    0  501    0  0.00000000000E+00  0.00000000000E+00  0.28845168307E+04  0.28845168307E+04  0.00000000000E+00 0. -1.
         -1   -1    0    0    0  501 -0.00000000000E+00 -0.00000000000E+00 -0.12576267283E+03  0.12576267283E+03  0.00000000000E+00 0.  1.
         25    2    1    2    0    0  0.31634647331E+03 -0.30906874657E+03  0.23793568800E+04  0.24233418153E+04  0.12509120784E+03 0.  0.
          5    1    3    3  502    0  0.30487245997E+03 -0.24900635098E+03  0.21601765064E+04  0.21957530351E+04  0.41800000000E+01 0. -1.
         -5    1    3    3    0  502  0.11474013334E+02 -0.60062395597E+02  0.21918037359E+03  0.22758878029E+03  0.41800000000E+01 0. -1.
        -11    1    1    2    0    0 -0.28220501355E+03  0.28375658237E+03  0.36614031509E+03  0.54241699646E+03  0.00000000000E+00 0.  1.
         11    1    1    2    0    0 -0.34141459755E+02  0.25312164199E+02  0.13256962799E+02  0.44520691743E+02  0.00000000000E+00 0. -1.
</event>
<event>
 7    1  0.2856214E-009  0.1704890E+03  0.7561462E-02  0.1177339E+00
          1   -1    0    0  501    0  0.00000000000E+00  0.00000000000E+00  0.16131010467E+03  0.16131010467E+03  0.00000000000E+00 0. -1.
         -1   -1    0    0    0  501 -0.00000000000E+00 -0.00000000000E+00 -0.24333606663E+03  0.24333606663E+03  0.00000000000E+00 0.  1.
         25    2    1    2    0    0 -0.14368991743E+03 -0.48545555622E+02  0.24602608556E+02  0.19813120964E+03  0.12508886659E+03 0.  0.
          5    1    3    3  502    0 -0.63827847477E+02  0.33702837633E+02 -0.20050507295E+02  0.75029131815E+02  0.41800000000E+01 0. -1.
         -5    1    3    3    0  502 -0.79862069952E+02 -0.82248393255E+02  0.44653115851E+02  0.12310207783E+03  0.41800000000E+01 0. -1.
        -11    1    1    2    0    0  0.49509960585E+02  0.30247931885E+02 -0.92995918306E+02  0.10961028420E+03  0.00000000000E+00 0.  1.
         11    1    1    2    0    0  0.94179956845E+02  0.18297623738E+02 -0.13632652210E+02  0.96904677452E+02  0.00000000000E+00 0. -1.
</event>
<event>
 7    1  0.2856214E-009  0.9670287E+02  0.7561462E-02  0.1287386E+00
         -2   -1    0    0    0  501 -0.00000000000E+00  0.00000000000E+00  0.75457908281E+02  0.75457908281E+02  0.00000000000E+00 0.  1.
          2   -1    0    0  501    0  0.00000000000E+00 -0.00000000000E+00 -0.28236526868E+03  0.28236526868E+03  0.00000000000E+00 0. -1.
         25    2    1    2    0    0 -0.64661232740E+02 -0.35899907230E+02 -0.33822227273E+02  0.14920170575E+03  0.12508927845E+03 0.  0.
          5    1    3    3  502    0  0.59067136692E+01 -0.12093962729E+02 -0.66346526221E+02  0.67826890998E+02  0.41800000000E+01 0.  1.
         -5    1    3    3    0  502 -0.70567946410E+02 -0.23805944502E+02  0.32524298948E+02  0.81374814753E+02  0.41800000000E+01 0.  1.
        -11    1    1    2    0    0  0.81389250445E+02  0.32566606642E+02 -0.97409296985E+02  0.13104718652E+03  0.00000000000E+00 0.  1.
         11    1    1    2    0    0 -0.16728017705E+02  0.33333005878E+01 -0.75675836142E+02  0.77574284688E+02  0.00000000000E+00 0. -1.
</event>
<event>
 7    1  0.2856214E-009  0.9297256E+02  0.7561462E-02  0.1295809E+00
         -1   -1    0    0    0  501 -0.00000000000E+00  0.00000000000E+00  0.10783576805E+03  0.10783576805E+03  0.00000000000E+00 0.  1.
          1   -1    0    0  501    0  0.00000000000E+00 -0.00000000000E+00 -0.14151713096E+03  0.14151713096E+03  0.00000000000E+00 0. -1.
         25    2    1    2    0    0 -0.48306222413E+02  0.25697770975E+02 -0.36723860819E+02  0.14139228150E+03  0.12509703736E+03 0.  0.
          5    1    3    3  502    0 -0.77011845962E+02  0.12639612627E+02 -0.62799700701E+02  0.10025895987E+03  0.41800000000E+01 0.  1.
         -5    1    3    3    0  502  0.28705623549E+02  0.13058158348E+02  0.26075839882E+02  0.41133321630E+02  0.41800000000E+01 0.  1.
        -11    1    1    2    0    0  0.68919012793E+01 -0.33185269734E+02  0.39663657139E+02  0.52172465230E+02  0.00000000000E+00 0.  1.
         11    1    1    2    0    0  0.41414321133E+02  0.74874987597E+01 -0.36621159229E+02  0.55788152290E+02  0.00000000000E+00 0. -1.
</event>
<event>
 7    1  0.2856214E-009  0.2119103E+03  0.7561462E-02  0.1140062E+00
          1   -1    0    0  501    0  0.00000000000E+00  0.00000000000E+00  0.72977698125E+03  0.72977698125E+03  0.00000000000E+00 0. -1.
         -1   -1    0    0    0  501 -0.00000000000E+00 -0.00000000000E+00 -0.91759594645E+02  0.91759594645E+02  0.00000000000E+00 0.  1.
         25    2    1    2    0    0 -0.19841449763E+03  0.17915650482E+02  0.13162722064E+03  0.26955695285E+03  0.12508374081E+03 0.  0.
          5    1    3    3  502    0 -0.11863954377E+03  0.44003349456E+02  0.13548439034E+03  0.18543227479E+03  0.41800000000E+01 0.  1.
         -5    1    3    3    0  502 -0.79774953862E+02 -0.26087698975E+02 -0.38571696924E+01  0.84124678065E+02  0.41800000000E+01 0.  1.
        -11    1    1    2    0    0  0.60450361378E+02 -0.41347481869E+02  0.11517104799E+03  0.13648527665E+03  0.00000000000E+00 0.  1.
         11    1    1    2    0    0  0.13796413625E+03  0.23431831387E+02  0.39121911798E+03  0.41549434640E+03  0.00000000000E+00 0. -1.
</event>
<event>
 7    1  0.2856214E-009  0.1281564E+03  0.7561462E-02  0.1230217E+00
         -2   -1    0    0    0  501 -0.00000000000E+00  0.00000000000E+00  0.51436567865E+02  0.51436567865E+02  0.00000000000E+00 0.  1.
          2   -1    0    0  501    0  0.00000000000E+00 -0.00000000000E+00 -0.35849416212E+03  0.35849416212E+03  0.00000000000E+00 0. -1.
         25    2    1    2    0    0  0.19126991571E+02  0.66804854699E+02 -0.10453822490E+03  0.17721437291E+03  0.12509181861E+03 0.  0.
          5    1    3    3  502    0  0.40212856725E+02 -0.25083035499E+02 -0.24722416812E+02  0.53618120154E+02  0.41800000000E+01 0.  1.
         -5    1    3    3    0  502 -0.21085865154E+02  0.91887890198E+02 -0.79815808085E+02  0.12359625275E+03  0.41800000000E+01 0.  1.
        -11    1    1    2    0    0 -0.23933062862E+02  0.17673049685E+02 -0.60008791388E+02  0.66978976007E+02  0.00000000000E+00 0.  1.
         11    1    1    2    0    0  0.48060712915E+01 -0.84477904385E+02 -0.14251057797E+03  0.16573738107E+03  0.00000000000E+00 0. -1.
</event>
<event>
 7    1  0.2856214E-009  0.1249628E+03  0.7561462E-02  0.1235127E+00
         -2   -1    0    0    0  501 -0.00000000000E+00  0.00000000000E+00  0.38820795086E+03  0.38820795086E+03  0.00000000000E+00 0.  1.
          2   -1    0    0  501    0  0.00000000000E+00 -0.00000000000E+00 -0.45251419778E+02  0.45251419778E+02  0.00000000000E+00 0. -1.
         25    2    1    2    0    0 -0.58895058394E+02 -0.24031371180E+02  0.26131506562E+03  0.29661430505E+03  0.12509335608E+03 0.  0.
          5    1    3    3  502    0 -0.44525950050E+02  0.48665546560E+02  0.12045788705E+03  0.13739894687E+03  0.41800000000E+01 0.  1.
         -5    1    3    3    0  502 -0.14369108344E+02 -0.72696917740E+02  0.14085717857E+03  0.15921535818E+03  0.41800000000E+01 0.  1.
        -11    1    1    2    0    0  0.40112657393E+02 -0.31491309920E+02  0.33747986512E+02  0.61152714390E+02  0.00000000000E+00 0.  1.
         11    1    1    2    0    0  0.18782401001E+02  0.55522681101E+02  0.47893478944E+02  0.75692351195E+02  0.00000000000E+00 0. -1.
</event>
<event>
 7    1  0.2856214E-009  0.1003458E+03  0.7561462E-02  0.1279570E+00
         -2   -1    0    0    0  501 -0.00000000000E+00  0.00000000000E+00  0.16129856580E+03  0.16129856580E+03  0.00000000000E+00 0.  1.
          2   -1    0    0  501    0  0.00000000000E+00 -0.00000000000E+00 -0.89177110075E+02  0.89177110075E+02  0.00000000000E+00 0. -1.
         25    2    1    2    0    0  0.22607790332E+02 -0.34676368403E+02  0.71995560214E+02  0.15014800567E+03  0.12508996844E+03 0.  0.
          5    1    3    3  502    0 -0.19392819173E+02 -0.52388223836E+02  0.85684304062E+02  0.10237128403E+03  0.41800000000E+01 0.  1.
         -5    1    3    3    0  502  0.42000609504E+02  0.17711855434E+02 -0.13688743849E+02  0.47776721631E+02  0.41800000000E+01 0.  1.
        -11    1    1    2    0    0 -0.27305947802E+02 -0.26199688146E+02  0.82538808507E+01  0.38731963459E+02  0.00000000000E+00 0.  1.
         11    1    1    2    0    0  0.46981574697E+01  0.60876056549E+02 -0.81279853384E+01  0.61595706752E+02  0.00000000000E+00 0. -1.
</event>
<event>
 7    1  0.2856214E-009  0.1109474E+03  0.7561462E-02  0.1258825E+00
         -1   -1    0    0    0  501 -0.00000000000E+00  0.00000000000E+00  0.84862902360E+02  0.84862902360E+02  0.00000000000E+00 0.  1.
          1   -1    0    0  501    0  0.00000000000E+00 -0.00000000000E+00 -0.19725529343E+03  0.19725529343E+03  0.00000000000E+00 0. -1.
         25    2    1    2    0    0 -0.44783264980E+02 -0.53857934271E+02 -0.57141272557E+02  0.15433128845E+03  0.12508718423E+03 0.  0.
          5    1    3    3  502    0  0.20756666285E+01  0.26472571142E+02 -0.54996181128E+02  0.61214032325E+02  0.41800000000E+01 0.  1.
         -5    1    3    3    0  502 -0.46858931609E+02 -0.80330505413E+02 -0.21450914292E+01  0.93117256127E+02  0.41800000000E+01 0.  1.
        -11    1    1    2    0    0  0.20044130096E+02  0.69713207335E+02 -0.91426687712E+01  0.73111468461E+02  0.00000000000E+00 0.  1.
         11    1    1    2    0    0  0.24739134884E+02 -0.15855273064E+02 -0.46108449740E+02  0.54675438875E+02  0.00000000000E+00 0. -1.
</event>
<event>
 7    1  0.2856214E-009  0.1447477E+03  0.7561462E-02  0.1207080E+00
          2   -1    0    0  501    0  0.00000000000E+00  0.00000000000E+00  0.31949280469E+03  0.31949280469E+03  0.00000000000E+00 0. -1.
         -2   -1    0    0    0  501 -0.00000000000E+00 -0.00000000000E+00 -0.92396158030E+02  0.92396158030E+02  0.00000000000E+00 0.  1.
         25    2    1    2    0    0  0.51494607190E+02 -0.11059231022E+03  0.18098589844E+03  0.25156490541E+03  0.12508658022E+03 0.  0.
          5    1    3    3  502    0  0.49781094066E+02 -0.35729961761E+02  0.16335811702E+03  0.17452258963E+03  0.41800000000E+01 0.  1.
         -5    1    3    3    0  502  0.17135131247E+01 -0.74862348455E+02  0.17627781422E+02  0.77042315784E+02  0.41800000000E+01 0.  1.
        -11    1    1    2    0    0  0.46273605292E+01  0.94612521562E+02  0.34600189934E+02  0.10084698729E+03  0.00000000000E+00 0.  1.
         11    1    1    2    0    0 -0.56121967720E+02  0.15979788654E+02  0.11510558284E+02  0.59477070020E+02  0.00000000000E+00 0. -1.
</event>
<event>
 7    1  0.2856214E-009  0.1127262E+03  0.7561462E-02  0.1255603E+00
         -2   -1    0    0    0  501 -0.00000000000E+00  0.00000000000E+00  0.53221620418E+02  0.53221620418E+02  0.00000000000E+00 0.  1.
          2   -1    0    0  501    0  0.00000000000E+00 -0.00000000000E+00 -0.36849804557E+03  0.36849804557E+03  0.00000000000E+00 0. -1.
         25    2    1    2    0    0 -0.88003696228E+01 -0.53706686562E+02 -0.68615902902E+02  0.15269850420E+03  0.12508731497E+03 0.  0.
          5    1    3    3  502    0  0.58143229298E+02 -0.26018416903E+02 -0.33175862388E+02  0.71942361489E+02  0.41800000000E+01 0.  1.
         -5    1    3    3    0  502 -0.66943598921E+02 -0.27688269659E+02 -0.35440040514E+02  0.80756142707E+02  0.41800000000E+01 0.  1.
        -11    1    1    2    0    0 -0.25274924193E+02  0.48350798369E+02 -0.68599785633E+02  0.87650168766E+02  0.00000000000E+00 0.  1.
         11    1    1    2    0    0  0.34075293816E+02  0.53558881934E+01 -0.17806073662E+03  0.18137099303E+03  0.00000000000E+00 0. -1.
</event>
<event>
 7    1  0.2856214E-009  0.8886302E+02  0.7561462E-02  0.1305629E+00
         -1   -1    0    0    0  501 -0.00000000000E+00  0.00000000000E+00  0.85761396982E+02  0.85761396982E+02  0.00000000000E+00 0.  1.
          1   -1    0    0  501    0  0.00000000000E+00 -0.00000000000E+00 -0.14025121455E+03  0.14025121455E+03  0.00000000000E+00 0. -1.
         25    2    1    2    0    0  0.15718017384E+02  0.20793040113E+02 -0.33575068778E+02  0.13210664408E+03  0.12508186750E+03 0.  0.
          5    1    3    3  502    0 -0.50804242036E+02 -0.61837765903E+01  0.29926858965E+01  0.51436744363E+02  0.41800000000E+01 0.  1.
         -5    1    3    3    0  502  0.66522259421E+02  0.26976816703E+02 -0.36567754675E+02  0.80669899714E+02  0.41800000000E+01 0.  1.
        -11    1    1    2    0    0 -0.21242225835E+01 -0.34850727395E+02  0.25700976364E+02  0.43354650357E+02  0.00000000000E+00 0.  1.
         11    1    1    2    0    0 -0.13593794801E+02  0.14057687283E+02 -0.46615725157E+02  0.50551317102E+02  0.00000000000E+00 0. -1.
</event>
<event>
 7    1  0.2856214E-009  0.1733219E+03  0.7561462E-02  0.1174427E+00
          1   -1    0    0  501    0  0.00000000000E+00  0.00000000000E+00  0.27444159571E+03  0.27444159571E+03  0.00000000000E+00 0. -1.
         -1   -1    0    0    0  501 -0.00000000000E+00 -0.00000000000E+00 -0.13113638081E+03  0.13113638081E+03  0.00000000000E+00 0.  1.
         25    2    1    2    0    0 -0.15252768919E+03  0.12990078373E+02  0.99908119953E+02  0.22150203439E+03  0.12509228872E+03 0.  0.
          5    1    3    3  502    0 -0.10620134455E+03 -0.44126728086E+02  0.27731538799E+02  0.11837400204E+03  0.41800000000E+01 0.  1.
         -5    1    3    3    0  502 -0.46326344647E+02  0.57116806459E+02  0.72176581154E+02  0.10312803235E+03  0.41800000000E+01 0.  1.
        -11    1    1    2    0    0  0.61099977889E+02  0.13784219107E+02 -0.24322358327E+02  0.67192180415E+02  0.00000000000E+00 0. -1.
         11    1    1    2    0    0  0.91427711304E+02 -0.26774297480E+02  0.67719453273E+02  0.11688376171E+03  0.00000000000E+00 0.  1.
</event>
<event>
 7    1  0.2856214E-009  0.9497645E+02  0.7561462E-02  0.1291229E+00
         -2   -1    0    0    0  501 -0.00000000000E+00  0.00000000000E+00  0.23481191252E+03  0.23481191252E+03  0.00000000000E+00 0.  1.
          2   -1    0    0  501    0  0.00000000000E+00 -0.00000000000E+00 -0.64647420949E+02  0.64647420949E+02  0.00000000000E+00 0. -1.
         25    2    1    2    0    0  0.14439113517E+02 -0.57663696899E+02  0.10727244880E+03  0.17518037411E+03  0.12508874954E+03 0.  0.
          5    1    3    3  502    0  0.88411527391E+01  0.14388074221E+02 -0.21377845791E+02  0.27562063642E+02  0.41800000000E+01 0. -1.
         -5    1    3    3    0  502  0.55979607781E+01 -0.72051771120E+02  0.12865029460E+03  0.14761831047E+03  0.41800000000E+01 0. -1.
        -11    1    1    2    0    0 -0.44409277059E+02  0.12807650072E+02  0.51394664866E+02  0.69120412079E+02  0.00000000000E+00 0.  1.
         11    1    1    2    0    0  0.29970163542E+02  0.44856046828E+02  0.11497377905E+02  0.55158547283E+02  0.00000000000E+00 0. -1.
</event>
<event>
 7    1  0.2856214E-009  0.1500053E+03  0.7561462E-02  0.1200467E+00
         -2   -1    0    0    0  501 -0.00000000000E+00  0.00000000000E+00  0.13461029773E+03  0.13461029773E+03  0.00000000000E+00 0.  1.
          2   -1    0    0  501    0  0.00000000000E+00 -0.00000000000E+00 -0.26146698804E+03  0.26146698804E+03  0.00000000000E+00 0. -1.
         25    2    1    2    0    0 -0.44711052716E+02  0.11034514114E+03 -0.16680910436E+03  0.24009964901E+03  0.12508971082E+03 0.  0.
          5    1    3    3  502    0  0.31243949364E+02  0.26785038972E+02 -0.35075333760E+01  0.41513827515E+02  0.41800000000E+01 0. -1.
         -5    1    3    3    0  502 -0.75955002080E+02  0.83560102172E+02 -0.16330157098E+03  0.19858582150E+03  0.41800000000E+01 0. -1.
        -11    1    1    2    0    0 -0.22918715672E+02 -0.10889644315E+02  0.23502879573E+02  0.34586662597E+02  0.00000000000E+00 0.  1.
         11    1    1    2    0    0  0.67629768388E+02 -0.99455496829E+02  0.16449534476E+02  0.12139097415E+03  0.00000000000E+00 0. -1.
</event>
<event>
 7    1  0.2856214E-009  0.1088708E+03  0.7561462E-02  0.1262675E+00
         -2   -1    0    0    0  501 -0.00000000000E+00  0.00000000000E+00  0.25174339296E+02  0.25174339296E+02  0.00000000000E+00 0.  1.
          2   -1    0    0  501    0  0.00000000000E+00 -0.00000000000E+00 -0.58377334366E+03  0.58377334366E+03  0.00000000000E+00 0. -1.
         25    2    1    2    0    0  0.15501584020E+02  0.35455725197E+02 -0.22231101842E+03  0.25800473213E+03  0.12508735081E+03 0.  0.
          5    1    3    3  502    0  0.53535815169E+02  0.62504010580E+02 -0.12115140931E+03  0.14651952506E+03  0.41800000000E+01 0. -1.
         -5    1    3    3    0  502 -0.38034231149E+02 -0.27048285383E+02 -0.10115960911E+03  0.11148520708E+03  0.41800000000E+01 0. -1.
        -11    1    1    2    0    0 -0.26103504822E+02 -0.57980205936E+02 -0.30169828241E+03  0.30832604634E+03  0.00000000000E+00 0. -1.
         11    1    1    2    0    0  0.10601920802E+02  0.22524480739E+02 -0.34589703536E+02  0.42616904486E+02  0.00000000000E+00 0.  1.
</event>
<event>
 7    1  0.2856214E-009  0.1266382E+03  0.7561462E-02  0.1232531E+00
         -2   -1    0    0    0  501 -0.00000000000E+00  0.00000000000E+00  0.15136172689E+03  0.15136172689E+03  0.00000000000E+00 0.  1.
          2   -1    0    0  501    0  0.00000000000E+00 -0.00000000000E+00 -0.14423340710E+03  0.14423340710E+03  0.00000000000E+00 0. -1.
         25    2    1    2    0    0 -0.44296238927E+02  0.59286613174E+02  0.71504082772E+02  0.16196612314E+03  0.12507250660E+03 0.  0.
          5    1    3    3  502    0 -0.59499614914E+02  0.91527292290E+02  0.57358149836E+02  0.12338913713E+03  0.41800000000E+01 0.  1.
         -5    1    3    3    0  502  0.15203375987E+02 -0.32240679116E+02  0.14145932936E+02  0.38576986014E+02  0.41800000000E+01 0.  1.
        -11    1    1    2    0    0 -0.21739215826E+02 -0.41933854022E+01  0.55085140244E+01  0.22814944940E+02  0.00000000000E+00 0.  1.
         11    1    1    2    0    0  0.66035454753E+02 -0.55093227771E+02 -0.69884277001E+02  0.11081406591E+03  0.00000000000E+00 0. -1.
</event>
<event>
 7    1  0.2856214E-009  0.1060606E+03  0.7561462E-02  0.1268044E+00
          1   -1    0    0  501    0  0.00000000000E+00  0.00000000000E+00  0.20284428164E+03  0.20284428164E+03  0.00000000000E+00 0.  1.
         -1   -1    0    0    0  501 -0.00000000000E+00 -0.00000000000E+00 -0.77983725241E+02  0.77983725241E+02  0.00000000000E+00 0. -1.
         25    2    1    2    0    0  0.14257402755E+02  0.20119140302E+02  0.13630892345E+03  0.18664798814E+03  0.12509714435E+03 0.  0.
          5    1    3    3  502    0  0.66643494402E+02 -0.23143703674E+01  0.94984603630E+02  0.11613035341E+03  0.41800000000E+01 0.  1.
         -5    1    3    3    0  502 -0.52386091646E+02  0.22433510669E+02  0.41324319821E+02  0.70517634728E+02  0.41800000000E+01 0.  1.
        -11    1    1    2    0    0 -0.27956842823E+01  0.33357734043E+02  0.10745411439E+02  0.35157049621E+02  0.00000000000E+00 0.  1.
         11    1    1    2    0    0 -0.11461718473E+02 -0.53476874344E+02 -0.22193778494E+02  0.59022969120E+02  0.00000000000E+00 0. -1.
</event>
<event>
 7    1  0.2856214E-009  0.1157545E+03  0.7561462E-02  0.1250270E+00
         -1   -1    0    0    0  501 -0.00000000000E+00  0.00000000000E+00  0.29469046528E+02  0.29469046528E+02  0.00000000000E+00 0.  1.
          1   -1    0    0  501    0  0.00000000000E+00 -0.00000000000E+00 -0.46844957232E+03  0.46844957232E+03  0.00000000000E+00 0. -1.
         25    2    1    2    0    0 -0.22346235145E+02 -0.39319874882E+02 -0.26083132630E+03  0.29279495272E+03  0.12510194553E+03 0.  0.
          5    1    3    3  502    0  0.50198475339E+02 -0.32646192820E+02 -0.12076951681E+03  0.13486441125E+03  0.41800000000E+01 0. -1.
         -5    1    3    3    0  502 -0.72544710484E+02 -0.66736820620E+01 -0.14006180949E+03  0.15793054147E+03  0.41800000000E+01 0. -1.
        -11    1    1    2    0    0 -0.33982125236E+02  0.13948957235E+02 -0.92432678688E+02  0.99464357098E+02  0.00000000000E+00 0. -1.
         11    1    1    2    0    0  0.56328360381E+02  0.25370917647E+02 -0.85716520810E+02  0.10565930903E+03  0.00000000000E+00 0.  1.
</event>
<event>
 7    1  0.2856214E-009  0.1030896E+03  0.7561462E-02  0.1273930E+00
         -1   -1    0    0    0  501 -0.00000000000E+00  0.00000000000E+00  0.36442739388E+02  0.36442739388E+02  0.00000000000E+00 0.  1.
          1   -1    0    0  501    0  0.00000000000E+00 -0.00000000000E+00 -0.38600875278E+03  0.38600875278E+03  0.00000000000E+00 0. -1.
         25    2    1    2    0    0 -0.18181900781E+02 -0.28441916613E+02 -0.13253438880E+03  0.18534446339E+03  0.12509069413E+03 0.  0.
          5    1    3    3  502    0 -0.15181748393E+02 -0.77865410245E+02 -0.88802074771E+02  0.11915027688E+03  0.41800000000E+01 0.  1.
         -5    1    3    3    0  502 -0.30001523879E+01  0.49423493632E+02 -0.43732314033E+02  0.66194186511E+02  0.41800000000E+01 0.  1.
        -11    1    1    2    0    0  0.18931358848E+02 -0.20612337171E+02 -0.20891822177E+02  0.34924676453E+02  0.00000000000E+00 0.  1.
         11    1    1    2    0    0 -0.74945806757E+00  0.49054253783E+02 -0.19613980241E+03  0.20218235233E+03  0.00000000000E+00 0. -1.
</event>
<event>
 7    1  0.2856214E-009  0.1077902E+03  0.7561462E-02  0.1264718E+00
          2   -1    0    0  501    0  0.00000000000E+00  0.00000000000E+00  0.15536460466E+03  0.15536460466E+03  0.00000000000E+00 0.  1.
         -2   -1    0    0    0  501 -0.00000000000E+00 -0.00000000000E+00 -0.90650970773E+02  0.90650970773E+02  0.00000000000E+00 0. -1.
         25    2    1    2    0    0  0.38562752248E+02  0.13906689751E+02  0.62061391631E+02  0.14553106595E+03  0.12508874028E+03 0.  0.
          5    1    3    3  502    0 -0.22701417885E+02 -0.33296536166E+02  0.54216024291E+02  0.67682075799E+02  0.41800000000E+01 0. -1.
         -5    1    3    3    0  502  0.61264170133E+02  0.47203225917E+02  0.78453673407E+01  0.77848990152E+02  0.41800000000E+01 0. -1.
        -11    1    1    2    0    0 -0.67589106238E+02 -0.94990241548E+01 -0.91065255151E+01  0.68858169805E+02  0.00000000000E+00 0.  1.
         11    1    1    2    0    0  0.29026353990E+02 -0.44076655957E+01  0.11758767775E+02  0.31626339680E+02  0.00000000000E+00 0. -1.
</event>
<event>
 7    1  0.2856214E-009  0.1111041E+03  0.7561462E-02  0.1258539E+00
         -2   -1    0    0    0  501 -0.00000000000E+00  0.00000000000E+00  0.24948273208E+02  0.24948273208E+02  0.00000000000E+00 0.  1.
          2   -1    0    0  501    0  0.00000000000E+00 -0.00000000000E+00 -0.54929652420E+03  0.54929652420E+03  0.00000000000E+00 0. -1.
         25    2    1    2    0    0 -0.14937217866E+02  0.32084616559E+02 -0.25175948485E+03  0.28334215304E+03  0.12508954546E+03 0.  0.
          5    1    3    3  502    0  0.35711565865E+02 -0.27864338691E+02 -0.54414816920E+02  0.70923776039E+02  0.41800000000E+01 0.  1.
         -5    1    3    3    0  502 -0.50648783731E+02  0.59948955250E+02 -0.19734466793E+03  0.21241837700E+03  0.41800000000E+01 0.  1.
        -11    1    1    2    0    0  0.16046269725E+02  0.31067189897E+02 -0.13590240697E+03  0.14032860465E+03  0.00000000000E+00 0. -1.
         11    1    1    2    0    0 -0.11090518583E+01 -0.63151806456E+02 -0.13668635916E+03  0.15057403972E+03  0.00000000000E+00 0.  1.
</event>
<event>
 7    1  0.2856214E-009  0.1725475E+03  0.7561462E-02  0.1175217E+00
         -1   -1    0    0    0  501 -0.00000000000E+00  0.00000000000E+00  0.86652379046E+02  0.86652379046E+02  0.00000000000E+00 0.  1.
          1   -1    0    0  501    0  0.00000000000E+00 -0.00000000000E+00 -0.54099554057E+03  0.54099554057E+03  0.00000000000E+00 0. -1.
         25    2    1    2    0    0 -0.43737047567E+02  0.15995371577E+03 -0.10967027222E+03  0.23488945327E+03  0.12508943252E+03 0.  0.
          5    1    3    3  502    0 -0.12344603197E+02  0.10167840469E+03  0.47672746513E+01  0.10262108222E+03  0.41800000000E+01 0. -1.
         -5    1    3    3    0  502 -0.31392444370E+02  0.58275311080E+02 -0.11443754688E+03  0.13226837105E+03  0.41800000000E+01 0. -1.
        -11    1    1    2    0    0 -0.10748079657E+02 -0.71997469196E+02 -0.21425602155E+03  0.22628477535E+03  0.00000000000E+00 0. -1.
         11    1    1    2    0    0  0.54485127225E+02 -0.87956246571E+02 -0.13041686775E+03  0.16647369099E+03  0.00000000000E+00 0.  1.
</event>
<event>
 7    1  0.2856214E-009  0.1367763E+03  0.7561462E-02  0.1217734E+00
         -2   -1    0    0    0  501 -0.00000000000E+00  0.00000000000E+00  0.34052508660E+02  0.34052508660E+02  0.00000000000E+00 0.  1.
          2   -1    0    0  501    0  0.00000000000E+00 -0.00000000000E+00 -0.59939285183E+03  0.59939285183E+03  0.00000000000E+00 0. -1.
         25    2    1    2    0    0 -0.74147624353E+02  0.62418675624E+02 -0.28545099849E+03  0.32638022844E+03  0.12509124554E+03 0.  0.
          5    1    3    3  502    0 -0.43508634724E+02  0.99201618710E+02 -0.17392968895E+03  0.20494626503E+03  0.41800000000E+01 0.  1.
         -5    1    3    3    0  502 -0.30638989629E+02 -0.36782943086E+02 -0.11152130954E+03  0.12143396341E+03  0.41800000000E+01 0.  1.
        -11    1    1    2    0    0  0.80904338750E+02 -0.33786566898E+02 -0.14874667407E+03  0.17266330583E+03  0.00000000000E+00 0.  1.
         11    1    1    2    0    0 -0.67567143969E+01 -0.28632108725E+02 -0.13114267060E+03  0.13440182622E+03  0.00000000000E+00 0. -1.
</event>
<event>
 7    1  0.2856214E-009  0.1364277E+03  0.7561462E-02  0.1218218E+00
          2   -1    0    0  501    0  0.00000000000E+00  0.00000000000E+00  0.10039757410E+04  0.10039757410E+04  0.00000000000E+00 0. -1.
         -2   -1    0    0    0  501 -0.00000000000E+00 -0.00000000000E+00 -0.33628690649E+02  0.33628690649E+02  0.00000000000E+00 0.  1.
         25    2    1    2    0    0  0.77546832025E+02  0.97441705872E+02  0.74054424228E+03  0.76128947486E+03  0.12508993786E+03 0.  0.
          5    1    3    3  502    0  0.85426690574E+02  0.78211137516E+02  0.32223651758E+03  0.34244495493E+03  0.41800000000E+01 0. -1.
         -5    1    3    3    0  502 -0.78798585494E+01  0.19230568356E+02  0.41830772470E+03  0.41884451993E+03  0.41800000000E+01 0. -1.
        -11    1    1    2    0    0 -0.40276135676E+02 -0.88790004397E+02  0.94775804947E+02  0.13597163377E+03  0.00000000000E+00 0.  1.
         11    1    1    2    0    0 -0.37270696348E+02 -0.86517014754E+01  0.13502700308E+03  0.14034332298E+03  0.00000000000E+00 0. -1.
</event>
<event>
 7    1  0.2856214E-009  0.1307780E+03  0.7561462E-02  0.1226306E+00
          1   -1    0    0  501    0  0.00000000000E+00  0.00000000000E+00  0.11834011602E+04  0.11834011602E+04  0.00000000000E+00 0. -1.
         -1   -1    0    0    0  501 -0.00000000000E+00 -0.00000000000E+00 -0.19827128147E+02  0.19827128147E+02  0.00000000000E+00 0.  1.
         25    2    1    2    0    0 -0.88309772263E+02 -0.19727368861E+02  0.68508535133E+03  0.70226573440E+03  0.12508972036E+03 0.  0.
          5    1    3    3  502    0  0.54670393969E+01 -0.18228045427E+02  0.12475859996E+02  0.23135895109E+02  0.41800000000E+01 0. -1.
         -5    1    3    3    0  502 -0.93776811660E+02 -0.14993234345E+01  0.67260949133E+03  0.67912983929E+03  0.41800000000E+01 0. -1.
        -11    1    1    2    0    0 -0.13846711212E+02  0.41491496372E+02  0.13038412512E+03  0.13752561858E+03  0.00000000000E+00 0.  1.
         11    1    1    2    0    0  0.10215648347E+03 -0.21764127511E+02  0.34810455565E+03  0.36343693542E+03  0.00000000000E+00 0. -1.
</event>
<event>
 7    1  0.2856214E-009  0.1038132E+03  0.7561462E-02  0.1272476E+00
         -1   -1    0    0    0  501 -0.00000000000E+00  0.00000000000E+00  0.21686877814E+03  0.21686877814E+03  0.00000000000E+00 0.  1.
          1   -1    0    0  501    0  0.00000000000E+00 -0.00000000000E+00 -0.76204565988E+02  0.76204565988E+02  0.00000000000E+00 0. -1.
         25    2    1    2    0    0  0.21512295330E+02  0.54163570049E+02  0.88117854258E+02  0.16373672845E+03  0.12509392005E+03 0.  0.
          5    1    3    3  502    0  0.21076027517E+02  0.80777040442E+02  0.10324391975E+03  0.13283790334E+03  0.41800000000E+01 0.  1.
         -5    1    3    3    0  502  0.43626781382E+00 -0.26613470393E+02 -0.15126065491E+02  0.30898825110E+02  0.41800000000E+01 0.  1.
        -11    1    1    2    0    0 -0.43346061581E+02 -0.54157505108E+01 -0.12244643110E+02  0.45366757577E+02  0.00000000000E+00 0. -1.
         11    1    1    2    0    0  0.21833766250E+02 -0.48747819538E+02  0.64791001001E+02  0.83969858099E+02  0.00000000000E+00 0.  1.
</event>
<event>
 7    1  0.2856214E-009  0.1356251E+03  0.7561462E-02  0.1219340E+00
          1   -1    0    0  501    0  0.00000000000E+00  0.00000000000E+00  0.29033365295E+03  0.29033365295E+03  0.00000000000E+00 0. -1.
         -1   -1    0    0    0  501 -0.00000000000E+00 -0.00000000000E+00 -0.15334299684E+03  0.15334299684E+03  0.00000000000E+00 0.  1.
         25    2    1    2    0    0  0.86393434293E+01 -0.12735555839E+03  0.20583649375E+03  0.27259963714E+03  0.12509126069E+03 0.  0.
          5    1    3    3  502    0  0.15759906061E+02 -0.33104750562E+02 -0.88860673370E+01  0.37956998584E+02  0.41800000000E+01 0. -1.
         -5    1    3    3    0  502 -0.71205626312E+01 -0.94250807826E+02  0.21472256108E+03  0.23464263855E+03  0.41800000000E+01 0. -1.
        -11    1    1    2    0    0  0.23813888286E+02  0.40062798348E+02  0.11583147096E+02  0.48023935526E+02  0.00000000000E+00 0. -1.
         11    1    1    2    0    0 -0.32453231715E+02  0.87292760041E+02 -0.80428984738E+02  0.12305307713E+03  0.00000000000E+00 0.  1.
</event>
<event>
 7    1  0.2856214E-009  0.8928069E+02  0.7561462E-02  0.1304603E+00
          2   -1    0    0  501    0  0.00000000000E+00  0.00000000000E+00  0.73845808980E+02  0.73845808980E+02  0.00000000000E+00 0.  1.
         -2   -1    0    0    0  501 -0.00000000000E+00 -0.00000000000E+00 -0.48650141158E+03  0.48650141158E+03  0.00000000000E+00 0. -1.
         25    2    1    2    0    0  0.45433331637E+01  0.47267588895E+02 -0.43529052037E+03  0.45539154843E+03  0.12509499759E+03 0.  0.
          5    1    3    3  502    0  0.14989317000E+02  0.62839564972E+02 -0.43083322245E+03  0.43566986184E+03  0.41800000000E+01 0.  1.
         -5    1    3    3    0  502 -0.10445983836E+02 -0.15571976077E+02 -0.44572979215E+01  0.19721686592E+02  0.41800000000E+01 0.  1.
        -11    1    1    2    0    0  0.36246634585E+02 -0.38524858327E+02  0.32508273548E+02  0.62086802759E+02  0.00000000000E+00 0. -1.
         11    1    1    2    0    0 -0.40789967749E+02 -0.87427305684E+01 -0.98733557785E+01  0.42868869370E+02  0.00000000000E+00 0.  1.
</event>
<event>
 7    1  0.2856214E-009  0.1149466E+03  0.7561462E-02  0.1251674E+00
          1   -1    0    0  501    0  0.00000000000E+00  0.00000000000E+00  0.24202337242E+03  0.24202337242E+03  0.00000000000E+00 0. -1.
         -1   -1    0    0    0  501 -0.00000000000E+00 -0.00000000000E+00 -0.70256084912E+02  0.70256084912E+02  0.00000000000E+00 0.  1.
         25    2    1    2    0    0 -0.68981251126E+02 -0.12319072172E+02  0.97496827311E+02  0.17338712799E+03  0.12508913730E+03 0.  0.
          5    1    3    3  502    0  0.29760205109E+02 -0.12093772398E+00 -0.50190566201E+01  0.30468799835E+02  0.41800000000E+01 0. -1.
         -5    1    3    3    0  502 -0.98741456235E+02 -0.12198134448E+02  0.10251588393E+03  0.14291832815E+03  0.41800000000E+01 0. -1.
        -11    1    1    2    0    0  0.14947133859E+02 -0.28741543416E+02 -0.68657888899E+01  0.33115437270E+02  0.00000000000E+00 0.  1.
         11    1    1    2    0    0  0.54034117267E+02  0.41060615587E+02  0.81136249086E+02  0.10577689207E+03  0.00000000000E+00 0. -1.
</event>
<event>
 7    1  0.2856214E-009  0.1146461E+03  0.7561462E-02  0.1252200E+00
          1   -1    0    0  501    0  0.00000000000E+00  0.00000000000E+00  0.47354277452E+03  0.47354277452E+03  0.00000000000E+00 0. -1.
         -1   -1    0    0    0  501 -0.00000000000E+00 -0.00000000000E+00 -0.40567059989E+02  0.40567059989E+02  0.00000000000E+00 0.  1.
         25    2    1    2    0    0 -0.29762092797E+02 -0.78808300835E+02  0.27231807752E+03  0.31129085396E+03  0.12509328505E+03 0.  0.
          5    1    3    3  502    0 -0.20621915409E+02  0.14902305165E+02  0.17092753821E+03  0.17286132538E+03  0.41800000000E+01 0.  1.
         -5    1    3    3    0  502 -0.91401773881E+01 -0.93710606000E+02  0.10139053931E+03  0.13842952858E+03  0.41800000000E+01 0.  1.
        -11    1    1    2    0    0 -0.22403481322E+02  0.32698148146E+02  0.10940946959E+03  0.11636802354E+03  0.00000000000E+00 0. -1.
         11    1    1    2    0    0  0.52165574119E+02  0.46110152689E+02  0.51248167422E+02  0.86450957012E+02  0.00000000000E+00 0.  1.
</event>
<event>
 7    1  0.2856214E-009  0.1099773E+03  0.7561462E-02  0.1260612E+00
          2   -1    0    0  501    0  0.00000000000E+00  0.00000000000E+00  0.28112910220E+03  0.28112910220E+03  0.00000000000E+00 0.  1.
         -2   -1    0    0    0  501 -0.00000000000E+00 -0.00000000000E+00 -0.62367271571E+02  0.62367271571E+02  0.00000000000E+00 0. -1.
         25    2    1    2    0    0  0.11922246547E+02 -0.70117743022E+02  0.15257808475E+03  0.20973045195E+03  0.12509257643E+03 0.  0.
          5    1    3    3  502    0 -0.26708615979E+02 -0.15255585722E+01  0.12233391187E+03  0.12529459641E+03  0.41800000000E+01 0. -1.
         -5    1    3    3    0  502  0.38630862526E+02 -0.68592184450E+02  0.30244172882E+02  0.84435855538E+02  0.41800000000E+01 0. -1.
        -11    1    1    2    0    0 -0.37867057352E+02 -0.14748901057E+01  0.34640577779E+02  0.51342564819E+02  0.00000000000E+00 0.  1.
         11    1    1    2    0    0  0.25944810806E+02  0.71592633128E+02  0.31543168098E+02  0.82423357003E+02  0.00000000000E+00 0. -1.
</event>
<event>
 7    1  0.2856214E-009  0.1263217E+03  0.7561462E-02  0.1233018E+00
         -1   -1    0    0    0  501 -0.00000000000E+00  0.00000000000E+00  0.35219232872E+02  0.35219232872E+02  0.00000000000E+00 0.  1.
          1   -1    0    0  501    0  0.00000000000E+00 -0.00000000000E+00 -0.70404232046E+03  0.70404232046E+03  0.00000000000E+00 0. -1.
         25    2    1    2    0    0  0.87595125274E+02 -0.71911712750E+02 -0.34128922324E+03  0.38074939659E+03  0.12509024223E+03 0.  0.
          5    1    3    3  502    0  0.78151345461E+02 -0.87061336084E+02 -0.15851488465E+03  0.19705773290E+03  0.41800000000E+01 0. -1.
         -5    1    3    3    0  502  0.94437798137E+01  0.15149623334E+02 -0.18277433858E+03  0.18369166369E+03  0.41800000000E+01 0. -1.
        -11    1    1    2    0    0 -0.64492379114E+02  0.34158164319E+02 -0.29416210003E+03  0.30307983808E+03  0.00000000000E+00 0. -1.
         11    1    1    2    0    0 -0.23102746160E+02  0.37753548431E+02 -0.33371764323E+02  0.55432318671E+02  0.00000000000E+00 0.  1.
</event>
<event>
 7    1  0.2856214E-009  0.1205711E+03  0.7561462E-02  0.1242158E+00
         -2   -1    0    0    0  501 -0.00000000000E+00  0.00000000000E+00  0.14668199002E+02  0.14668199002E+02  0.00000000000E+00 0. -1.
          2   -1    0    0  501    0  0.00000000000E+00 -0.00000000000E+00 -0.23255525327E+04  0.23255525327E+04  0.00000000000E+00 0.  1.
         25    2    1    2    0    0  0.52396499197E+02  0.44339196649E+02 -0.20870977697E+04  0.20919695331E+04  0.12509224460E+03 0.  0.
          5    1    3    3  502    0 -0.22053384547E+02 -0.28659248479E+02 -0.70422422495E+03  0.70516447422E+03  0.41800000000E+01 0.  1.
         -5    1    3    3    0  502  0.74449883744E+02  0.72998445128E+02 -0.13828735448E+04  0.13868050589E+04  0.41800000000E+01 0.  1.
        -11    1    1    2    0    0 -0.27282321545E+02  0.18334413803E+02 -0.12011732128E+03  0.12453371700E+03  0.00000000000E+00 0.  1.
         11    1    1    2    0    0 -0.25114177652E+02 -0.62673610451E+02 -0.10366924269E+03  0.12371748157E+03  0.00000000000E+00 0. -1.
</event>
<event>
 7    1  0.2856214E-009  0.1489024E+03  0.7561462E-02  0.1201828E+00
          1   -1    0    0  501    0  0.00000000000E+00  0.00000000000E+00  0.21001573724E+03  0.21001573724E+03  0.00000000000E+00 0. -1.
         -1   -1    0    0    0  501 -0.00000000000E+00 -0.00000000000E+00 -0.12586222105E+03  0.12586222105E+03  0.00000000000E+00 0.  1.
         25    2    1    2    0    0  0.88973944978E+02  0.78291287602E+02  0.73958579189E+02  0.18751798545E+03  0.12508890771E+03 0.  0.
          5    1    3    3  502    0 -0.31341111581E+02  0.74190752166E+01  0.16942482703E+02  0.36630971490E+02  0.41800000000E+01 0.  1.
         -5    1    3    3    0  502  0.12031505656E+03  0.70872212386E+02  0.57016096486E+02  0.15088701396E+03  0.41800000000E+01 0.  1.
        -11    1    1    2    0    0 -0.28185750093E+02 -0.52513345869E+02 -0.34275694401E+02  0.68752536166E+02  0.00000000000E+00 0.  1.
         11    1    1    2    0    0 -0.60788194885E+02 -0.25777941734E+02  0.44470631398E+02  0.79607436678E+02  0.00000000000E+00 0. -1.
</event>
<event>
 7    1  0.2856214E-009  0.2452705E+03  0.7561462E-02  0.1116331E+00
          2   -1    0    0  501    0  0.00000000000E+00  0.00000000000E+00  0.15037855391E+04  0.15037855391E+04  0.00000000000E+00 0. -1.
         -2   -1    0    0    0  501 -0.00000000000E+00 -0.00000000000E+00 -0.51027483720E+02  0.51027483720E+02  0.00000000000E+00 0.  1.
         25    2    1    2    0    0 -0.15481595976E+03 -0.15628112459E+03  0.11023460461E+04  0.11310198442E+04  0.12508921403E+03 0.  0.
          5    1    3    3  502    0  0.14204302606E+02 -0.52781177246E+02  0.23598703546E+03  0.24227044431E+03  0.41800000000E+01 0.  1.
         -5    1    3    3    0  502 -0.16902026236E+03 -0.10349994734E+03  0.86635901061E+03  0.88874939992E+03  0.41800000000E+01 0.  1.
        -11    1    1    2    0    0  0.10773706737E+03  0.45189297941E+02  0.19045527158E+03  0.22343356688E+03  0.00000000000E+00 0. -1.
         11    1    1    2    0    0  0.47078892385E+02  0.11109182665E+03  0.15995673769E+03  0.20035961167E+03  0.00000000000E+00 0.  1.
</event>
<event>
 7    1  0.2856214E-009  0.1017311E+03  0.7561462E-02  0.1276697E+00
          2   -1    0    0  501    0  0.00000000000E+00  0.00000000000E+00  0.37763450921E+03  0.37763450921E+03  0.00000000000E+00 0. -1.
         -2   -1    0    0    0  501 -0.00000000000E+00 -0.00000000000E+00 -0.43241882098E+02  0.43241882098E+02  0.00000000000E+00 0.  1.
         25    2    1    2    0    0 -0.40962635294E+02  0.41442128339E+02  0.12625320486E+03  0.18703018457E+03  0.12508009718E+03 0.  0.
          5    1    3    3  502    0 -0.63849181404E+02  0.26680857375E+02  0.13076954807E+02  0.70548318642E+02  0.41800000000E+01 0.  1.
         -5    1    3    3    0  502  0.22886546110E+02  0.14761270964E+02  0.11317625005E+03  0.11648186592E+03  0.41800000000E+01 0.  1.
        -11    1    1    2    0    0  0.38361426269E+01 -0.63356089678E+02  0.12243575119E+03  0.13791019998E+03  0.00000000000E+00 0.  1.
         11    1    1    2    0    0  0.37126492667E+02  0.21913961339E+02  0.85703671058E+02  0.95936006755E+02  0.00000000000E+00 0. -1.
</event>
<event>
 7    1  0.2856214E-009  0.1072865E+03  0.7561462E-02  0.1265679E+00
         -1   -1    0    0    0  501 -0.00000000000E+00  0.00000000000E+00  0.72005010041E+02  0.72005010041E+02  0.00000000000E+00 0.  1.
          1   -1    0    0  501    0  0.00000000000E+00 -0.00000000000E+00 -0.26954685462E+03  0.26954685462E+03  0.00000000000E+00 0. -1.
         25    2    1    2    0    0  0.13496434838E+01 -0.11740149264E+02 -0.38259319530E+01  0.12570428460E+03  0.12508907533E+03 0.  0.
          5    1    3    3  502    0 -0.56952377148E+02  0.18214508732E+02 -0.30986685557E+01  0.60020127774E+02  0.41800000000E+01 0. -1.
         -5    1    3    3    0  502  0.58302020632E+02 -0.29954657996E+02 -0.72726339736E+00  0.65684156822E+02  0.41800000000E+01 0. -1.
        -11    1    1    2    0    0  0.30962892236E+02 -0.25165884111E+02 -0.49866300293E+02  0.63864468397E+02  0.00000000000E+00 0.  1.
         11    1    1    2    0    0 -0.32312535720E+02  0.36906033375E+02 -0.14384961234E+03  0.15198311167E+03  0.00000000000E+00 0. -1.
</event>
<event>
 7    1  0.2856214E-009  0.1046953E+03  0.7561462E-02  0.1270721E+00
          2   -1    0    0  501    0  0.00000000000E+00  0.00000000000E+00  0.14921497271E+03  0.14921497271E+03  0.00000000000E+00 0. -1.
         -2   -1    0    0    0  501 -0.00000000000E+00 -0.00000000000E+00 -0.85327587437E+02  0.85327587437E+02  0.00000000000E+00 0.  1.
         25    2    1    2    0    0 -0.29637165390E+02  0.18421500239E+01  0.53466263739E+02  0.13924028200E+03  0.12508980648E+03 0.  0.
          5    1    3    3  502    0  0.44750653702E+02 -0.16880596543E+02  0.37148642288E+02  0.60704773867E+02  0.41800000000E+01 0. -1.
         -5    1    3    3    0  502 -0.74387819092E+02  0.18722746567E+02  0.16317621451E+02  0.78535508135E+02  0.41800000000E+01 0. -1.
        -11    1    1    2    0    0  0.37883369743E+02  0.32084032287E+02 -0.15287089937E+02  0.51944489117E+02  0.00000000000E+00 0.  1.
         11    1    1    2    0    0 -0.82462043530E+01 -0.33926182311E+02  0.25708211475E+02  0.43357789031E+02  0.00000000000E+00 0. -1.
</event>
<event>
 7    1  0.2856214E-009  0.9267313E+02  0.7561462E-02  0.1296504E+00
          3   -1    0    0  501    0  0.00000000000E+00  0.00000000000E+00  0.10564077042E+03  0.10564077042E+03  0.00000000000E+00 0. -1.
         -3   -1    0    0    0  501 -0.00000000000E+00 -0.00000000000E+00 -0.13979636956E+03  0.13979636956E+03  0.00000000000E+00 0.  1.
         25    2    1    2    0    0  0.22638099174E+02  0.44648669176E+02 -0.35026844119E+02  0.13921226207E+03  0.12508871615E+03 0.  0.
          5    1    3    3  502    0  0.44952056904E+02 -0.31508444142E+02 -0.18173621261E+02  0.57976050072E+02  0.41800000000E+01 0.  1.
         -5    1    3    3    0  502 -0.22313957730E+02  0.76157113319E+02 -0.16853222858E+02  0.81236211995E+02  0.41800000000E+01 0.  1.
        -11    1    1    2    0    0 -0.12104834740E+02 -0.14504719613E+02 -0.45875550131E+02  0.49613304818E+02  0.00000000000E+00 0.  1.
         11    1    1    2    0    0 -0.10533264435E+02 -0.30143949564E+02  0.46746795114E+02  0.56611573096E+02  0.00000000000E+00 0. -1.
</event>
<event>
 7    1  0.2856214E-009  0.9474728E+02  0.7561462E-02  0.1291746E+00
         -2   -1    0    0    0  501 -0.00000000000E+00  0.00000000000E+00  0.10235389359E+02  0.10235389359E+02  0.00000000000E+00 0.  1.
          2   -1    0    0  501    0  0.00000000000E+00 -0.00000000000E+00 -0.19337403507E+04  0.19337403507E+04  0.00000000000E+00 0. -1.
         25    2    1    2    0    0  0.43038106215E+02  0.37321548070E+02 -0.15403106420E+04  0.15464309531E+04  0.12508653952E+03 0.  0.
          5    1    3    3  502    0  0.47305522744E+02 -0.14217438845E+02 -0.12821630890E+04  0.12831210415E+04  0.41800000000E+01 0. -1.
         -5    1    3    3    0  502 -0.42674165290E+01  0.51538986915E+02 -0.25814755304E+03  0.26330991162E+03  0.41800000000E+01 0. -1.
        -11    1    1    2    0    0 -0.34056408265E+01  0.18926203015E+02 -0.19456808505E+02  0.27356296299E+02  0.00000000000E+00 0.  1.
         11    1    1    2    0    0 -0.39632465388E+02 -0.56247751084E+02 -0.36373751083E+03  0.37018849064E+03  0.00000000000E+00 0. -1.
</event>
<event>
 7    1  0.2856214E-009  0.1538355E+03  0.7561462E-02  0.1195838E+00
         -2   -1    0    0    0  501 -0.00000000000E+00  0.00000000000E+00  0.24888205435E+02  0.24888205435E+02  0.00000000000E+00 0.  1.
          2   -1    0    0  501    0  0.00000000000E+00 -0.00000000000E+00 -0.13377957411E+04  0.13377957411E+04  0.00000000000E+00 0. -1.
         25    2    1    2    0    0  0.75392717421E+02 -0.97811743659E+02 -0.10109443150E+04  0.10261123851E+04  0.12508804778E+03 0.  0.
          5    1    3    3  502    0 -0.16057284517E+02 -0.60388976618E+02 -0.21160413663E+03  0.22067724831E+03  0.41800000000E+01 0. -1.
         -5    1    3    3    0  502  0.91450001938E+02 -0.37422767042E+02 -0.79934017840E+03  0.80543513678E+03  0.41800000000E+01 0. -1.
        -11    1    1    2    0    0 -0.91911665047E+02  0.79989846852E+02 -0.27162178273E+03  0.29769871116E+03  0.00000000000E+00 0.  1.
         11    1    1    2    0    0  0.16518947626E+02  0.17821896808E+02 -0.30341437951E+02  0.38872850338E+02  0.00000000000E+00 0. -1.
</event>
<event>
 7    1  0.2856214E-009  0.9836233E+02  0.7561462E-02  0.1283778E+00
          1   -1    0    0  501    0  0.00000000000E+00  0.00000000000E+00  0.28121280535E+03  0.28121280535E+03  0.00000000000E+00 0. -1.
         -1   -1    0    0    0  501 -0.00000000000E+00 -0.00000000000E+00 -0.56859315980E+02  0.56859315980E+02  0.00000000000E+00 0.  1.
         25    2    1    2    0    0  0.14724451888E+02  0.61647030730E+02  0.12490168341E+03  0.18779120004E+03  0.12509172001E+03 0.  0.
          5    1    3    3  502    0 -0.30490729820E+02 -0.33735814826E+01  0.99975296713E+02  0.10465943823E+03  0.41800000000E+01 0.  1.
         -5    1    3    3    0  502  0.45215181708E+02  0.65020612213E+02  0.24926386693E+02  0.83131761818E+02  0.41800000000E+01 0.  1.
        -11    1    1    2    0    0  0.22307378077E+02 -0.32062809375E+02  0.94949283449E+02  0.10266941750E+03  0.00000000000E+00 0. -1.
         11    1    1    2    0    0 -0.37031829965E+02 -0.29584221355E+02  0.45025225121E+01  0.47611503786E+02  0.00000000000E+00 0.  1.
</event>
<event>
 7    1  0.2856214E-009  0.9627060E+02  0.7561462E-02  0.1288340E+00
         -2   -1    0    0    0  501 -0.00000000000E+00  0.00000000000E+00  0.10758384991E+03  0.10758384991E+03  0.00000000000E+00 0.  1.
          2   -1    0    0  501    0  0.00000000000E+00 -0.00000000000E+00 -0.23117202699E+03  0.23117202699E+03  0.00000000000E+00 0. -1.
         25    2    1    2    0    0  0.26877787891E+02 -0.23742102259E+01 -0.18570272800E+03  0.22552291891E+03  0.12508809460E+03 0.  0.
          5    1    3    3  502    0  0.65241791021E+02 -0.37722130300E+02 -0.10418253860E+03  0.12865039510E+03  0.41800000000E+01 0. -1.
         -5    1    3    3    0  502 -0.38364003130E+02  0.35347920074E+02 -0.81520189402E+02  0.96872523813E+02  0.41800000000E+01 0. -1.
        -11    1    1    2    0    0 -0.43602592263E+01  0.29304082464E+02 -0.11418256111E+02  0.31750868999E+02  0.00000000000E+00 0. -1.
         11    1    1    2    0    0 -0.22517528665E+02 -0.26929872238E+02  0.73532807034E+02  0.81482088990E+02  0.00000000000E+00 0.  1.
</event>
<event>
 7    1  0.2856214E-009  0.2392394E+03  0.7561462E-02  0.1120301E+00
          2   -1    0    0  501    0  0.00000000000E+00  0.00000000000E+00  0.20506587360E+03  0.20506587360E+03  0.00000000000E+00 0. -1.
         -2   -1    0    0    0  501 -0.00000000000E+00 -0.00000000000E+00 -0.88458198433E+03  0.88458198433E+03  0.00000000000E+00 0.  1.
         25    2    1    2    0    0 -0.76901008171E+02 -0.20593874276E+03 -0.79103494598E+03  0.83048678715E+03  0.12508991586E+03 0.  0.
          5    1    3    3  502    0 -0.98763836433E+02 -0.11099580268E+03 -0.37980381186E+03  0.40785140861E+03  0.41800000000E+01 0.  1.
         -5    1    3    3    0  502  0.21862828262E+02 -0.94942940084E+02 -0.41123113412E+03  0.42263537854E+03  0.41800000000E+01 0.  1.
        -11    1    1    2    0    0  0.18401436363E+02  0.15086564743E+03  0.87172635870E+02  0.17520880365E+03  0.00000000000E+00 0. -1.
         11    1    1    2    0    0  0.58499571808E+02  0.55073095336E+02  0.24346199377E+02  0.83952267127E+02  0.00000000000E+00 0.  1.
</event>
<event>
 7    1  0.2856214E-009  0.5015394E+02  0.7561462E-02  0.1444513E+00
         -1   -1    0    0    0  501 -0.00000000000E+00  0.00000000000E+00  0.35984229474E+02  0.35984229474E+02  0.00000000000E+00 0. -1.
          1   -1    0    0  501    0  0.00000000000E+00 -0.00000000000E+00 -0.35755211840E+03  0.35755211840E+03  0.00000000000E+00 0.  1.
         25    2    1    2    0    0  0.16357079662E+02  0.26409429223E+02 -0.19908580138E+03  0.23716703800E+03  0.12509210845E+03 0.  0.
          5    1    3    3  502    0  0.30690210137E+02  0.28511200956E+02 -0.21271609456E+03  0.21684184758E+03  0.41800000000E+01 0.  1.
         -5    1    3    3    0  502 -0.14333130475E+02 -0.21017717328E+01  0.13630293176E+02  0.20325190422E+02  0.41800000000E+01 0.  1.
        -11    1    1    2    0    0  0.87771340478E+01 -0.89043296402E+01  0.12663797613E+02  0.17795980962E+02  0.00000000000E+00 0. -1.
         11    1    1    2    0    0 -0.25134213710E+02 -0.17505099583E+02 -0.13514588515E+03  0.13857332891E+03  0.00000000000E+00 0.  1.
</event>
<event>
 7    1  0.2856214E-009  0.1177568E+03  0.7561462E-02  0.1246844E+00
          2   -1    0    0  501    0  0.00000000000E+00  0.00000000000E+00  0.89970471248E+03  0.89970471248E+03  0.00000000000E+00 0. -1.
         -2   -1    0    0    0  501 -0.00000000000E+00 -0.00000000000E+00 -0.28290087714E+02  0.28290087714E+02  0.00000000000E+00 0.  1.
         25    2    1    2    0    0 -0.94935030665E+02  0.64618431119E+02  0.41824875820E+03  0.45140773005E+03  0.12509481733E+03 0.  0.
          5    1    3    3  502    0 -0.59391275021E+02  0.60100389880E+02  0.99407535956E+02  0.13053241366E+03  0.41800000000E+01 0. -1.
         -5    1    3    3    0  502 -0.35543755644E+02  0.45180412383E+01  0.31884122225E+03  0.32087531639E+03  0.41800000000E+01 0. -1.
        -11    1    1    2    0    0  0.35358633868E+02 -0.24538454674E+02  0.45441272661E+02  0.62588161882E+02  0.00000000000E+00 0.  1.
         11    1    1    2    0    0  0.59576396797E+02 -0.40079976444E+02  0.40772459390E+03  0.41399890826E+03  0.00000000000E+00 0. -1.
</event>
<event>
 7    1  0.2856214E-009  0.1069197E+03  0.7561462E-02  0.1266383E+00
         -2   -1    0    0    0  501 -0.00000000000E+00  0.00000000000E+00  0.11241941161E+03  0.11241941161E+03  0.00000000000E+00 0. -1.
          2   -1    0    0  501    0  0.00000000000E+00 -0.00000000000E+00 -0.11062123313E+03  0.11062123313E+03  0.00000000000E+00 0.  1.
         25    2    1    2    0    0  0.21356344845E+02  0.70630397200E+01 -0.14201394933E+02  0.12788999850E+03  0.12509273402E+03 0.  0.
          5    1    3    3  502    0 -0.27070868930E+02  0.51559198787E+02  0.66750064627E+01  0.58764028414E+02  0.41800000000E+01 0. -1.
         -5    1    3    3    0  502  0.48427213775E+02 -0.44496159067E+02 -0.20876401396E+02  0.69125970091E+02  0.41800000000E+01 0. -1.
        -11    1    1    2    0    0 -0.72685381545E+01  0.39884725139E+02  0.21391516912E+02  0.45839065676E+02  0.00000000000E+00 0.  1.
         11    1    1    2    0    0 -0.14087806690E+02 -0.46947764859E+02 -0.53919434967E+01  0.49311580559E+02  0.00000000000E+00 0. -1.
</event>
<event>
 7    1  0.2856214E-009  0.2174948E+03  0.7561462E-02  0.1135765E+00
         -2   -1    0    0    0  501 -0.00000000000E+00  0.00000000000E+00  0.24618063287E+02  0.24618063287E+02  0.00000000000E+00 0. -1.
          2   -1    0    0  501    0  0.00000000000E+00 -0.00000000000E+00 -0.35887816076E+04  0.35887816076E+04  0.00000000000E+00 0.  1.
         25    2    1    2    0    0 -0.16871649307E+03  0.11327378626E+03 -0.29562174593E+04  0.29658321729E+04  0.12507040210E+03 0.  0.
          5    1    3    3  502    0 -0.45249440979E+02 -0.19891955143E+02 -0.99005171925E+03  0.99129364013E+03  0.41800000000E+01 0. -1.
         -5    1    3    3    0  502 -0.12346705209E+03  0.13316574140E+03 -0.19661657401E+04  0.19745385328E+04  0.41800000000E+01 0. -1.
        -11    1    1    2    0    0  0.61299414762E+02 -0.32807474316E+02 -0.97362364113E+02  0.11963853295E+03  0.00000000000E+00 0. -1.
         11    1    1    2    0    0  0.10741707831E+03 -0.80466311941E+02 -0.51058372087E+03  0.52792896500E+03  0.00000000000E+00 0.  1.
</event>
<event>
 7    1  0.2856214E-009  0.6795584E+02  0.7561462E-02  0.1367186E+00
         -4   -1    0    0    0  501 -0.00000000000E+00  0.00000000000E+00  0.27039334784E+02  0.27039334784E+02  0.00000000000E+00 0.  1.
          4   -1    0    0  501    0  0.00000000000E+00 -0.00000000000E+00 -0.52572576811E+03  0.52572576811E+03  0.00000000000E+00 0. -1.
         25    2    1    2    0    0 -0.19557844830E+02 -0.13656857004E+02 -0.38633026898E+03  0.40677730647E+03  0.12509069228E+03 0.  0.
          5    1    3    3  502    0 -0.16993109091E+02  0.89091196704E+01  0.12035064889E+00  0.19637338266E+02  0.41800000000E+01 0.  1.
         -5    1    3    3    0  502 -0.25647357387E+01 -0.22565976674E+02 -0.38645061963E+03  0.38713996821E+03  0.41800000000E+01 0.  1.
        -11    1    1    2    0    0 -0.89664315988E+01  0.47833120964E+02 -0.60537354534E+02  0.77673519624E+02  0.00000000000E+00 0.  1.
         11    1    1    2    0    0  0.28524276428E+02 -0.34176263960E+02 -0.51818809815E+02  0.68314276800E+02  0.00000000000E+00 0. -1.
</event>
<event>
 7    1  0.2856214E-009  0.1068986E+03  0.7561462E-02  0.1266423E+00
         -4   -1    0    0    0  501 -0.00000000000E+00  0.00000000000E+00  0.39766517290E+03  0.39766517290E+03  0.00000000000E+00 0. -1.
          4   -1    0    0  501    0  0.00000000000E+00 -0.00000000000E+00 -0.34510574774E+02  0.34510574774E+02  0.00000000000E+00 0.  1.
         25    2    1    2    0    0 -0.42303177494E+02  0.45010129006E+01  0.20129067346E+03  0.24078173936E+03  0.12509233727E+03 0.  0.
          5    1    3    3  502    0 -0.83407203075E+02  0.20560143208E+02  0.15073149113E+03  0.17354231712E+03  0.41800000000E+01 0.  1.
         -5    1    3    3    0  502  0.41104025581E+02 -0.16059130307E+02  0.50559182322E+02  0.67239422233E+02  0.41800000000E+01 0.  1.
        -11    1    1    2    0    0  0.38136602082E+02 -0.35550417007E+02  0.14840640473E+03  0.15729810403E+03  0.00000000000E+00 0. -1.
         11    1    1    2    0    0  0.41665754129E+01  0.31049404106E+02  0.13457519943E+02  0.34095904285E+02  0.00000000000E+00 0.  1.
</event>
<event>
 7    1  0.2856214E-009  0.1888997E+03  0.7561462E-02  0.1159457E+00
         -1   -1    0    0    0  501 -0.00000000000E+00  0.00000000000E+00  0.56400730992E+03  0.56400730992E+03  0.00000000000E+00 0.  1.
          1   -1    0    0  501    0  0.00000000000E+00 -0.00000000000E+00 -0.75153637398E+02  0.75153637398E+02  0.00000000000E+00 0. -1.
         25    2    1    2    0    0  0.16240310606E+03 -0.92624894345E+01  0.35544217918E+03  0.41042328914E+03  0.12509025128E+03 0.  0.
          5    1    3    3  502    0  0.20264175293E+02  0.47508074203E+02  0.99269794768E+02  0.11198043788E+03  0.41800000000E+01 0. -1.
         -5    1    3    3    0  502  0.14213893077E+03 -0.56770563637E+02  0.25617238441E+03  0.29844285126E+03  0.41800000000E+01 0. -1.
        -11    1    1    2    0    0 -0.13700782993E+03  0.29794801651E+02  0.68443700551E+02  0.15602376682E+03  0.00000000000E+00 0. -1.
         11    1    1    2    0    0 -0.25395276130E+02 -0.20532312217E+02  0.64967792797E+02  0.72713891353E+02  0.00000000000E+00 0.  1.
</event>
<event>
 7    1  0.3059876E-009  0.9916429E+02  0.7561462E-02  0.1282063E+00
          3   -1    0    0  501    0  0.00000000000E+00  0.00000000000E+00  0.34263658927E+03  0.34263658927E+03  0.00000000000E+00 0. -1.
         -3   -1    0    0    0  501 -0.00000000000E+00 -0.00000000000E+00 -0.55127086351E+02  0.55127086351E+02  0.00000000000E+00 0.  1.
         25    2    1    2    0    0  0.25080972462E+02  0.31724700688E+02  0.26419360395E+03  0.29509586090E+03  0.12509114652E+03 0.  0.
          5    1    3    3  502    0 -0.48682992164E+02  0.21754155983E+02  0.78439901847E+02  0.94939810566E+02  0.41800000000E+01 0.  1.
         -5    1    3    3    0  502  0.73763964626E+02  0.99705447050E+01  0.18575370211E+03  0.20015605033E+03  0.41800000000E+01 0.  1.
        -11    1    1    2    0    0 -0.28564571479E+01  0.16735304969E+02 -0.25332035750E+02  0.30494947370E+02  0.00000000000E+00 0.  1.
         11    1    1    2    0    0 -0.22224515314E+02 -0.48460005657E+02  0.48647934712E+02  0.72172867346E+02  0.00000000000E+00 0. -1.
</event>
<event>
 7    1  0.2856214E-009  0.1139255E+03  0.7561462E-02  0.1253468E+00
         -2   -1    0    0    0  501 -0.00000000000E+00  0.00000000000E+00  0.25608051188E+02  0.25608051188E+02  0.00000000000E+00 0.  1.
          2   -1    0    0  501    0  0.00000000000E+00 -0.00000000000E+00 -0.61579854136E+03  0.61579854136E+03  0.00000000000E+00 0. -1.
         25    2    1    2    0    0 -0.34775476240E+02 -0.39672388791E+01 -0.45445010933E+03  0.47265007585E+03  0.12509244422E+03 0.  0.
          5    1    3    3  502    0 -0.79747267240E+02 -0.17237703478E+02 -0.25733561413E+03  0.26999232536E+03  0.41800000000E+01 0. -1.
         -5    1    3    3    0  502  0.44971791000E+02  0.13270464599E+02 -0.19711449520E+03  0.20265775049E+03  0.41800000000E+01 0. -1.
        -11    1    1    2    0    0 -0.19377197549E+02 -0.29592117879E+02 -0.61328699523E+02  0.70798154005E+02  0.00000000000E+00 0. -1.
         11    1    1    2    0    0  0.54152673788E+02  0.33559356758E+02 -0.74411681321E+02  0.97958362693E+02  0.00000000000E+00 0.  1.
</event>
<event>
 7    1  0.2856214E-009  0.1526957E+03  0.7561462E-02  0.1197199E+00
         -4   -1    0    0    0  501 -0.00000000000E+00  0.00000000000E+00  0.34123721083E+03  0.34123721083E+03  0.00000000000E+00 0.  1.
          4   -1    0    0  501    0  0.00000000000E+00 -0.00000000000E+00 -0.84491506931E+02  0.84491506931E+02  0.00000000000E+00 0. -1.
         25    2    1    2    0    0 -0.88968264550E+01  0.12603768048E+03  0.10118382122E+03  0.20457300513E+03  0.12508916153E+03 0.  0.
          5    1    3    3  502    0 -0.44580298228E+02  0.12813506316E+03  0.99950479392E+02  0.16856324668E+03  0.41800000000E+01 0.  1.
         -5    1    3    3    0  502  0.35683471773E+02 -0.20973826786E+01  0.12333418252E+01  0.36009758455E+02  0.41800000000E+01 0.  1.
        -11    1    1    2    0    0  0.22371940660E+02 -0.11199431887E+03  0.71212236519E+02  0.13458979834E+03  0.00000000000E+00 0.  1.
         11    1    1    2    0    0 -0.13475114205E+02 -0.14043361606E+02  0.84349646164E+02  0.86565914285E+02  0.00000000000E+00 0. -1.
</event>
<event>
 7    1  0.2856214E-009  0.1919274E+03  0.7561462E-02  0.1156734E+00
          1   -1    0    0  501    0  0.00000000000E+00  0.00000000000E+00  0.25670150884E+03  0.25670150884E+03  0.00000000000E+00 0. -1.
         -1   -1    0    0    0  501 -0.00000000000E+00 -0.00000000000E+00 -0.19139285082E+03  0.19139285082E+03  0.00000000000E+00 0.  1.
         25    2    1    2    0    0 -0.15655462851E+03 -0.96747924921E+02  0.92502032863E+02  0.24097831778E+03  0.12507761938E+03 0.  0.
          5    1    3    3  502    0 -0.19510376828E+02 -0.44232447817E+02  0.80077280484E+02  0.93632299414E+02  0.41800000000E+01 0. -1.
         -5    1    3    3    0  502 -0.13704425169E+03 -0.52515477104E+02  0.12424752380E+02  0.14734601836E+03  0.41800000000E+01 0. -1.
        -11    1    1    2    0    0  0.76317489572E+02  0.23467339457E+02  0.28792263769E+02  0.84876791225E+02  0.00000000000E+00 0.  1.
         11    1    1    2    0    0  0.80237138943E+02  0.73280585464E+02 -0.55985638615E+02  0.12223925066E+03  0.00000000000E+00 0. -1.
</event>
<event>
 7    1  0.2856214E-009  0.1075295E+03  0.7561462E-02  0.1265215E+00
          2   -1    0    0  501    0  0.00000000000E+00  0.00000000000E+00  0.34412734252E+03  0.34412734252E+03  0.00000000000E+00 0. -1.
         -2   -1    0    0    0  501 -0.00000000000E+00 -0.00000000000E+00 -0.44971371559E+02  0.44971371559E+02  0.00000000000E+00 0.  1.
         25    2    1    2    0    0 -0.31501434266E+02 -0.48646615053E+02  0.13568542565E+03  0.19342710151E+03  0.12507867662E+03 0.  0.
          5    1    3    3  502    0  0.20454635125E+02  0.22891463228E+02 -0.52171680760E+00  0.30986380480E+02  0.41800000000E+01 0.  1.
         -5    1    3    3    0  502 -0.51956069391E+02 -0.71538078281E+02  0.13620714246E+03  0.16244072103E+03  0.41800000000E+01 0.  1.
        -11    1    1    2    0    0  0.12105116492E+02  0.67462809978E+02  0.68385983877E+02  0.96821523259E+02  0.00000000000E+00 0.  1.
         11    1    1    2    0    0  0.19396317774E+02 -0.18816194924E+02  0.95084561429E+02  0.98850089311E+02  0.00000000000E+00 0. -1.
</event>
<event>
 7    1  0.2856214E-009  0.1272602E+03  0.7561462E-02  0.1231579E+00
          4   -1    0    0  501    0  0.00000000000E+00  0.00000000000E+00  0.71261135850E+02  0.71261135850E+02  0.00000000000E+00 0.  1.
         -4   -1    0    0    0  501 -0.00000000000E+00 -0.00000000000E+00 -0.37532250023E+03  0.37532250023E+03  0.00000000000E+00 0. -1.
         25    2    1    2    0    0 -0.53753601626E+02  0.65469210824E+02 -0.42038091097E+02  0.15681179068E+03  0.12508824621E+03 0.  0.
          5    1    3    3  502    0 -0.18447175214E+02 -0.34471155173E+02 -0.31179471318E+02  0.50181576739E+02  0.41800000000E+01 0. -1.
         -5    1    3    3    0  502 -0.35306426412E+02  0.99940365998E+02 -0.10858619779E+02  0.10663021394E+03  0.41800000000E+01 0. -1.
        -11    1    1    2    0    0  0.70476707649E+02 -0.50762618473E+02 -0.24958049043E+03  0.26426167137E+03  0.00000000000E+00 0. -1.
         11    1    1    2    0    0 -0.16723106023E+02 -0.14706592351E+02 -0.12442782854E+02  0.25510174025E+02  0.00000000000E+00 0.  1.
</event>
<event>
 7    1  0.2856214E-009  0.7301855E+02  0.7561462E-02  0.1350119E+00
          1   -1    0    0  501    0  0.00000000000E+00  0.00000000000E+00  0.16012502595E+03  0.16012502595E+03  0.00000000000E+00 0. -1.
         -1   -1    0    0    0  501 -0.00000000000E+00 -0.00000000000E+00 -0.79999402709E+02  0.79999402709E+02  0.00000000000E+00 0.  1.
         25    2    1    2    0    0  0.28649006828E+02 -0.13315464158E+01  0.59915419291E+02  0.14162822084E+03  0.12508459882E+03 0.  0.
          5    1    3    3  502    0  0.42823614790E+02 -0.17174491451E+02  0.91946236933E+02  0.10295828294E+03  0.41800000000E+01 0. -1.
         -5    1    3    3    0  502 -0.14174607963E+02  0.15842945035E+02 -0.32030817642E+02  0.38669937899E+02  0.41800000000E+01 0. -1.
        -11    1    1    2    0    0 -0.32391898262E+02 -0.31391433696E+02  0.39815999652E+02  0.60166194917E+02  0.00000000000E+00 0. -1.
         11    1    1    2    0    0  0.37428914348E+01  0.32722980112E+02 -0.19605795703E+02  0.38330012899E+02  0.00000000000E+00 0.  1.
</event>
<event>
 7    1  0.2856214E-009  0.1010861E+03  0.7561462E-02  0.1278029E+00
         -2   -1    0    0    0  501 -0.00000000000E+00  0.00000000000E+00  0.12661710399E+03  0.12661710399E+03  0.00000000000E+00 0.  1.
          2   -1    0    0  501    0  0.00000000000E+00 -0.00000000000E+00 -0.17026375916E+03  0.17026375916E+03  0.00000000000E+00 0. -1.
         25    2    1    2    0    0 -0.32923157167E+02 -0.72567679662E+02  0.34283915961E+02  0.15222576710E+03  0.12508914767E+03 0.  0.
          5    1    3    3  502    0 -0.64287077315E+01 -0.21792232301E+02 -0.47194095707E+02  0.52545073426E+02  0.41800000000E+01 0. -1.
         -5    1    3    3    0  502 -0.26494449436E+02 -0.50775447361E+02  0.81478011668E+02  0.99680693672E+02  0.41800000000E+01 0. -1.
        -11    1    1    2    0    0  0.34291729319E+02 -0.12550617737E+02 -0.19441371855E+02  0.41369162970E+02  0.00000000000E+00 0.  1.
         11    1    1    2    0    0 -0.13685721515E+01  0.85118297399E+02 -0.58489199275E+02  0.10328593309E+03  0.00000000000E+00 0. -1.
</event>
<event>
 7    1  0.2856214E-009  0.1260991E+03  0.7561462E-02  0.1233362E+00
          2   -1    0    0  501    0  0.00000000000E+00  0.00000000000E+00  0.46225636590E+03  0.46225636590E+03  0.00000000000E+00 0. -1.
         -2   -1    0    0    0  501 -0.00000000000E+00 -0.00000000000E+00 -0.50337198030E+02  0.50337198030E+02  0.00000000000E+00 0.  1.
         25    2    1    2    0    0  0.89129598158E+02 -0.83182319496E+01  0.31877823182E+03  0.35395100276E+03  0.12509385684E+03 0.  0.
          5    1    3    3  502    0  0.61441907410E+02 -0.47432142311E+02  0.28438337836E+03  0.29481569565E+03  0.41800000000E+01 0.  1.
         -5    1    3    3    0  502  0.27687690748E+02  0.39113910361E+02  0.34394853455E+02  0.59135307109E+02  0.41800000000E+01 0.  1.
        -11    1    1    2    0    0 -0.16427522676E+02  0.42838424321E+02  0.47853262523E+02  0.66294259433E+02  0.00000000000E+00 0.  1.
         11    1    1    2    0    0 -0.72702075482E+02 -0.34520192372E+02  0.45287673527E+02  0.92348301739E+02  0.00000000000E+00 0. -1.
</event>
<event>
 7    1  0.2856214E-009  0.8797859E+02  0.7561462E-02  0.1307822E+00
         -1   -1    0    0    0  501 -0.00000000000E+00  0.00000000000E+00  0.78912129433E+02  0.78912129433E+02  0.00000000000E+00 0.  1.
          1   -1    0    0  501    0  0.00000000000E+00 -0.00000000000E+00 -0.28571014662E+03  0.28571014662E+03  0.00000000000E+00 0. -1.
         25    2    1    2    0    0  0.54593187499E+02 -0.36976959658E+02 -0.15901564972E+02  0.14230094881E+03  0.12509591759E+03 0.  0.
          5    1    3    3  502    0  0.34830574161E+01  0.24671291054E+02 -0.49330302424E+02  0.55423419494E+02  0.41800000000E+01 0. -1.
         -5    1    3    3    0  502  0.51110130083E+02 -0.61648250712E+02  0.33428737452E+02  0.86877529319E+02  0.41800000000E+01 0. -1.
        -11    1    1    2    0    0 -0.20953001868E+02  0.60657773742E+00  0.39017430713E+01  0.21321815655E+02  0.00000000000E+00 0.  1.
         11    1    1    2    0    0 -0.33640185631E+02  0.36370381921E+02 -0.19479819528E+03  0.20099951158E+03  0.00000000000E+00 0. -1.
</event>
<event>
 7    1  0.2856214E-009  0.1300988E+03  0.7561462E-02  0.1227309E+00
          2   -1    0    0  501    0  0.00000000000E+00  0.00000000000E+00  0.59807207936E+03  0.59807207936E+03  0.00000000000E+00 0. -1.
         -2   -1    0    0    0  501 -0.00000000000E+00 -0.00000000000E+00 -0.30902736703E+02  0.30902736703E+02  0.00000000000E+00 0.  1.
         25    2    1    2    0    0 -0.66083661156E+02 -0.42349272092E+02  0.23220124825E+03  0.27518265039E+03  0.12509020852E+03 0.  0.
          5    1    3    3  502    0 -0.66508207329E+02 -0.82923992603E+02  0.17764334620E+03  0.20706124949E+03  0.41800000000E+01 0. -1.
         -5    1    3    3    0  502  0.42454617344E+00  0.40574720511E+02  0.54557902052E+02  0.68121400898E+02  0.41800000000E+01 0. -1.
        -11    1    1    2    0    0 -0.97956113299E+01 -0.14996378755E+02  0.38991151990E+02  0.42908685724E+02  0.00000000000E+00 0. -1.
         11    1    1    2    0    0  0.75879272486E+02  0.57345650847E+02  0.29597694241E+03  0.31088347995E+03  0.00000000000E+00 0.  1.
</event>
<event>
 7    1  0.2856214E-009  0.1157200E+03  0.7561462E-02  0.1250329E+00
          2   -1    0    0  501    0  0.00000000000E+00  0.00000000000E+00  0.10485946417E+04  0.10485946417E+04  0.00000000000E+00 0. -1.
         -2   -1    0    0    0  501 -0.00000000000E+00 -0.00000000000E+00 -0.18110809109E+02  0.18110809109E+02  0.00000000000E+00 0.  1.
         25    2    1    2    0    0 -0.57909784950E+02 -0.53874883561E+02  0.69060962941E+03  0.70629034834E+03  0.12509336377E+03 0.  0.
          5    1    3    3  502    0 -0.59833021223E+01 -0.75827801751E+02  0.23145892206E+03  0.24367265013E+03  0.41800000000E+01 0. -1.
         -5    1    3    3    0  502 -0.51926482828E+02  0.21952918191E+02  0.45915070735E+03  0.46261769821E+03  0.41800000000E+01 0. -1.
        -11    1    1    2    0    0  0.62837282474E+02  0.22152332224E+02  0.30818964002E+03  0.31530953698E+03  0.00000000000E+00 0. -1.
         11    1    1    2    0    0 -0.49274975240E+01  0.31722551337E+02  0.31684563149E+02  0.45105565478E+02  0.00000000000E+00 0.  1.
</event>
<event>
 7    1  0.2856214E-009  0.7067671E+02  0.7561462E-02  0.1357807E+00
         -1   -1    0    0    0  501 -0.00000000000E+00  0.00000000000E+00  0.23372111662E+03  0.23372111662E+03  0.00000000000E+00 0.  1.
          1   -1    0    0  501    0  0.00000000000E+00 -0.00000000000E+00 -0.58087741752E+02  0.58087741752E+02  0.00000000000E+00 0. -1.
         25    2    1    2    0    0  0.25379292789E+02 -0.36106836571E+02  0.78053013236E+02  0.15390779047E+03  0.12509005933E+03 0.  0.
          5    1    3    3  502    0  0.10333891419E+02 -0.36461616510E+02 -0.27623911854E+02  0.47082817423E+02  0.41800000000E+01 0. -1.
         -5    1    3    3    0  502  0.15045401371E+02  0.35477993909E+00  0.10567692509E+03  0.10682497305E+03  0.41800000000E+01 0. -1.
        -11    1    1    2    0    0 -0.12874452627E+02 -0.23449663343E+02  0.61714879736E+02  0.67263397343E+02  0.00000000000E+00 0.  1.
         11    1    1    2    0    0 -0.12504840163E+02  0.59556499914E+02  0.35865481895E+02  0.70637670552E+02  0.00000000000E+00 0. -1.
</event>
<event>
 7    1  0.2856214E-009  0.1057892E+03  0.7561462E-02  0.1268572E+00
         -3   -1    0    0    0  501 -0.00000000000E+00  0.00000000000E+00  0.35878151337E+03  0.35878151337E+03  0.00000000000E+00 0.  1.
          3   -1    0    0  501    0  0.00000000000E+00 -0.00000000000E+00 -0.60177258615E+02  0.60177258615E+02  0.00000000000E+00 0. -1.
         25    2    1    2    0    0  0.52552913659E+02  0.37457692040E+02  0.26933072481E+03  0.30389284853E+03  0.12508771576E+03 0.  0.
          5    1    3    3  502    0 -0.39666841939E+01 -0.28699935829E+02  0.11003127222E+02  0.31272385722E+02  0.41800000000E+01 0.  1.
         -5    1    3    3    0  502  0.56519597853E+02  0.66157627869E+02  0.25832759759E+03  0.27262046281E+03  0.41800000000E+01 0.  1.
        -11    1    1    2    0    0 -0.45769190982E+02 -0.57812510437E+02  0.46823266178E+02  0.87347143409E+02  0.00000000000E+00 0.  1.
         11    1    1    2    0    0 -0.67837226766E+01  0.20354818398E+02 -0.17549736232E+02  0.27718780045E+02  0.00000000000E+00 0. -1.
</event>
<event>
 7    1  0.2856214E-009  0.8500613E+02  0.7561462E-02  0.1315417E+00
         -2   -1    0    0    0  501 -0.00000000000E+00  0.00000000000E+00  0.19484709069E+03  0.19484709069E+03  0.00000000000E+00 0.  1.
          2   -1    0    0  501    0  0.00000000000E+00 -0.00000000000E+00 -0.67832511103E+02  0.67832511103E+02  0.00000000000E+00 0. -1.
         25    2    1    2    0    0 -0.26929707663E+02  0.22874761871E+00  0.41265976776E+02  0.13444578800E+03  0.12509007791E+03 0.  0.
          5    1    3    3  502    0 -0.42620917399E+02  0.27541090645E+02  0.73349908240E+02  0.89290177022E+02  0.41800000000E+01 0.  1.
         -5    1    3    3    0  502  0.15691209736E+02 -0.27312343026E+02 -0.32083931464E+02  0.45155610978E+02  0.41800000000E+01 0.  1.
        -11    1    1    2    0    0 -0.22418862663E+02  0.23573231493E+02  0.58746531970E+02  0.67152495595E+02  0.00000000000E+00 0.  1.
         11    1    1    2    0    0  0.49348570326E+02 -0.23801979112E+02  0.27002070838E+02  0.61081318194E+02  0.00000000000E+00 0. -1.
</event>
<event>
 7    1  0.2856214E-009  0.2015063E+03  0.7561462E-02  0.1148474E+00
          2   -1    0    0  501    0  0.00000000000E+00  0.00000000000E+00  0.42548795656E+03  0.42548795656E+03  0.00000000000E+00 0. -1.
         -2   -1    0    0    0  501 -0.00000000000E+00 -0.00000000000E+00 -0.10543093462E+03  0.10543093462E+03  0.00000000000E+00 0.  1.
         25    2    1    2    0    0 -0.16679022713E+03  0.70333221996E+02  0.17818526996E+03  0.28313061247E+03  0.12508881368E+03 0.  0.
          5    1    3    3  502    0 -0.34054834546E+02  0.78812444548E+02  0.56927914432E+02  0.10309894768E+03  0.41800000000E+01 0.  1.
         -5    1    3    3    0  502 -0.13273539258E+03 -0.84792225517E+01  0.12125735552E+03  0.18003166479E+03  0.41800000000E+01 0.  1.
        -11    1    1    2    0    0  0.67503124869E+02 -0.11212368866E+02  0.10713668363E+03  0.12712457694E+03  0.00000000000E+00 0. -1.
         11    1    1    2    0    0  0.99287102260E+02 -0.59120853131E+02  0.34735068357E+02  0.12066370177E+03  0.00000000000E+00 0.  1.
</event>
<event>
 7    1  0.2856214E-009  0.1503774E+03  0.7561462E-02  0.1200010E+00
          2   -1    0    0  501    0  0.00000000000E+00  0.00000000000E+00  0.69798560940E+03  0.69798560940E+03  0.00000000000E+00 0. -1.
         -2   -1    0    0    0  501 -0.00000000000E+00 -0.00000000000E+00 -0.44276889241E+02  0.44276889241E+02  0.00000000000E+00 0.  1.
         25    2    1    2    0    0  0.13561818739E+03  0.13270427081E+02  0.37430349180E+03  0.41751440836E+03  0.12508709058E+03 0.  0.
          5    1    3    3  502    0  0.94356299885E+02 -0.35050970030E+02  0.31418101821E+03  0.32993767052E+03  0.41800000000E+01 0.  1.
         -5    1    3    3    0  502  0.41261887508E+02  0.48321397112E+02  0.60122473594E+02  0.87576737840E+02  0.41800000000E+01 0.  1.
        -11    1    1    2    0    0 -0.96596477362E+02 -0.75015051269E+01  0.93293805555E+02  0.13450236493E+03  0.00000000000E+00 0.  1.
         11    1    1    2    0    0 -0.39021710031E+02 -0.57689219544E+01  0.18611142280E+03  0.19024572534E+03  0.00000000000E+00 0. -1.
</event>
<event>
 7    1  0.2856214E-009  0.1412125E+03  0.7561462E-02  0.1211707E+00
          3   -1    0    0  501    0  0.00000000000E+00  0.00000000000E+00  0.17771429666E+03  0.17771429666E+03  0.00000000000E+00 0. -1.
         -3   -1    0    0    0  501 -0.00000000000E+00 -0.00000000000E+00 -0.11839153363E+03  0.11839153363E+03  0.00000000000E+00 0.  1.
         25    2    1    2    0    0 -0.78232972167E+01  0.92397200244E+02  0.59772978767E+02  0.16678425572E+03  0.12508290200E+03 0.  0.
          5    1    3    3  502    0 -0.18261037491E+02  0.12111687255E+03  0.35674084542E+02  0.12764354670E+03  0.41800000000E+01 0.  1.
         -5    1    3    3    0  502  0.10437740274E+02 -0.28719672308E+02  0.24098894225E+02  0.39140709018E+02  0.41800000000E+01 0.  1.
        -11    1    1    2    0    0 -0.19135493802E+02  0.11068225226E+02 -0.33725057298E+01  0.22361720139E+02  0.00000000000E+00 0. -1.
         11    1    1    2    0    0  0.26958791018E+02 -0.10346542547E+03  0.29222899940E+01  0.10695985443E+03  0.00000000000E+00 0.  1.
</event>
<event>
 7    1  0.2856214E-009  0.8677338E+02  0.7561462E-02  0.1310859E+00
         -1   -1    0    0    0  501 -0.00000000000E+00  0.00000000000E+00  0.15681082239E+03  0.15681082239E+03  0.00000000000E+00 0.  1.
          1   -1    0    0  501    0  0.00000000000E+00 -0.00000000000E+00 -0.95905239110E+02  0.95905239110E+02  0.00000000000E+00 0. -1.
         25    2    1    2    0    0 -0.34366498464E+02  0.28622357823E+02  0.50945187668E+02  0.14227763816E+03  0.12508884278E+03 0.  0.
          5    1    3    3  502    0 -0.42206232924E+02  0.33235256084E+02 -0.29351707809E+02  0.61359135391E+02  0.41800000000E+01 0.  1.
         -5    1    3    3    0  502  0.78397344594E+01 -0.46128982615E+01  0.80296895477E+02  0.80918502767E+02  0.41800000000E+01 0.  1.
        -11    1    1    2    0    0 -0.98138197651E+00  0.35989994508E+02 -0.76923421748E+00  0.36011588920E+02  0.00000000000E+00 0.  1.
         11    1    1    2    0    0  0.35347880441E+02 -0.64612352331E+02  0.10729629825E+02  0.74426834418E+02  0.00000000000E+00 0. -1.
</event>
<event>
 7    1  0.2856214E-009  0.1104988E+03  0.7561462E-02  0.1259649E+00
          2   -1    0    0  501    0  0.00000000000E+00  0.00000000000E+00  0.40112630694E+02  0.40112630694E+02  0.00000000000E+00 0. -1.
         -2   -1    0    0    0  501 -0.00000000000E+00 -0.00000000000E+00 -0.38969601276E+03  0.38969601276E+03  0.00000000000E+00 0.  1.
         25    2    1    2    0    0  0.17242332921E+01 -0.35217934986E+02 -0.29458269523E+03  0.32197829603E+03  0.12509109826E+03 0.  0.
          5    1    3    3  502    0 -0.14439811979E+02  0.44674016408E+02 -0.12972819589E+03  0.13802591468E+03  0.41800000000E+01 0. -1.
         -5    1    3    3    0  502  0.16164045271E+02 -0.79891951395E+02 -0.16485449933E+03  0.18395238136E+03  0.41800000000E+01 0. -1.
        -11    1    1    2    0    0 -0.40669719034E+02  0.14461328259E+01 -0.18723404534E+02  0.44796017945E+02  0.00000000000E+00 0.  1.
         11    1    1    2    0    0  0.38945485741E+02  0.33771802160E+02 -0.36277282302E+02  0.63034329472E+02  0.00000000000E+00 0. -1.
</event>
<event>
 7    1  0.2856214E-009  0.1994064E+03  0.7561462E-02  0.1150241E+00
         -2   -1    0    0    0  501 -0.00000000000E+00  0.00000000000E+00  0.40072968577E+02  0.40072968577E+02  0.00000000000E+00 0.  1.
          2   -1    0    0  501    0  0.00000000000E+00 -0.00000000000E+00 -0.12481204252E+04  0.12481204252E+04  0.00000000000E+00 0. -1.
         25    2    1    2    0    0 -0.10285292980E+02 -0.19425012562E+03 -0.58511114598E+03  0.62915917231E+03  0.12508921777E+03 0.  0.
          5    1    3    3  502    0  0.14464097235E+01 -0.12585615388E+03 -0.18978259839E+03  0.22776472646E+03  0.41800000000E+01 0.  1.
         -5    1    3    3    0  502 -0.11731702704E+02 -0.68393971744E+02 -0.39532854759E+03  0.40139444585E+03  0.41800000000E+01 0.  1.
        -11    1    1    2    0    0 -0.21905878139E+02  0.38297376747E+02 -0.63124704922E+02  0.77014835806E+02  0.00000000000E+00 0.  1.
         11    1    1    2    0    0  0.32191171120E+02  0.15595274887E+03 -0.55981160572E+03  0.58201938566E+03  0.00000000000E+00 0. -1.
</event>
<event>
 7    1  0.2856214E-009  0.1843452E+03  0.7561462E-02  0.1163663E+00
          2   -1    0    0  501    0  0.00000000000E+00  0.00000000000E+00  0.90387752236E+02  0.90387752236E+02  0.00000000000E+00 0. -1.
         -2   -1    0    0    0  501 -0.00000000000E+00 -0.00000000000E+00 -0.47171010476E+03  0.47171010476E+03  0.00000000000E+00 0.  1.
         25    2    1    2    0    0 -0.15967171851E+03  0.64263436332E+02 -0.23923674090E+03  0.32016259681E+03  0.12508006739E+03 0.  0.
          5    1    3    3  502    0 -0.56957771243E+02  0.30454222174E+02 -0.19102668461E+03  0.20169361415E+03  0.41800000000E+01 0.  1.
         -5    1    3    3    0  502 -0.10271394727E+03  0.33809214158E+02 -0.48210056286E+02  0.11846898266E+03  0.41800000000E+01 0.  1.
        -11    1    1    2    0    0  0.70436348492E+02 -0.78410230648E+02 -0.79633002597E+02  0.13210169780E+03  0.00000000000E+00 0.  1.
         11    1    1    2    0    0  0.89235370022E+02  0.14146794316E+02 -0.62452609033E+02  0.10983356239E+03  0.00000000000E+00 0. -1.
</event>
<event>
 7    1  0.2856214E-009  0.6279829E+02  0.7561462E-02  0.1386450E+00
          2   -1    0    0  501    0  0.00000000000E+00  0.00000000000E+00  0.57026033369E+02  0.57026033369E+02  0.00000000000E+00 0.  1.
         -2   -1    0    0    0  501 -0.00000000000E+00 -0.00000000000E+00 -0.21598264954E+03  0.21598264954E+03  0.00000000000E+00 0. -1.
         25    2    1    2    0    0 -0.17370149098E+02  0.11721707093E+02 -0.11267543466E+03  0.16964903481E+03  0.12508365577E+03 0.  0.
          5    1    3    3  502    0  0.84338039314E+01  0.17362181054E+02  0.23600608807E+02  0.30773942155E+02  0.41800000000E+01 0.  1.
         -5    1    3    3    0  502 -0.25803953030E+02 -0.56404739609E+01 -0.13627604346E+03  0.13887509266E+03  0.41800000000E+01 0.  1.
        -11    1    1    2    0    0 -0.29310570320E+02  0.45665977410E+01 -0.45005538495E+02  0.53902336151E+02  0.00000000000E+00 0. -1.
         11    1    1    2    0    0  0.46680719418E+02 -0.16288304834E+02 -0.12756430193E+01  0.49457311945E+02  0.00000000000E+00 0.  1.
</event>
<event>
 7    1  0.2856214E-009  0.1124120E+03  0.7561462E-02  0.1256167E+00
          2   -1    0    0  501    0  0.00000000000E+00  0.00000000000E+00  0.51464660117E+03  0.51464660117E+03  0.00000000000E+00 0. -1.
         -2   -1    0    0    0  501 -0.00000000000E+00 -0.00000000000E+00 -0.32728362490E+02  0.32728362490E+02  0.00000000000E+00 0.  1.
         25    2    1    2    0    0  0.50749438786E+02  0.12606509538E+02  0.40895799784E+03  0.43084522394E+03  0.12508610386E+03 0.  0.
          5    1    3    3  502    0  0.90559108355E+02 -0.63078376880E+01  0.25845490246E+03  0.27396559990E+03  0.41800000000E+01 0.  1.
         -5    1    3    3    0  502 -0.39809669569E+02  0.18914347226E+02  0.15050309537E+03  0.15687962404E+03  0.41800000000E+01 0.  1.
        -11    1    1    2    0    0 -0.72657072076E+01 -0.38425036999E+02  0.22631004224E+02  0.45182256714E+02  0.00000000000E+00 0.  1.
         11    1    1    2    0    0 -0.43483731578E+02  0.25818527461E+02  0.50329236617E+02  0.71347483002E+02  0.00000000000E+00 0. -1.
</event>
<event>
 7    1  0.2856214E-009  0.1074621E+03  0.7561462E-02  0.1265343E+00
          1   -1    0    0  501    0  0.00000000000E+00  0.00000000000E+00  0.16662571774E+03  0.16662571774E+03  0.00000000000E+00 0. -1.
         -1   -1    0    0    0  501 -0.00000000000E+00 -0.00000000000E+00 -0.97500165262E+02  0.97500165262E+02  0.00000000000E+00 0.  1.
         25    2    1    2    0    0  0.11835381182E+02  0.56450884258E+02  0.99355083752E+01  0.13810645887E+03  0.12509157075E+03 0.  0.
          5    1    3    3  502    0  0.55306041874E+02  0.55069441290E+01  0.35744801867E+02  0.66213653893E+02  0.41800000000E+01 0.  1.
         -5    1    3    3    0  502 -0.43470660692E+02  0.50943940129E+02 -0.25809293492E+02  0.71892804977E+02  0.41800000000E+01 0.  1.
        -11    1    1    2    0    0  0.23595307948E+02  0.20602207201E+01 -0.12626344129E+02  0.26840410441E+02  0.00000000000E+00 0.  1.
         11    1    1    2    0    0 -0.35430689130E+02 -0.58511104978E+02  0.71816388233E+02  0.99179013692E+02  0.00000000000E+00 0. -1.
</event>
<event>
 7    1  0.2856214E-009  0.2030776E+03  0.7561462E-02  0.1147168E+00
          1   -1    0    0  501    0  0.00000000000E+00  0.00000000000E+00  0.10124664156E+04  0.10124664156E+04  0.00000000000E+00 0. -1.
         -1   -1    0    0    0  501 -0.00000000000E+00 -0.00000000000E+00 -0.70783018544E+02  0.70783018544E+02  0.00000000000E+00 0.  1.
         25    2    1    2    0    0 -0.43309687713E+01  0.17661801795E+03  0.82457981299E+03  0.85252087350E+03  0.12508912906E+03 0.  0.
          5    1    3    3  502    0  0.15749700597E+02  0.18467562784E+03  0.79041032509E+03  0.81186149988E+03  0.41800000000E+01 0.  1.
         -5    1    3    3    0  502 -0.20080669368E+02 -0.80576098920E+01  0.34169487905E+02  0.40659373620E+02  0.41800000000E+01 0.  1.
        -11    1    1    2    0    0  0.43994029690E+02 -0.13143731830E+03  0.78698768993E+02  0.15938864304E+03  0.00000000000E+00 0.  1.
         11    1    1    2    0    0 -0.39663060918E+02 -0.45180699650E+02  0.38404815064E+02  0.71339917594E+02  0.00000000000E+00 0. -1.
</event>
<event>
 7    1  0.2856214E-009  0.2064569E+03  0.7561462E-02  0.1144403E+00
          1   -1    0    0  501    0  0.00000000000E+00  0.00000000000E+00  0.38102350035E+03  0.38102350035E+03  0.00000000000E+00 0. -1.
         -1   -1    0    0    0  501 -0.00000000000E+00 -0.00000000000E+00 -0.12376110989E+03  0.12376110989E+03  0.00000000000E+00 0.  1.
         25    2    1    2    0    0 -0.81293007228E+02 -0.16557468106E+03  0.92973168114E+02  0.24148334666E+03  0.12508664473E+03 0.  0.
          5    1    3    3  502    0  0.19896761804E+02 -0.50829808967E+02 -0.11808884842E+02  0.56004221011E+02  0.41800000000E+01 0. -1.
         -5    1    3    3    0  502 -0.10118976903E+03 -0.11474487210E+03  0.10478205296E+03  0.18547912565E+03  0.41800000000E+01 0. -1.
        -11    1    1    2    0    0  0.62609589234E+02  0.32123656982E+02  0.46693764266E+02  0.84452339359E+02  0.00000000000E+00 0.  1.
         11    1    1    2    0    0  0.18683417994E+02  0.13345102408E+03  0.11759545808E+03  0.17884892423E+03  0.00000000000E+00 0. -1.
</event>
<event>
 7    1  0.2856214E-009  0.7831154E+02  0.7561462E-02  0.1333912E+00
          2   -1    0    0  501    0  0.00000000000E+00  0.00000000000E+00  0.29084033269E+03  0.29084033269E+03  0.00000000000E+00 0. -1.
         -2   -1    0    0    0  501 -0.00000000000E+00 -0.00000000000E+00 -0.51444606418E+02  0.51444606418E+02  0.00000000000E+00 0.  1.
         25    2    1    2    0    0 -0.36176160070E+02 -0.12653636346E+02  0.19897109672E+03  0.23812802850E+03  0.12508649629E+03 0.  0.
          5    1    3    3  502    0  0.14115040264E+02 -0.12083469224E+02 -0.11124369554E+02  0.22056032919E+02  0.41800000000E+01 0. -1.
         -5    1    3    3    0  502 -0.50291200334E+02 -0.57016712264E+00  0.21009546628E+03  0.21607199558E+03  0.41800000000E+01 0. -1.
        -11    1    1    2    0    0 -0.20573284175E+02 -0.13517480187E+02 -0.71288777437E+01  0.25628171808E+02  0.00000000000E+00 0.  1.
         11    1    1    2    0    0  0.56749444245E+02  0.26171116533E+02  0.47553507295E+02  0.78528738808E+02  0.00000000000E+00 0. -1.
</event>
<event>
 7    1  0.2856214E-009  0.9058311E+02  0.7561462E-02  0.1301446E+00
         -1   -1    0    0    0  501 -0.00000000000E+00  0.00000000000E+00  0.34808548632E+02  0.34808548632E+02  0.00000000000E+00 0.  1.
          1   -1    0    0  501    0  0.00000000000E+00 -0.00000000000E+00 -0.41885596223E+03  0.41885596223E+03  0.00000000000E+00 0. -1.
         25    2    1    2    0    0  0.13403931919E+01  0.41875832441E+02 -0.28415319629E+03  0.31328285832E+03  0.12509088041E+03 0.  0.
          5    1    3    3  502    0 -0.50459950618E+02  0.33267394986E+02 -0.69217453845E+02  0.91986164733E+02  0.41800000000E+01 0.  1.
         -5    1    3    3    0  502  0.51800343810E+02  0.86084374548E+01 -0.21493574244E+03  0.22129669359E+03  0.41800000000E+01 0.  1.
        -11    1    1    2    0    0 -0.17884098153E+02 -0.47241564046E+02 -0.10944502157E+03  0.12053969921E+03  0.00000000000E+00 0. -1.
         11    1    1    2    0    0  0.16543704961E+02  0.53657316049E+01  0.95508042649E+01  0.19841953321E+02  0.00000000000E+00 0.  1.
</event>
<event>
 7    1  0.2856214E-009  0.9139185E+02  0.7561462E-02  0.1299516E+00
          3   -1    0    0  501    0  0.00000000000E+00  0.00000000000E+00  0.16925258866E+03  0.16925258866E+03  0.00000000000E+00 0. -1.
         -3   -1    0    0    0  501 -0.00000000000E+00 -0.00000000000E+00 -0.16932624757E+03  0.16932624757E+03  0.00000000000E+00 0.  1.
         25    2    1    2    0    0 -0.47110944931E+02 -0.30862109984E+02  0.11482998671E+03  0.17889906367E+03  0.12508812161E+03 0.  0.
          5    1    3    3  502    0 -0.97426038919E+01  0.26417742193E+02 -0.14941994553E+02  0.32148888541E+02  0.41800000000E+01 0. -1.
         -5    1    3    3    0  502 -0.37368341039E+02 -0.57279852177E+02  0.12977198127E+03  0.14675017512E+03  0.41800000000E+01 0. -1.
        -11    1    1    2    0    0  0.21970118029E+02  0.49729275037E+02 -0.11612689341E+03  0.12822301765E+03  0.00000000000E+00 0.  1.
         11    1    1    2    0    0  0.25140826902E+02 -0.18867165053E+02  0.12232477965E+01  0.31456754913E+02  0.00000000000E+00 0. -1.
</event>
<event>
 7    1  0.2856214E-009  0.2495503E+03  0.7561462E-02  0.1113589E+00
          1   -1    0    0  501    0  0.00000000000E+00  0.00000000000E+00  0.24116504539E+03  0.24116504539E+03  0.00000000000E+00 0. -1.
         -1   -1    0    0    0  501 -0.00000000000E+00 -0.00000000000E+00 -0.27601308102E+03  0.27601308102E+03  0.00000000000E+00 0.  1.
         25    2    1    2    0    0  0.46673215844E+02 -0.22460742062E+03 -0.62118523022E+02  0.26857495898E+03  0.12508763014E+03 0.  0.
          5    1    3    3  502    0  0.87500770561E+02 -0.18084239479E+03 -0.53660937089E+02  0.20798395412E+03  0.41800000000E+01 0.  1.
         -5    1    3    3    0  502 -0.40827554716E+02 -0.43765025836E+02 -0.84575859331E+01  0.60591004863E+02  0.41800000000E+01 0.  1.
        -11    1    1    2    0    0  0.14999188591E+02  0.72319459285E+02 -0.22012758413E+02  0.77069068909E+02  0.00000000000E+00 0.  1.
         11    1    1    2    0    0 -0.61672404435E+02  0.15228796134E+03  0.49283245800E+02  0.17153409852E+03  0.00000000000E+00 0. -1.
</event>
<event>
 7    1  0.2856214E-009  0.1006870E+03  0.7561462E-02  0.1278858E+00
         -2   -1    0    0    0  501 -0.00000000000E+00  0.00000000000E+00  0.35842971454E+02  0.35842971454E+02  0.00000000000E+00 0.  1.
          2   -1    0    0  501    0  0.00000000000E+00 -0.00000000000E+00 -0.43716810159E+03  0.43716810159E+03  0.00000000000E+00 0. -1.
         25    2    1    2    0    0  0.24083512110E+02 -0.14702179986E+02 -0.33027304443E+03  0.35429319177E+03  0.12508881729E+03 0.  0.
          5    1    3    3  502    0  0.34119977592E+02  0.41333346501E+02 -0.25048836599E+03  0.25619233459E+03  0.41800000000E+01 0. -1.
         -5    1    3    3    0  502 -0.10036465482E+02 -0.56035526487E+02 -0.79784678432E+02  0.98100857186E+02  0.41800000000E+01 0. -1.
        -11    1    1    2    0    0 -0.25967124625E+02  0.49387186949E+02 -0.60750457450E+02  0.82486386007E+02  0.00000000000E+00 0. -1.
         11    1    1    2    0    0  0.18836125150E+01 -0.34685006964E+02 -0.10301628262E+02  0.36231495264E+02  0.00000000000E+00 0.  1.
</event>
<event>
 7    1  0.2856214E-009  0.1862638E+03  0.7561462E-02  0.1161875E+00
          2   -1    0    0  501    0  0.00000000000E+00  0.00000000000E+00  0.37300048769E+03  0.37300048769E+03  0.00000000000E+00 0. -1.
         -2   -1    0    0    0  501 -0.00000000000E+00 -0.00000000000E+00 -0.10364218730E+03  0.10364218730E+03  0.00000000000E+00 0.  1.
         25    2    1    2    0    0  0.81042866171E+02 -0.13965099907E+03  0.17925605800E+03  0.27175429573E+03  0.12508922902E+03 0.  0.
          5    1    3    3  502    0  0.10786291450E+03 -0.13985799889E+03  0.16113919719E+03  0.23911917834E+03  0.41800000000E+01 0.  1.
         -5    1    3    3    0  502 -0.26820048328E+02  0.20699982449E+00  0.18116860806E+02  0.32635117385E+02  0.41800000000E+01 0.  1.
        -11    1    1    2    0    0 -0.86092956556E+02  0.11559226868E+03  0.40794670103E+02  0.14979243925E+03  0.00000000000E+00 0.  1.
         11    1    1    2    0    0  0.50500903851E+01  0.24058730385E+02  0.49307572287E+02  0.55095940009E+02  0.00000000000E+00 0. -1.
</event>
<event>
 7    1  0.2856214E-009  0.2000388E+03  0.7561462E-02  0.1149706E+00
          2   -1    0    0  501    0  0.00000000000E+00  0.00000000000E+00  0.11663042929E+04  0.11663042929E+04  0.00000000000E+00 0.  1.
         -2   -1    0    0    0  501 -0.00000000000E+00 -0.00000000000E+00 -0.47410727172E+02  0.47410727172E+02  0.00000000000E+00 0. -1.
         25    2    1    2    0    0 -0.15207644015E+03 -0.76812990154E+02  0.26734238554E+03  0.34080367076E+03  0.12509081420E+03 0.  0.
          5    1    3    3  502    0  0.80278786462E+01  0.19403609881E+02  0.48740143641E+02  0.53235523048E+02  0.41800000000E+01 0.  1.
         -5    1    3    3    0  502 -0.16010431880E+03 -0.96216600035E+02  0.21860224189E+03  0.28756814772E+03  0.41800000000E+01 0.  1.
        -11    1    1    2    0    0  0.13952639849E+03  0.29146960597E+02  0.64455256687E+03  0.66012511893E+03  0.00000000000E+00 0. -1.
         11    1    1    2    0    0  0.12550041661E+02  0.47666029557E+02  0.20699861328E+03  0.21278623033E+03  0.00000000000E+00 0.  1.
</event>
<event>
 7    1  0.2856214E-009  0.1014953E+03  0.7561462E-02  0.1277183E+00
          2   -1    0    0  501    0  0.00000000000E+00  0.00000000000E+00  0.20586881064E+03  0.20586881064E+03  0.00000000000E+00 0. -1.
         -2   -1    0    0    0  501 -0.00000000000E+00 -0.00000000000E+00 -0.83495860645E+02  0.83495860645E+02  0.00000000000E+00 0.  1.
         25    2    1    2    0    0 -0.29178162511E+02 -0.73875290061E+01 -0.72777734183E+01  0.12887017606E+03  0.12509442649E+03 0.  0.
          5    1    3    3  502    0 -0.75265562655E+02  0.14892776064E+02 -0.97221878511E+01  0.77451230057E+02  0.41800000000E+01 0.  1.
         -5    1    3    3    0  502  0.46087400144E+02 -0.22280305070E+02  0.24444144327E+01  0.51418946002E+02  0.41800000000E+01 0.  1.
        -11    1    1    2    0    0  0.32104895738E+01  0.36005238151E+02  0.11259408722E+03  0.11825444133E+03  0.00000000000E+00 0. -1.
         11    1    1    2    0    0  0.25967672937E+02 -0.28617709144E+02  0.17056636186E+02  0.42240053888E+02  0.00000000000E+00 0.  1.
</event>
<event>
 7    1  0.2856214E-009  0.9747896E+02  0.7561462E-02  0.1285688E+00
         -2   -1    0    0    0  501 -0.00000000000E+00  0.00000000000E+00  0.14791813678E+02  0.14791813678E+02  0.00000000000E+00 0.  1.
          2   -1    0    0  501    0  0.00000000000E+00 -0.00000000000E+00 -0.89392236761E+03  0.89392236761E+03  0.00000000000E+00 0. -1.
         25    2    1    2    0    0  0.58053505125E+01  0.38860294557E+02 -0.47536826179E+03  0.49311803338E+03  0.12508631393E+03 0.  0.
          5    1    3    3  502    0  0.47102292739E+02  0.19069747099E+02 -0.78571135412E+02  0.93665238780E+02  0.41800000000E+01 0.  1.
         -5    1    3    3    0  502 -0.41296942226E+02  0.19790547458E+02 -0.39679712638E+03  0.39945279460E+03  0.41800000000E+01 0.  1.
        -11    1    1    2    0    0 -0.23082724119E+02  0.23700082189E+02 -0.11750242123E+03  0.12207098362E+03  0.00000000000E+00 0.  1.
         11    1    1    2    0    0  0.17277373607E+02 -0.62560376746E+02 -0.28625987092E+03  0.29352516429E+03  0.00000000000E+00 0. -1.
</event>
<event>
 7    1  0.2856214E-009  0.1340554E+03  0.7561462E-02  0.1221559E+00
          1   -1    0    0  501    0  0.00000000000E+00  0.00000000000E+00  0.10124216201E+04  0.10124216201E+04  0.00000000000E+00 0. -1.
         -1   -1    0    0    0  501 -0.00000000000E+00 -0.00000000000E+00 -0.25598083641E+02  0.25598083641E+02  0.00000000000E+00 0.  1.
         25    2    1    2    0    0 -0.63046119359E+01 -0.97113985751E+02  0.75080757140E+03  0.76735283340E+03  0.12508991687E+03 0.  0.
          5    1    3    3  502    0  0.57865561050E+02 -0.29621880033E+02  0.32387669270E+03  0.33036262410E+03  0.41800000000E+01 0.  1.
         -5    1    3    3    0  502 -0.64170172986E+02 -0.67492105718E+02  0.42693087870E+03  0.43699020930E+03  0.41800000000E+01 0.  1.
        -11    1    1    2    0    0  0.28657177681E+02  0.58117059175E+02  0.57673050922E+02  0.86746799379E+02  0.00000000000E+00 0.  1.
         11    1    1    2    0    0 -0.22352565745E+02  0.38996926576E+02  0.17834291413E+03  0.18392007095E+03  0.00000000000E+00 0. -1.
</event>
<event>
 7    1  0.2856214E-009  0.1216673E+03  0.7561462E-02  0.1240372E+00
          2   -1    0    0  501    0  0.00000000000E+00  0.00000000000E+00  0.76577051781E+03  0.76577051781E+03  0.00000000000E+00 0.  1.
         -2   -1    0    0    0  501 -0.00000000000E+00 -0.00000000000E+00 -0.22472048823E+02  0.22472048823E+02  0.00000000000E+00 0. -1.
         25    2    1    2    0    0 -0.55496046835E+02 -0.22304318795E+02  0.52984189857E+03  0.54768304917E+03  0.12508793314E+03 0.  0.
          5    1    3    3  502    0 -0.60827645444E+02  0.38250640144E+02  0.36289426750E+03  0.36996328968E+03  0.41800000000E+01 0. -1.
         -5    1    3    3    0  502  0.53315986098E+01 -0.60554958939E+02  0.16694763107E+03  0.17771975950E+03  0.41800000000E+01 0. -1.
        -11    1    1    2    0    0  0.65093518506E+02 -0.19168050766E+02  0.14209156600E+03  0.15746299073E+03  0.00000000000E+00 0.  1.
         11    1    1    2    0    0 -0.95974716712E+01  0.41472369561E+02  0.71365004425E+02  0.83096526739E+02  0.00000000000E+00 0. -1.
</event>
<event>
 7    1  0.4092753E-009  0.1212457E+03  0.7561462E-02  0.1241056E+00
         -2   -1    0    0    0  501 -0.00000000000E+00  0.00000000000E+00  0.24069934361E+02  0.24069934361E+02  0.00000000000E+00 0.  1.
          2   -1    0    0  501    0  0.00000000000E+00 -0.00000000000E+00 -0.80502821585E+03  0.80502821585E+03  0.00000000000E+00 0. -1.
         25    2    1    2    0    0  0.86711190785E+02  0.84002595417E+00 -0.44132228784E+03  0.46683207268E+03  0.12508911260E+03 0.  0.
          5    1    3    3  502    0 -0.14239955800E+02 -0.20449838065E+02 -0.17808455610E+02  0.30912549382E+02  0.41800000000E+01 0.  1.
         -5    1    3    3    0  502  0.10095114659E+03  0.21289864019E+02 -0.42351383223E+03  0.43591952330E+03  0.41800000000E+01 0.  1.
        -11    1    1    2    0    0 -0.50116176744E+02  0.36258517261E+02 -0.25879734455E+03  0.26608716014E+03  0.00000000000E+00 0.  1.
         11    1    1    2    0    0 -0.36595014042E+02 -0.37098543215E+02 -0.80838649104E+02  0.96178917390E+02  0.00000000000E+00 0. -1.
</event>
<event>
 7    1  0.2856214E-009  0.5067492E+03  0.7561462E-02  0.1012032E+00
          2   -1    0    0  501    0  0.00000000000E+00  0.00000000000E+00  0.88573140552E+03  0.88573140552E+03  0.00000000000E+00 0. -1.
         -2   -1    0    0    0  501 -0.00000000000E+00 -0.00000000000E+00 -0.36049738304E+03  0.36049738304E+03  0.00000000000E+00 0.  1.
         25    2    1    2    0    0  0.27064699372E+02 -0.49723656133E+03 -0.40124438433E+01  0.51345919710E+03  0.12509017352E+03 0.  0.
          5    1    3    3  502    0 -0.15504275685E+02 -0.37672815671E+01 -0.75197580120E+01  0.18127165677E+02  0.41800000000E+01 0. -1.
         -5    1    3    3    0  502  0.42568975058E+02 -0.49346927976E+03  0.35073141687E+01  0.49533203142E+03  0.41800000000E+01 0. -1.
        -11    1    1    2    0    0 -0.34781688052E+02  0.13636843649E+03  0.19758018601E+03  0.24257791779E+03  0.00000000000E+00 0. -1.
         11    1    1    2    0    0  0.77169886799E+01  0.36086812483E+03  0.33166628031E+03  0.49019167367E+03  0.00000000000E+00 0.  1.
</event>
<event>
 7    1  0.2856214E-009  0.1608861E+03  0.7561462E-02  0.1187700E+00
          2   -1    0    0  501    0  0.00000000000E+00  0.00000000000E+00  0.17072086481E+03  0.17072086481E+03  0.00000000000E+00 0.  1.
         -2   -1    0    0    0  501 -0.00000000000E+00 -0.00000000000E+00 -0.16371755673E+03  0.16371755673E+03  0.00000000000E+00 0. -1.
         25    2    1    2    0    0 -0.95220385742E+02  0.83008398375E+02 -0.59562386793E+01  0.17787731368E+03  0.12509015101E+03 0.  0.
          5    1    3    3  502    0 -0.91153377957E+02  0.56022706381E+01 -0.30644570372E+02  0.96420360103E+02  0.41800000000E+01 0.  1.
         -5    1    3    3    0  502 -0.40670077856E+01  0.77406127737E+02  0.24688331692E+02  0.81456953572E+02  0.41800000000E+01 0.  1.
        -11    1    1    2    0    0  0.75564117593E+02 -0.89372256154E+01  0.22467845133E+02  0.79338603052E+02  0.00000000000E+00 0.  1.
         11    1    1    2    0    0  0.19656268149E+02 -0.74071172759E+02 -0.95082983685E+01  0.77222504812E+02  0.00000000000E+00 0. -1.
</event>
<event>
 7    1  0.2856214E-009  0.1366517E+03  0.7561462E-02  0.1217907E+00
          2   -1    0    0  501    0  0.00000000000E+00  0.00000000000E+00  0.11884488498E+03  0.11884488498E+03  0.00000000000E+00 0. -1.
         -2   -1    0    0    0  501 -0.00000000000E+00 -0.00000000000E+00 -0.31505976867E+03  0.31505976867E+03  0.00000000000E+00 0.  1.
         25    2    1    2    0    0 -0.35980307082E+02 -0.11590942533E+03  0.13916682321E+02  0.17483990992E+03  0.12508294319E+03 0.  0.
          5    1    3    3  502    0  0.11495810169E+02 -0.60170763775E+02 -0.48730047649E+02  0.78388547688E+02  0.41800000000E+01 0.  1.
         -5    1    3    3    0  502 -0.47476117251E+02 -0.55738661551E+02  0.62646729970E+02  0.96451362233E+02  0.41800000000E+01 0.  1.
        -11    1    1    2    0    0  0.55876576042E+02  0.81436463705E+02 -0.19073368124E+03  0.21478693287E+03  0.00000000000E+00 0.  1.
         11    1    1    2    0    0 -0.19896268960E+02  0.34472961622E+02 -0.19397884776E+02  0.44277810868E+02  0.00000000000E+00 0. -1.
</event>
<event>
 7    1  0.2856214E-009  0.1001266E+03  0.7561462E-02  0.1280030E+00
          2   -1    0    0  501    0  0.00000000000E+00  0.00000000000E+00  0.36219222606E+04  0.36219222606E+04  0.00000000000E+00 0.  1.
         -2   -1    0    0    0  501 -0.00000000000E+00 -0.00000000000E+00 -0.70183798370E+01  0.70183798370E+01  0.00000000000E+00 0. -1.
         25    2    1    2    0    0  0.24339932311E+02 -0.61917366010E+02  0.30255625607E+04  0.30288781119E+04  0.12509042923E+03 0.  0.
          5    1    3    3  502    0  0.43024776373E+02 -0.43788400292E+02  0.59510357162E+03  0.59827609742E+03  0.41800000000E+01 0.  1.
         -5    1    3    3    0  502 -0.18684844062E+02 -0.18128965718E+02  0.24304589891E+04  0.24306020145E+04  0.41800000000E+01 0.  1.
        -11    1    1    2    0    0  0.33747939811E+02  0.34003867823E+02  0.28149832983E+03  0.28554596156E+03  0.00000000000E+00 0. -1.
         11    1    1    2    0    0 -0.58087872122E+02  0.27913498187E+02  0.30784299025E+03  0.31451656699E+03  0.00000000000E+00 0.  1.
</event>
<event>
 7    1  0.2856214E-009  0.3173943E+03  0.7561462E-02  0.1076855E+00
          1   -1    0    0  501    0  0.00000000000E+00  0.00000000000E+00  0.10463714586E+04  0.10463714586E+04  0.00000000000E+00 0. -1.
         -1   -1    0    0    0  501 -0.00000000000E+00 -0.00000000000E+00 -0.15062912177E+03  0.15062912177E+03  0.00000000000E+00 0.  1.
         25    2    1    2    0    0 -0.34383603491E+02 -0.30316214213E+03  0.10741264548E+03  0.34680611662E+03  0.12508992567E+03 0.  0.
          5    1    3    3  502    0 -0.68554284880E+02 -0.89789112238E+02  0.46671710959E+02  0.12230084078E+03  0.41800000000E+01 0. -1.
         -5    1    3    3    0  502  0.34170681389E+02 -0.21337302989E+03  0.60740934524E+02  0.22450527584E+03  0.41800000000E+01 0. -1.
        -11    1    1    2    0    0  0.23166994178E+02  0.12726021782E+03  0.22053250961E+03  0.25566865364E+03  0.00000000000E+00 0.  1.
         11    1    1    2    0    0  0.11216609314E+02  0.17590192431E+03  0.56779718170E+03  0.59452581008E+03  0.00000000000E+00 0. -1.
</event>
<event>
 7    1  0.2856214E-009  0.1271461E+03  0.7561462E-02  0.1231753E+00
          1   -1    0    0  501    0  0.00000000000E+00  0.00000000000E+00  0.14334683640E+04  0.14334683640E+04  0.00000000000E+00 0. -1.
         -1   -1    0    0    0  501 -0.00000000000E+00 -0.00000000000E+00 -0.16239323821E+02  0.16239323821E+02  0.00000000000E+00 0.  1.
         25    2    1    2    0    0  0.55595896379E+02 -0.81687819696E+02  0.93298985751E+03  0.94651070669E+03  0.12509452463E+03 0.  0.
          5    1    3    3  502    0 -0.70144463339E+01 -0.49113338114E+02  0.11304248143E+03  0.12352083810E+03  0.41800000000E+01 0. -1.
         -5    1    3    3    0  502  0.62610342712E+02 -0.32574481582E+02  0.81994737608E+03  0.82298986859E+03  0.41800000000E+01 0. -1.
        -11    1    1    2    0    0  0.14308811824E+02  0.58391759209E+02  0.27092099003E+03  0.27751130154E+03  0.00000000000E+00 0.  1.
         11    1    1    2    0    0 -0.69904708202E+02  0.23296060488E+02  0.21331819267E+03  0.22568567962E+03  0.00000000000E+00 0. -1.
</event>
<event>
 7    1  0.2856214E-009  0.1351410E+03  0.7561462E-02  0.1220021E+00
          1   -1    0    0  501    0  0.00000000000E+00  0.00000000000E+00  0.23679842306E+03  0.23679842306E+03  0.00000000000E+00 0. -1.
         -1   -1    0    0    0  501 -0.00000000000E+00 -0.00000000000E+00 -0.15611083014E+03  0.15611083014E+03  0.00000000000E+00 0.  1.
         25    2    1    2    0    0  0.65163186717E+02 -0.11488181930E+03 -0.46590419377E+02  0.18778292742E+03  0.12509071647E+03 0.  0.
          5    1    3    3  502    0  0.57082899845E+02 -0.11560750647E+03  0.11005245503E+02  0.12946868670E+03  0.41800000000E+01 0. -1.
         -5    1    3    3    0  502  0.80802868715E+01  0.72568717811E+00 -0.57595664880E+02  0.58314240720E+02  0.41800000000E+01 0. -1.
        -11    1    1    2    0    0 -0.25702523292E+02  0.49905495407E+02 -0.85206115669E+00  0.56141822055E+02  0.00000000000E+00 0.  1.
         11    1    1    2    0    0 -0.39460663425E+02  0.64976323888E+02  0.12813007346E+03  0.14898450372E+03  0.00000000000E+00 0. -1.
</event>
<event>
 7    1  0.2856214E-009  0.1041103E+03  0.7561462E-02  0.1271883E+00
          2   -1    0    0  501    0  0.00000000000E+00  0.00000000000E+00  0.22977945372E+02  0.22977945372E+02  0.00000000000E+00 0. -1.
         -2   -1    0    0    0  501 -0.00000000000E+00 -0.00000000000E+00 -0.59836655783E+03  0.59836655783E+03  0.00000000000E+00 0.  1.
         25    2    1    2    0    0 -0.37784541364E+01  0.32286103660E+02 -0.24947145982E+03  0.28096342658E+03  0.12509104126E+03 0.  0.
          5    1    3    3  502    0  0.53070624882E+02  0.28229219133E+02 -0.68735155944E+02  0.91407735454E+02  0.41800000000E+01 0.  1.
         -5    1    3    3    0  502 -0.56849079018E+02  0.40568845265E+01 -0.18073630388E+03  0.18955569112E+03  0.41800000000E+01 0.  1.
        -11    1    1    2    0    0  0.23129951423E+02  0.22771302004E+02 -0.18551692395E+03  0.18833495671E+03  0.00000000000E+00 0.  1.
         11    1    1    2    0    0 -0.19351497287E+02 -0.55057405664E+02 -0.14040022869E+03  0.15204611992E+03  0.00000000000E+00 0. -1.
</event>
<event>
 7    1  0.2856214E-009  0.3521410E+03  0.7561462E-02  0.1061740E+00
         -3   -1    0    0    0  501 -0.00000000000E+00  0.00000000000E+00  0.90209948150E+03  0.90209948150E+03  0.00000000000E+00 0.  1.
          3   -1    0    0  501    0  0.00000000000E+00 -0.00000000000E+00 -0.18736698046E+03  0.18736698046E+03  0.00000000000E+00 0. -1.
         25    2    1    2    0    0 -0.70340054703E+02  0.33543325509E+03  0.97799842863E+02  0.37772642180E+03  0.12509695656E+03 0.  0.
          5    1    3    3  502    0 -0.80545034314E+02  0.17377999674E+03  0.63890040768E+01  0.19169058817E+03  0.41800000000E+01 0. -1.
         -5    1    3    3    0  502  0.10204979611E+02  0.16165325836E+03  0.91410838786E+02  0.18603583363E+03  0.41800000000E+01 0. -1.
        -11    1    1    2    0    0  0.41893211449E+01 -0.19900371122E+03  0.40361242536E+03  0.45002557416E+03  0.00000000000E+00 0.  1.
         11    1    1    2    0    0  0.66150733558E+02 -0.13642954388E+03  0.21332023281E+03  0.26171446601E+03  0.00000000000E+00 0. -1.
</event>
<event>
 7    1  0.2856214E-009  0.1070560E+03  0.7561462E-02  0.1266121E+00
          1   -1    0    0  501    0  0.00000000000E+00  0.00000000000E+00  0.86197017994E+02  0.86197017994E+02  0.00000000000E+00 0. -1.
         -1   -1    0    0    0  501 -0.00000000000E+00 -0.00000000000E+00 -0.20481659330E+03  0.20481659330E+03  0.00000000000E+00 0.  1.
         25    2    1    2    0    0  0.94789771025E+00 -0.69419449235E+02 -0.10414919992E+03  0.17696076278E+03  0.12509235499E+03 0.  0.
          5    1    3    3  502    0 -0.49424831317E+02 -0.62193255275E+01 -0.76608983888E+02  0.91476241577E+02  0.41800000000E+01 0. -1.
         -5    1    3    3    0  502  0.50372729028E+02 -0.63200123708E+02 -0.27540216036E+02  0.85484521205E+02  0.41800000000E+01 0. -1.
        -11    1    1    2    0    0  0.20325812818E+02  0.51551013464E+02 -0.46007950900E+02  0.72023448972E+02  0.00000000000E+00 0.  1.
         11    1    1    2    0    0 -0.21273710528E+02  0.17868435771E+02  0.31537575514E+02  0.42029399542E+02  0.00000000000E+00 0. -1.
</event>
<event>
 7    1  0.2856214E-009  0.1151509E+03  0.7561462E-02  0.1251318E+00
          1   -1    0    0  501    0  0.00000000000E+00  0.00000000000E+00  0.16759515134E+03  0.16759515134E+03  0.00000000000E+00 0. -1.
         -1   -1    0    0    0  501 -0.00000000000E+00 -0.00000000000E+00 -0.10784933319E+03  0.10784933319E+03  0.00000000000E+00 0.  1.
         25    2    1    2    0    0 -0.39526822196E+02  0.13119285884E+02 -0.36277571770E+02  0.13673546151E+03  0.12508412724E+03 0.  0.
          5    1    3    3  502    0 -0.57751698692E+00  0.65802658649E+02 -0.22355833931E+02  0.69624558325E+02  0.41800000000E+01 0. -1.
         -5    1    3    3    0  502 -0.38949305210E+02 -0.52683372766E+02 -0.13921737839E+02  0.67110903188E+02  0.41800000000E+01 0. -1.
        -11    1    1    2    0    0  0.62569751787E+01  0.37566259050E+02  0.48551077785E+02  0.61705597084E+02  0.00000000000E+00 0. -1.
         11    1    1    2    0    0  0.33269847018E+02 -0.50685544934E+02  0.47472312141E+02  0.77003425936E+02  0.00000000000E+00 0.  1.
</event>
<event>
 7    1  0.2856214E-009  0.2226966E+03  0.7561462E-02  0.1131888E+00
          2   -1    0    0  501    0  0.00000000000E+00  0.00000000000E+00  0.13277263934E+04  0.13277263934E+04  0.00000000000E+00 0.  1.
         -2   -1    0    0    0  501 -0.00000000000E+00 -0.00000000000E+00 -0.68853327937E+02  0.68853327937E+02  0.00000000000E+00 0. -1.
         25    2    1    2    0    0 -0.17836308536E+03  0.97727721627E+02  0.10907596467E+04  0.11165877125E+04  0.12508962834E+03 0.  0.
          5    1    3    3  502    0 -0.19520884075E+03  0.93760164372E+02  0.93226101025E+03  0.95709222312E+03  0.41800000000E+01 0. -1.
         -5    1    3    3    0  502  0.16845755397E+02  0.39675572556E+01  0.15849863646E+03  0.15949548942E+03  0.41800000000E+01 0. -1.
        -11    1    1    2    0    0  0.11341602773E+03 -0.30349704763E+02  0.13907637498E+03  0.18200697240E+03  0.00000000000E+00 0.  1.
         11    1    1    2    0    0  0.64947057632E+02 -0.67378016865E+02  0.29037043813E+02  0.97985036434E+02  0.00000000000E+00 0. -1.
</event>
<event>
 7    1  0.2856214E-009  0.1241027E+03  0.7561462E-02  0.1236478E+00
          1   -1    0    0  501    0  0.00000000000E+00  0.00000000000E+00  0.38186023599E+03  0.38186023599E+03  0.00000000000E+00 0. -1.
         -1   -1    0    0    0  501 -0.00000000000E+00 -0.00000000000E+00 -0.56328926648E+02  0.56328926648E+02  0.00000000000E+00 0.  1.
         25    2    1    2    0    0 -0.36681783275E+02 -0.88019984418E+02  0.14863822430E+03  0.21641209651E+03  0.12509117840E+03 0.  0.
          5    1    3    3  502    0  0.19983186865E+02 -0.92977464977E+02  0.65343063095E+02  0.11546135737E+03  0.41800000000E+01 0. -1.
         -5    1    3    3    0  502 -0.56664970140E+02  0.49574805585E+01  0.83295161202E+02  0.10095073915E+03  0.41800000000E+01 0. -1.
        -11    1    1    2    0    0  0.89406086879E+01  0.35184475978E+02  0.13058140038E+01  0.36326119856E+02  0.00000000000E+00 0.  1.
         11    1    1    2    0    0  0.27741174587E+02  0.52835508440E+02  0.17558727104E+03  0.18545094627E+03  0.00000000000E+00 0. -1.
</event>
<event>
 7    1  0.2856214E-009  0.9693588E+02  0.7561462E-02  0.1286875E+00
          1   -1    0    0  501    0  0.00000000000E+00  0.00000000000E+00  0.42846306296E+02  0.42846306296E+02  0.00000000000E+00 0. -1.
         -1   -1    0    0    0  501 -0.00000000000E+00 -0.00000000000E+00 -0.54261531130E+03  0.54261531130E+03  0.00000000000E+00 0.  1.
         25    2    1    2    0    0 -0.43263485859E+01  0.83639219664E+02 -0.40231804571E+03  0.42956027616E+03  0.12509190458E+03 0.  0.
          5    1    3    3  502    0  0.10059797789E+02  0.17928318283E+02  0.65632369034E+00  0.20988741954E+02  0.41800000000E+01 0. -1.
         -5    1    3    3    0  502 -0.14386146375E+02  0.65710901381E+02 -0.40297436940E+03  0.40857153421E+03  0.41800000000E+01 0. -1.
        -11    1    1    2    0    0 -0.29024212432E+02 -0.51858211387E+02 -0.14743965345E+02  0.61229596681E+02  0.00000000000E+00 0. -1.
         11    1    1    2    0    0  0.33350561018E+02 -0.31781008277E+02 -0.82706993942E+02  0.94671744751E+02  0.00000000000E+00 0.  1.
</event>
<event>
 7    1  0.2856214E-009  0.1132762E+03  0.7561462E-02  0.1254620E+00
          1   -1    0    0  501    0  0.00000000000E+00  0.00000000000E+00  0.21877851732E+03  0.21877851732E+03  0.00000000000E+00 0. -1.
         -1   -1    0    0    0  501 -0.00000000000E+00 -0.00000000000E+00 -0.66732245922E+02  0.66732245922E+02  0.00000000000E+00 0.  1.
         25    2    1    2    0    0 -0.42428884426E+02 -0.49619280916E+02  0.62637856170E+02  0.15439106111E+03  0.12510321919E+03 0.  0.
          5    1    3    3  502    0 -0.81044949656E+02 -0.51608698731E+02  0.23053415771E+02  0.98897290297E+02  0.41800000000E+01 0. -1.
         -5    1    3    3    0  502  0.38616065230E+02  0.19894178153E+01  0.39584440399E+02  0.55493770811E+02  0.41800000000E+01 0. -1.
        -11    1    1    2    0    0  0.59186616959E+01 -0.15632488623E+02  0.34553762914E+02  0.38384473272E+02  0.00000000000E+00 0.  1.
         11    1    1    2    0    0  0.36510222730E+02  0.65251769539E+02  0.54854652315E+02  0.92735228863E+02  0.00000000000E+00 0. -1.
</event>
<event>
 7    1  0.2856214E-009  0.1857791E+03  0.7561462E-02  0.1162324E+00
         -1   -1    0    0    0  501 -0.00000000000E+00  0.00000000000E+00  0.22819267616E+03  0.22819267616E+03  0.00000000000E+00 0.  1.
          1   -1    0    0  501    0  0.00000000000E+00 -0.00000000000E+00 -0.22102829640E+03  0.22102829640E+03  0.00000000000E+00 0. -1.
         25    2    1    2    0    0  0.20520644137E+02  0.17512300907E+03 -0.81891771322E+02  0.23117571228E+03  0.12508710004E+03 0.  0.
          5    1    3    3  502    0  0.16055107724E+02  0.17843836451E+03 -0.33532059185E+02  0.18231809511E+03  0.41800000000E+01 0.  1.
         -5    1    3    3    0  502  0.44655364131E+01 -0.33153554364E+01 -0.48359712137E+02  0.48857617166E+02  0.41800000000E+01 0.  1.
        -11    1    1    2    0    0 -0.29477795726E+02 -0.38561121857E+02 -0.94188481745E+01  0.49443050681E+02  0.00000000000E+00 0. -1.
         11    1    1    2    0    0  0.89571515893E+01 -0.13656188722E+03  0.98474999253E+02  0.16860220960E+03  0.00000000000E+00 0.  1.
</event>
<event>
 7    1  0.2856214E-009  0.1053320E+03  0.7561462E-02  0.1269467E+00
          1   -1    0    0  501    0  0.00000000000E+00  0.00000000000E+00  0.21847629734E+02  0.21847629734E+02  0.00000000000E+00 0. -1.
         -1   -1    0    0    0  501 -0.00000000000E+00 -0.00000000000E+00 -0.14003073106E+04  0.14003073106E+04  0.00000000000E+00 0.  1.
         25    2    1    2    0    0  0.40552696233E+01 -0.30806149973E+01 -0.12860922002E+04  0.12921717858E+04  0.12509532799E+03 0.  0.
          5    1    3    3  502    0  0.40131022616E+02 -0.50449519349E+02 -0.74580314812E+03  0.74859565930E+03  0.41800000000E+01 0.  1.
         -5    1    3    3    0  502 -0.36075752992E+02  0.47368904352E+02 -0.54028905209E+03  0.54357612646E+03  0.41800000000E+01 0.  1.
        -11    1    1    2    0    0 -0.42417057393E+02  0.16816237928E+02 -0.27186295679E+02  0.53113908618E+02  0.00000000000E+00 0. -1.
         11    1    1    2    0    0  0.38361787770E+02 -0.13735622931E+02 -0.65181184991E+02  0.76869245964E+02  0.00000000000E+00 0.  1.
</event>
<event>
 7    1  0.2856214E-009  0.1073339E+03  0.7561462E-02  0.1265588E+00
         -1   -1    0    0    0  501 -0.00000000000E+00  0.00000000000E+00  0.11564956910E+03  0.11564956910E+03  0.00000000000E+00 0.  1.
          1   -1    0    0  501    0  0.00000000000E+00 -0.00000000000E+00 -0.10497333515E+03  0.10497333515E+03  0.00000000000E+00 0. -1.
         25    2    1    2    0    0 -0.12278755359E+02  0.51956314830E+01  0.13656462710E+02  0.12653621890E+03  0.12508858182E+03 0.  0.
          5    1    3    3  502    0  0.51029766625E+02  0.26358687476E+02  0.15469437167E+02  0.59628796512E+02  0.41800000000E+01 0. -1.
         -5    1    3    3    0  502 -0.63308521984E+02 -0.21163055993E+02 -0.18129744563E+01  0.66907422392E+02  0.41800000000E+01 0. -1.
        -11    1    1    2    0    0  0.50543752351E+02 -0.10333405324E+02  0.11494237901E+02  0.52854211490E+02  0.00000000000E+00 0.  1.
         11    1    1    2    0    0 -0.38264996991E+02  0.51377738415E+01 -0.14474466666E+02  0.41232473853E+02  0.00000000000E+00 0. -1.
</event>
<event>
 7    1  0.2856214E-009  0.1075959E+03  0.7561462E-02  0.1265088E+00
          1   -1    0    0  501    0  0.00000000000E+00  0.00000000000E+00  0.12483401792E+03  0.12483401792E+03  0.00000000000E+00 0. -1.
         -1   -1    0    0    0  501 -0.00000000000E+00 -0.00000000000E+00 -0.13143422326E+03  0.13143422326E+03  0.00000000000E+00 0.  1.
         25    2    1    2    0    0 -0.11136213789E+02  0.19811110200E+02  0.60340207267E+02  0.14072969130E+03  0.12508960810E+03 0.  0.
          5    1    3    3  502    0  0.50370967623E+02 -0.13497068153E+02  0.44982080159E+02  0.68994674892E+02  0.41800000000E+01 0.  1.
         -5    1    3    3    0  502 -0.61507181412E+02  0.33308178353E+02  0.15358127108E+02  0.71735016405E+02  0.41800000000E+01 0.  1.
        -11    1    1    2    0    0 -0.26884575028E+02  0.23119638051E+02 -0.16268777013E+02  0.39012448571E+02  0.00000000000E+00 0.  1.
         11    1    1    2    0    0  0.38020788816E+02 -0.42930748251E+02 -0.50671635594E+02  0.76526101308E+02  0.00000000000E+00 0. -1.
</event>
<event>
 7    1  0.2856214E-009  0.8927306E+02  0.7561462E-02  0.1304622E+00
         -3   -1    0    0    0  501 -0.00000000000E+00  0.00000000000E+00  0.19208178709E+03  0.19208178709E+03  0.00000000000E+00 0.  1.
          3   -1    0    0  501    0  0.00000000000E+00 -0.00000000000E+00 -0.69781437909E+02  0.69781437909E+02  0.00000000000E+00 0. -1.
         25    2    1    2    0    0  0.10955824208E+02  0.18582617305E+02  0.49080791587E+02  0.13609616261E+03  0.12509155696E+03 0.  0.
          5    1    3    3  502    0  0.23585155760E+02 -0.30524438303E+02 -0.25051302846E+02  0.46184857694E+02  0.41800000000E+01 0.  1.
         -5    1    3    3    0  502 -0.12629331552E+02  0.49107055608E+02  0.74132094433E+02  0.89911304912E+02  0.41800000000E+01 0.  1.
        -11    1    1    2    0    0  0.26278630826E+02 -0.38521802152E+02  0.69054879665E+02  0.83325098768E+02  0.00000000000E+00 0.  1.
         11    1    1    2    0    0 -0.37234455034E+02  0.19939184846E+02  0.41646779277E+01  0.42441963624E+02  0.00000000000E+00 0. -1.
</event>
<event>
 7    1  0.2856214E-009  0.8224728E+02  0.7561462E-02  0.1322792E+00
          2   -1    0    0  501    0  0.00000000000E+00  0.00000000000E+00  0.29589105973E+03  0.29589105973E+03  0.00000000000E+00 0. -1.
         -2   -1    0    0    0  501 -0.00000000000E+00 -0.00000000000E+00 -0.53046494610E+02  0.53046494610E+02  0.00000000000E+00 0.  1.
         25    2    1    2    0    0  0.14597208822E+02 -0.33773918530E+02  0.20731175099E+03  0.24490700939E+03  0.12509006784E+03 0.  0.
          5    1    3    3  502    0  0.63212902832E+02  0.20573407468E+00  0.14768568869E+03  0.16069987073E+03  0.41800000000E+01 0. -1.
         -5    1    3    3    0  502 -0.48615694010E+02 -0.33979652605E+02  0.59626062301E+02  0.84207138656E+02  0.41800000000E+01 0. -1.
        -11    1    1    2    0    0  0.47908741826E+01  0.92826668123E+01 -0.29819810649E+02  0.31596542306E+02  0.00000000000E+00 0.  1.
         11    1    1    2    0    0 -0.19388083004E+02  0.24491251718E+02  0.65352624777E+02  0.72434002641E+02  0.00000000000E+00 0. -1.
</event>
<event>
 7    1  0.2856214E-009  0.1434263E+03  0.7561462E-02  0.1208792E+00
          2   -1    0    0  501    0  0.00000000000E+00  0.00000000000E+00  0.39704719873E+02  0.39704719873E+02  0.00000000000E+00 0. -1.
         -2   -1    0    0    0  501 -0.00000000000E+00 -0.00000000000E+00 -0.73902975082E+03  0.73902975082E+03  0.00000000000E+00 0.  1.
         25    2    1    2    0    0  0.11221794180E+03 -0.10669296655E+02 -0.52924905864E+03  0.55539188206E+03  0.12509546845E+03 0.  0.
          5    1    3    3  502    0  0.59377111913E+02 -0.66594102453E+02 -0.32642650159E+03  0.33842598783E+03  0.41800000000E+01 0. -1.
         -5    1    3    3    0  502  0.52840829884E+02  0.55924805798E+02 -0.20282255705E+03  0.21696589422E+03  0.41800000000E+01 0. -1.
        -11    1    1    2    0    0 -0.50397001686E+02 -0.16392209504E+02 -0.13955191594E+03  0.14927591753E+03  0.00000000000E+00 0.  1.
         11    1    1    2    0    0 -0.61820940111E+02  0.27061506159E+02 -0.30524056360E+02  0.74066671105E+02  0.00000000000E+00 0. -1.
</event>
<event>
 7    1  0.2856214E-009  0.1170527E+03  0.7561462E-02  0.1248040E+00
          2   -1    0    0  501    0  0.00000000000E+00  0.00000000000E+00  0.11347780761E+04  0.11347780761E+04  0.00000000000E+00 0. -1.
         -2   -1    0    0    0  501 -0.00000000000E+00 -0.00000000000E+00 -0.14697382003E+02  0.14697382003E+02  0.00000000000E+00 0.  1.
         25    2    1    2    0    0 -0.11702384039E+02  0.44388747333E+02  0.86435332552E+03  0.87456354981E+03  0.12508966637E+03 0.  0.
          5    1    3    3  502    0  0.25288339241E+02  0.78593388514E+02  0.54455917329E+03  0.55079813583E+03  0.41800000000E+01 0. -1.
         -5    1    3    3    0  502 -0.36990723281E+02 -0.34204641181E+02  0.31979415223E+03  0.32376541397E+03  0.41800000000E+01 0. -1.
        -11    1    1    2    0    0  0.44702992562E+01  0.27889055268E+02  0.73559249370E+02  0.78795597257E+02  0.00000000000E+00 0.  1.
         11    1    1    2    0    0  0.72320847833E+01 -0.72277802602E+02  0.18216811919E+03  0.19611631102E+03  0.00000000000E+00 0. -1.
</event>
<event>
 7    1  0.2856214E-009  0.1064570E+03  0.7561462E-02  0.1267275E+00
         -1   -1    0    0    0  501 -0.00000000000E+00  0.00000000000E+00  0.52753098228E+03  0.52753098228E+03  0.00000000000E+00 0.  1.
          1   -1    0    0  501    0  0.00000000000E+00 -0.00000000000E+00 -0.34104777894E+02  0.34104777894E+02  0.00000000000E+00 0. -1.
         25    2    1    2    0    0 -0.22206100768E+02 -0.75042957693E+02  0.23636845941E+03  0.27864586656E+03  0.12509561918E+03 0.  0.
          5    1    3    3  502    0 -0.62093516877E+02 -0.29302475705E+02  0.57300564856E+02  0.89526906868E+02  0.41800000000E+01 0. -1.
         -5    1    3    3    0  502  0.39887416109E+02 -0.45740481987E+02  0.17906789455E+03  0.18911895969E+03  0.41800000000E+01 0. -1.
        -11    1    1    2    0    0 -0.82998273068E+00  0.46976089935E+02  0.23679032051E+03  0.24140649905E+03  0.00000000000E+00 0.  1.
         11    1    1    2    0    0  0.23036083499E+02  0.28066867757E+02  0.20267424471E+02  0.41583394563E+02  0.00000000000E+00 0. -1.
</event>
<event>
 7    1  0.2856214E-009  0.1531974E+03  0.7561462E-02  0.1196598E+00
          1   -1    0    0  501    0  0.00000000000E+00  0.00000000000E+00  0.11126277702E+04  0.11126277702E+04  0.00000000000E+00 0. -1.
         -1   -1    0    0    0  501 -0.00000000000E+00 -0.00000000000E+00 -0.24068162937E+02  0.24068162937E+02  0.00000000000E+00 0.  1.
         25    2    1    2    0    0  0.88082497029E+02  0.85667301828E+02  0.58749340106E+03  0.61310016401E+03  0.12508357982E+03 0.  0.
          5    1    3    3  502    0  0.10278175010E+03  0.29318854304E+02  0.46850102211E+03  0.48055630627E+03  0.41800000000E+01 0.  1.
         -5    1    3    3    0  502 -0.14699253073E+02  0.56348447524E+02  0.11899237895E+03  0.13254385775E+03  0.41800000000E+01 0.  1.
        -11    1    1    2    0    0 -0.81879526077E+02 -0.33426661333E+02  0.21079691353E+03  0.22859776296E+03  0.00000000000E+00 0.  1.
         11    1    1    2    0    0 -0.62029709523E+01 -0.52240640495E+02  0.29026929268E+03  0.29499800616E+03  0.00000000000E+00 0. -1.
</event>
<event>
 7    1  0.2856214E-009  0.3051164E+03  0.7561462E-02  0.1082711E+00
         -1   -1    0    0    0  501 -0.00000000000E+00  0.00000000000E+00  0.19773995464E+03  0.19773995464E+03  0.00000000000E+00 0.  1.
          1   -1    0    0  501    0  0.00000000000E+00 -0.00000000000E+00 -0.48520018955E+03  0.48520018955E+03  0.00000000000E+00 0. -1.
         25    2    1    2    0    0  0.75220416970E+02 -0.27773977827E+03 -0.18533642104E+03  0.36440996143E+03  0.12509010938E+03 0.  0.
          5    1    3    3  502    0  0.27210279114E+02 -0.26134496400E+03 -0.15251266099E+03  0.30384070441E+03  0.41800000000E+01 0. -1.
         -5    1    3    3    0  502  0.48010137856E+02 -0.16394814270E+02 -0.32823760056E+02  0.60569257021E+02  0.41800000000E+01 0. -1.
        -11    1    1    2    0    0 -0.46015186278E+02  0.54202986802E+02 -0.50635136512E+02  0.87288476880E+02  0.00000000000E+00 0. -1.
         11    1    1    2    0    0 -0.29205230693E+02  0.22353679147E+03 -0.51488677362E+02  0.23124170587E+03  0.00000000000E+00 0.  1.
</event>
<event>
 7    1  0.2856214E-009  0.8905448E+02  0.7561462E-02  0.1305158E+00
         -2   -1    0    0    0  501 -0.00000000000E+00  0.00000000000E+00  0.14673676781E+03  0.14673676781E+03  0.00000000000E+00 0.  1.
          2   -1    0    0  501    0  0.00000000000E+00 -0.00000000000E+00 -0.13638684739E+03  0.13638684739E+03  0.00000000000E+00 0. -1.
         25    2    1    2    0    0  0.68295356808E+02 -0.52932564821E+02  0.28015591786E+02  0.15459188238E+03  0.12509062528E+03 0.  0.
          5    1    3    3  502    0  0.34212881948E+02 -0.84483938086E+01 -0.48227375290E+02  0.59876946954E+02  0.41800000000E+01 0.  1.
         -5    1    3    3    0  502  0.34082474860E+02 -0.44484171012E+02  0.76242967077E+02  0.94714935421E+02  0.41800000000E+01 0.  1.
        -11    1    1    2    0    0 -0.12291627508E+02  0.10425193237E+02 -0.48980984030E+02  0.51564576575E+02  0.00000000000E+00 0. -1.
         11    1    1    2    0    0 -0.56003729300E+02  0.42507371584E+02  0.31315312664E+02  0.76967156253E+02  0.00000000000E+00 0.  1.
</event>
<event>
 7    1  0.2856214E-009  0.1236917E+03  0.7561462E-02  0.1237128E+00
         -2   -1    0    0    0  501 -0.00000000000E+00  0.00000000000E+00  0.65929868840E+02  0.65929868840E+02  0.00000000000E+00 0.  1.
          2   -1    0    0  501    0  0.00000000000E+00 -0.00000000000E+00 -0.31123484762E+03  0.31123484762E+03  0.00000000000E+00 0. -1.
         25    2    1    2    0    0  0.84794148683E+02 -0.19433628067E+02 -0.89530874202E+02  0.17672392396E+03  0.12509138386E+03 0.  0.
          5    1    3    3  502    0  0.37185773539E+02  0.52494765145E+02 -0.25990507340E+02  0.69508711635E+02  0.41800000000E+01 0. -1.
         -5    1    3    3    0  502  0.47608375144E+02 -0.71928393212E+02 -0.63540366862E+02  0.10721521233E+03  0.41800000000E+01 0. -1.
        -11    1    1    2    0    0 -0.38625553743E+02 -0.12298893231E+02 -0.65692638626E+01  0.41065209172E+02  0.00000000000E+00 0.  1.
         11    1    1    2    0    0 -0.46168594940E+02  0.31732521298E+02 -0.14920484072E+03  0.15937558332E+03  0.00000000000E+00 0. -1.
</event>
<event>
 7    1  0.2856214E-009  0.1215871E+03  0.7561462E-02  0.1240502E+00
          2   -1    0    0  501    0  0.00000000000E+00  0.00000000000E+00  0.14736069432E+03  0.14736069432E+03  0.00000000000E+00 0. -1.
         -2   -1    0    0    0  501 -0.00000000000E+00 -0.00000000000E+00 -0.13202760363E+03  0.13202760363E+03  0.00000000000E+00 0.  1.
         25    2    1    2    0    0  0.25338225548E+02 -0.75522481221E+02  0.46513567047E+02  0.15542369556E+03  0.12508933758E+03 0.  0.
          5    1    3    3  502    0 -0.37673659886E+02  0.12548579222E+02  0.12349485276E+02  0.41794182326E+02  0.41800000000E+01 0.  1.
         -5    1    3    3    0  502  0.63011885434E+02 -0.88071060443E+02  0.34164081771E+02  0.11362951323E+03  0.41800000000E+01 0.  1.
        -11    1    1    2    0    0 -0.36269809174E+02  0.27213805809E+02 -0.53078375946E+02  0.69809772075E+02  0.00000000000E+00 0.  1.
         11    1    1    2    0    0  0.10931583626E+02  0.48308675412E+02  0.21897899581E+02  0.54154830318E+02  0.00000000000E+00 0. -1.
</event>
<event>
 7    1  0.2856214E-009  0.9404522E+02  0.7561462E-02  0.1293341E+00
         -1   -1    0    0    0  501 -0.00000000000E+00  0.00000000000E+00  0.60305284540E+02  0.60305284540E+02  0.00000000000E+00 0.  1.
          1   -1    0    0  501    0  0.00000000000E+00 -0.00000000000E+00 -0.24171621851E+03  0.24171621851E+03  0.00000000000E+00 0. -1.
         25    2    1    2    0    0 -0.51607052710E+02 -0.75897878818E+00 -0.11645140007E+03  0.17852708027E+03  0.12508847219E+03 0.  0.
          5    1    3    3  502    0  0.11020928806E+02  0.14392214450E+02 -0.11229272460E+03  0.11382321866E+03  0.41800000000E+01 0.  1.
         -5    1    3    3    0  502 -0.62627981516E+02 -0.15151193238E+02 -0.41586754627E+01  0.64703861608E+02  0.41800000000E+01 0.  1.
        -11    1    1    2    0    0  0.34110876748E+02  0.45506091252E+02 -0.32368242910E+02  0.65437446486E+02  0.00000000000E+00 0.  1.
         11    1    1    2    0    0  0.17496175962E+02 -0.44747112464E+02 -0.32591290990E+02  0.58056976287E+02  0.00000000000E+00 0. -1.
</event>
<event>
 7    1  0.2856214E-009  0.9662427E+02  0.7561462E-02  0.1287559E+00
         -2   -1    0    0    0  501 -0.00000000000E+00  0.00000000000E+00  0.31122193730E+03  0.31122193730E+03  0.00000000000E+00 0.  1.
          2   -1    0    0  501    0  0.00000000000E+00 -0.00000000000E+00 -0.57356412227E+02  0.57356412227E+02  0.00000000000E+00 0. -1.
         25    2    1    2    0    0 -0.39921583315E+00  0.68911946565E+02  0.89660677768E+02  0.16862540470E+03  0.12508586739E+03 0.  0.
          5    1    3    3  502    0 -0.29751373937E+02  0.20480850456E+02 -0.22605694904E+02  0.42814709255E+02  0.41800000000E+01 0. -1.
         -5    1    3    3    0  502  0.29352158104E+02  0.48431096110E+02  0.11226637267E+03  0.12581069545E+03  0.41800000000E+01 0. -1.
        -11    1    1    2    0    0 -0.33870390483E+02 -0.16994848597E+02  0.11362454998E+03  0.11977715386E+03  0.00000000000E+00 0.  1.
         11    1    1    2    0    0  0.34269606316E+02 -0.51917097968E+02  0.50580297326E+02  0.80175790960E+02  0.00000000000E+00 0. -1.
</event>
<event>
 7    1  0.2856214E-009  0.1410274E+03  0.7561462E-02  0.1211953E+00
         -1   -1    0    0    0  501 -0.00000000000E+00  0.00000000000E+00  0.17750499570E+03  0.17750499570E+03  0.00000000000E+00 0.  1.
          1   -1    0    0  501    0  0.00000000000E+00 -0.00000000000E+00 -0.14272832633E+03  0.14272832633E+03  0.00000000000E+00 0. -1.
         25    2    1    2    0    0  0.68588110462E+02  0.66088176717E+02  0.83076025444E+02  0.17782237509E+03  0.12508874882E+03 0.  0.
          5    1    3    3  502    0  0.93434177581E+02  0.10401520605E+02  0.63955882497E+02  0.11378033432E+03  0.41800000000E+01 0.  1.
         -5    1    3    3    0  502 -0.24846067120E+02  0.55686656112E+02  0.19120142947E+02  0.64042040774E+02  0.41800000000E+01 0.  1.
        -11    1    1    2    0    0 -0.62325967532E+02 -0.19190875630E+01 -0.85411737601E+00  0.62361355360E+02  0.00000000000E+00 0.  1.
         11    1    1    2    0    0 -0.62621429300E+01 -0.64169089154E+02 -0.47445238699E+02  0.80049591581E+02  0.00000000000E+00 0. -1.
</event>
<event>
 7    1  0.2856214E-009  0.7839463E+02  0.7561462E-02  0.1333670E+00
          1   -1    0    0  501    0  0.00000000000E+00  0.00000000000E+00  0.24757584916E+02  0.24757584916E+02  0.00000000000E+00 0. -1.
         -1   -1    0    0    0  501 -0.00000000000E+00 -0.00000000000E+00 -0.53999739789E+03  0.53999739789E+03  0.00000000000E+00 0.  1.
         25    2    1    2    0    0 -0.21055385512E+02  0.19836372505E+02 -0.22443258355E+03  0.25856274803E+03  0.12509156317E+03 0.  0.
          5    1    3    3  502    0  0.16504900283E+02 -0.23411519677E+02 -0.22032188659E+01  0.29031664787E+02  0.41800000000E+01 0. -1.
         -5    1    3    3    0  502 -0.37560285795E+02  0.43247892182E+02 -0.22222936469E+03  0.22953108325E+03  0.41800000000E+01 0. -1.
        -11    1    1    2    0    0 -0.22757464387E+02 -0.12564040500E+02 -0.22945207644E+02  0.34673330570E+02  0.00000000000E+00 0. -1.
         11    1    1    2    0    0  0.43812849899E+02 -0.72723320052E+01 -0.26786202177E+03  0.27151890420E+03  0.00000000000E+00 0.  1.
</event>
<event>
 7    1  0.2856214E-009  0.1140056E+03  0.7561462E-02  0.1253327E+00
         -1   -1    0    0    0  501 -0.00000000000E+00  0.00000000000E+00  0.72605957857E+02  0.72605957857E+02  0.00000000000E+00 0.  1.
          1   -1    0    0  501    0  0.00000000000E+00 -0.00000000000E+00 -0.18655612146E+03  0.18655612146E+03  0.00000000000E+00 0. -1.
         25    2    1    2    0    0 -0.26911679079E+02 -0.32795772289E+02 -0.47191343573E+02  0.14026465487E+03  0.12508936544E+03 0.  0.
          5    1    3    3  502    0 -0.63334190774E+02  0.18967892339E+02 -0.37423831494E+02  0.76085584866E+02  0.41800000000E+01 0.  1.
         -5    1    3    3    0  502  0.36422511694E+02 -0.51763664628E+02 -0.97675120789E+01  0.64179070000E+02  0.41800000000E+01 0.  1.
        -11    1    1    2    0    0  0.21334611344E+01  0.60859599210E+02 -0.39454730251E+02  0.72561134305E+02  0.00000000000E+00 0.  1.
         11    1    1    2    0    0  0.24778217945E+02 -0.28063826921E+02 -0.27304089780E+02  0.46336290148E+02  0.00000000000E+00 0. -1.
</event>
<event>
 7    1  0.2856214E-009  0.1455444E+03  0.7561462E-02  0.1206057E+00
         -1   -1    0    0    0  501 -0.00000000000E+00  0.00000000000E+00  0.38330608407E+03  0.38330608407E+03  0.00000000000E+00 0.  1.
          1   -1    0    0  501    0  0.00000000000E+00 -0.00000000000E+00 -0.83492678236E+02  0.83492678236E+02  0.00000000000E+00 0. -1.
         25    2    1    2    0    0 -0.99900694078E+02 -0.73995750504E+02  0.24878289351E+03  0.30495522444E+03  0.12509692659E+03 0.  0.
          5    1    3    3  502    0 -0.10575073824E+02 -0.60773111368E+02  0.18298618133E+03  0.19314921229E+03  0.41800000000E+01 0. -1.
         -5    1    3    3    0  502 -0.89325620254E+02 -0.13222639135E+02  0.65796712182E+02  0.11180601215E+03  0.41800000000E+01 0. -1.
        -11    1    1    2    0    0  0.85400298471E+01  0.40763324592E+02 -0.15061398373E+02  0.44287994565E+02  0.00000000000E+00 0. -1.
         11    1    1    2    0    0  0.91360664231E+02  0.33232425911E+02  0.66091910701E+02  0.11755554330E+03  0.00000000000E+00 0.  1.
</event>
<event>
 7    1  0.4180157E-009  0.1050643E+03  0.7561462E-02  0.1269993E+00
         -1   -1    0    0    0  501 -0.00000000000E+00  0.00000000000E+00  0.36862457477E+02  0.36862457477E+02  0.00000000000E+00 0.  1.
          1   -1    0    0  501    0  0.00000000000E+00 -0.00000000000E+00 -0.50074400228E+03  0.50074400228E+03  0.00000000000E+00 0. -1.
         25    2    1    2    0    0 -0.28005016503E+02  0.76932206058E+02 -0.26383114247E+03  0.30324485688E+03  0.12509087181E+03 0.  0.
          5    1    3    3  502    0 -0.63997713178E+02  0.40778818428E+02 -0.71957976536E+02  0.10466155986E+03  0.41800000000E+01 0.  1.
         -5    1    3    3    0  502  0.35992696676E+02  0.36153387630E+02 -0.19187316594E+03  0.19858329703E+03  0.41800000000E+01 0.  1.
        -11    1    1    2    0    0  0.59400330513E+01 -0.35567861026E+02 -0.83536348065E+01  0.37015401458E+02  0.00000000000E+00 0.  1.
         11    1    1    2    0    0  0.22064983451E+02 -0.41364345032E+02 -0.19169676752E+03  0.19734620141E+03  0.00000000000E+00 0. -1.
</event>
<event>
 7    1  0.2856214E-009  0.9775633E+02  0.7561462E-02  0.1285086E+00
         -2   -1    0    0    0  501 -0.00000000000E+00  0.00000000000E+00  0.34660656698E+02  0.34660656698E+02  0.00000000000E+00 0. -1.
          2   -1    0    0  501    0  0.00000000000E+00 -0.00000000000E+00 -0.36052608444E+03  0.36052608444E+03  0.00000000000E+00 0.  1.
         25    2    1    2    0    0 -0.96061854853E+01  0.52853662417E+01 -0.23223613466E+03  0.26400937988E+03  0.12508843482E+03 0.  0.
          5    1    3    3  502    0  0.26813602779E+02 -0.38184428093E+02 -0.18265151593E+03  0.18856316850E+03  0.41800000000E+01 0.  1.
         -5    1    3    3    0  502 -0.36419788264E+02  0.43469794335E+02 -0.49584618725E+02  0.75446211375E+02  0.41800000000E+01 0.  1.
        -11    1    1    2    0    0 -0.17034670843E+02  0.37621625692E+02 -0.44706833491E+02  0.60862695399E+02  0.00000000000E+00 0.  1.
         11    1    1    2    0    0  0.26640856329E+02 -0.42906991933E+02 -0.48922459591E+02  0.70314665861E+02  0.00000000000E+00 0. -1.
</event>
<event>
 7    1  0.2856214E-009  0.1055366E+03  0.7561462E-02  0.1269066E+00
         -2   -1    0    0    0  501 -0.00000000000E+00  0.00000000000E+00  0.66517155711E+02  0.66517155711E+02  0.00000000000E+00 0.  1.
          2   -1    0    0  501    0  0.00000000000E+00 -0.00000000000E+00 -0.21970688169E+03  0.21970688169E+03  0.00000000000E+00 0. -1.
         25    2    1    2    0    0  0.40983629441E+01  0.13267952250E+02 -0.14783031344E+03  0.19414749178E+03  0.12508641756E+03 0.  0.
          5    1    3    3  502    0  0.55464895927E+02 -0.19975708969E+02 -0.10085593479E+03  0.11689643113E+03  0.41800000000E+01 0.  1.
         -5    1    3    3    0  502 -0.51366532983E+02  0.33243661219E+02 -0.46974378652E+02  0.77251060651E+02  0.41800000000E+01 0.  1.
        -11    1    1    2    0    0 -0.28067619351E+02 -0.43681237417E+02  0.45049968051E+01  0.52116568906E+02  0.00000000000E+00 0.  1.
         11    1    1    2    0    0  0.23969256407E+02  0.30413285167E+02 -0.98644093434E+01  0.39959976715E+02  0.00000000000E+00 0. -1.
</event>
<event>
 7    1  0.2856214E-009  0.1096658E+03  0.7561462E-02  0.1261190E+00
         -2   -1    0    0    0  501 -0.00000000000E+00  0.00000000000E+00  0.53664113637E+02  0.53664113637E+02  0.00000000000E+00 0.  1.
          2   -1    0    0  501    0  0.00000000000E+00 -0.00000000000E+00 -0.35391965436E+03  0.35391965436E+03  0.00000000000E+00 0. -1.
         25    2    1    2    0    0 -0.74046814703E+02  0.20435165008E+02 -0.22690691033E+03  0.27024908059E+03  0.12508913969E+03 0.  0.
          5    1    3    3  502    0 -0.10586943852E+03  0.26977677995E+02 -0.19968981284E+03  0.22766121074E+03  0.41800000000E+01 0. -1.
         -5    1    3    3    0  502  0.31822623816E+02 -0.65425129871E+01 -0.27217097486E+02  0.42587869850E+02  0.41800000000E+01 0. -1.
        -11    1    1    2    0    0  0.31563843396E+02 -0.45631445416E+01  0.17075216500E+02  0.36175426972E+02  0.00000000000E+00 0.  1.
         11    1    1    2    0    0  0.42482971307E+02 -0.15872020466E+02 -0.90423846895E+02  0.10115926044E+03  0.00000000000E+00 0. -1.
</event>
<event>
 7    1  0.2856214E-009  0.1565430E+03  0.7561462E-02  0.1192656E+00
          1   -1    0    0  501    0  0.00000000000E+00  0.00000000000E+00  0.17895097452E+03  0.17895097452E+03  0.00000000000E+00 0. -1.
         -1   -1    0    0    0  501 -0.00000000000E+00 -0.00000000000E+00 -0.18543062329E+03  0.18543062329E+03  0.00000000000E+00 0.  1.
         25    2    1    2    0    0  0.20372637086E+01 -0.41014950794E+01  0.85423387247E+02  0.15152805718E+03  0.12507047740E+03 0.  0.
          5    1    3    3  502    0  0.58158936655E+02  0.21081600621E+02  0.31147411068E+02  0.69386810085E+02  0.41800000000E+01 0. -1.
         -5    1    3    3    0  502 -0.56121672946E+02 -0.25183095701E+02  0.54275976179E+02  0.82141247090E+02  0.41800000000E+01 0. -1.
        -11    1    1    2    0    0 -0.16175475344E+02 -0.91433300878E+02 -0.62399193594E+02  0.11187204241E+03  0.00000000000E+00 0.  1.
         11    1    1    2    0    0  0.14138211636E+02  0.95534795957E+02 -0.29503842418E+02  0.10098149823E+03  0.00000000000E+00 0. -1.
</event>
<event>
 7    1  0.3015630E-009  0.1689516E+03  0.7561462E-02  0.1178946E+00
         -1   -1    0    0    0  501 -0.00000000000E+00  0.00000000000E+00  0.65207294517E+02  0.65207294517E+02  0.00000000000E+00 0.  1.
          1   -1    0    0  501    0  0.00000000000E+00 -0.00000000000E+00 -0.48528623470E+03  0.48528623470E+03  0.00000000000E+00 0. -1.
         25    2    1    2    0    0 -0.11833233678E+03  0.62783757856E+02 -0.28879226205E+03  0.34204249651E+03  0.12509099336E+03 0.  0.
          5    1    3    3  502    0 -0.42635289114E+02 -0.37707087805E+02 -0.99792960834E+02  0.11495955715E+03  0.41800000000E+01 0. -1.
         -5    1    3    3    0  502 -0.75697047663E+02  0.10049084566E+03 -0.18899930121E+03  0.22708293936E+03  0.41800000000E+01 0. -1.
        -11    1    1    2    0    0  0.27914987249E+02 -0.58047209143E+02 -0.25670088739E+02  0.69337424659E+02  0.00000000000E+00 0.  1.
         11    1    1    2    0    0  0.90417349528E+02 -0.47365487126E+01 -0.10561658940E+03  0.13911360805E+03  0.00000000000E+00 0. -1.
</event>
<event>
 7    1  0.2856214E-009  0.7243549E+02  0.7561462E-02  0.1352002E+00
          1   -1    0    0  501    0  0.00000000000E+00  0.00000000000E+00  0.67213423797E+03  0.67213423797E+03  0.00000000000E+00 0. -1.
         -1   -1    0    0    0  501 -0.00000000000E+00 -0.00000000000E+00 -0.25706623281E+02  0.25706623281E+02  0.00000000000E+00 0.  1.
         25    2    1    2    0    0  0.95835952018E+01 -0.13981366607E+02  0.55155502411E+03  0.56581185981E+03  0.12507114847E+03 0.  0.
          5    1    3    3  502    0  0.30988360209E+02 -0.43564855835E+01  0.53690316694E+03  0.53783058718E+03  0.41800000000E+01 0.  1.
         -5    1    3    3    0  502 -0.21404765007E+02 -0.96248810233E+01  0.14651857163E+02  0.27981272631E+02  0.41800000000E+01 0.  1.
        -11    1    1    2    0    0 -0.40408716591E+02 -0.18709149495E+02  0.62099070229E+02  0.76414600533E+02  0.00000000000E+00 0. -1.
         11    1    1    2    0    0  0.30825121389E+02  0.32690516102E+02  0.32773520352E+02  0.55614400904E+02  0.00000000000E+00 0.  1.
</event>
<event>
 7    1  0.2856214E-009  0.1200538E+03  0.7561462E-02  0.1243008E+00
         -2   -1    0    0    0  501 -0.00000000000E+00  0.00000000000E+00  0.35689230030E+02  0.35689230030E+02  0.00000000000E+00 0.  1.
          2   -1    0    0  501    0  0.00000000000E+00 -0.00000000000E+00 -0.57565040253E+03  0.57565040253E+03  0.00000000000E+00 0. -1.
         25    2    1    2    0    0  0.56543456062E+02 -0.11681095066E+02 -0.44211122143E+03  0.46308024260E+03  0.12508944225E+03 0.  0.
          5    1    3    3  502    0  0.66529271843E+02 -0.53534917935E+02 -0.20588871149E+03  0.22293444186E+03  0.41800000000E+01 0.  1.
         -5    1    3    3    0  502 -0.99858157810E+01  0.41853822869E+02 -0.23622250995E+03  0.24014580074E+03  0.41800000000E+01 0.  1.
        -11    1    1    2    0    0 -0.65372899373E+02  0.43391867761E+02 -0.69430913407E+02  0.10477176097E+03  0.00000000000E+00 0.  1.
         11    1    1    2    0    0  0.88294433104E+01 -0.31710772694E+02 -0.28419037662E+02  0.43487628996E+02  0.00000000000E+00 0. -1.
</event>
<event>
 7    1  0.2856214E-009  0.1250555E+03  0.7561462E-02  0.1234983E+00
         -1   -1    0    0    0  501 -0.00000000000E+00  0.00000000000E+00  0.20053011230E+02  0.20053011230E+02  0.00000000000E+00 0.  1.
          1   -1    0    0  501    0  0.00000000000E+00 -0.00000000000E+00 -0.10872738639E+04  0.10872738639E+04  0.00000000000E+00 0. -1.
         25    2    1    2    0    0 -0.40014986860E+01  0.97952665240E+02 -0.64080502305E+03  0.66022007334E+03  0.12509488819E+03 0.  0.
          5    1    3    3  502    0 -0.23928805762E+02  0.96856035078E+02 -0.25466927432E+03  0.27354632324E+03  0.41800000000E+01 0.  1.
         -5    1    3    3    0  502  0.19927307076E+02  0.10966301612E+01 -0.38613574873E+03  0.38667375010E+03  0.41800000000E+01 0.  1.
        -11    1    1    2    0    0 -0.21048268284E+02 -0.10229810679E+03 -0.38103716484E+03  0.39509144921E+03  0.00000000000E+00 0. -1.
         11    1    1    2    0    0  0.25049766970E+02  0.43454415484E+01 -0.45378664820E+02  0.52015352621E+02  0.00000000000E+00 0.  1.
</event>
<event>
 7    1  0.2856214E-009  0.1781281E+03  0.7561462E-02  0.1169627E+00
          2   -1    0    0  501    0  0.00000000000E+00  0.00000000000E+00  0.38676672897E+03  0.38676672897E+03  0.00000000000E+00 0. -1.
         -2   -1    0    0    0  501 -0.00000000000E+00 -0.00000000000E+00 -0.19259833311E+03  0.19259833311E+03  0.00000000000E+00 0.  1.
         25    2    1    2    0    0 -0.15041933550E+03 -0.37331832697E+02 -0.10913506905E+03  0.22710650210E+03  0.12508899941E+03 0.  0.
          5    1    3    3  502    0  0.10508732928E+02 -0.14965572459E+02  0.13827751234E+02  0.23304096871E+02  0.41800000000E+01 0.  1.
         -5    1    3    3    0  502 -0.16092806843E+03 -0.22366260238E+02 -0.12296282028E+03  0.20380240523E+03  0.41800000000E+01 0.  1.
        -11    1    1    2    0    0  0.12834820854E+03  0.61429628148E+02  0.21237476404E+03  0.25563626943E+03  0.00000000000E+00 0.  1.
         11    1    1    2    0    0  0.22071126952E+02 -0.24097795451E+02  0.90928700867E+02  0.96622290554E+02  0.00000000000E+00 0. -1.
</event>
<event>
 7    1  0.2856214E-009  0.1249304E+03  0.7561462E-02  0.1235178E+00
          1   -1    0    0  501    0  0.00000000000E+00  0.00000000000E+00  0.66697418031E+03  0.66697418031E+03  0.00000000000E+00 0. -1.
         -1   -1    0    0    0  501 -0.00000000000E+00 -0.00000000000E+00 -0.25127297529E+02  0.25127297529E+02  0.00000000000E+00 0.  1.
         25    2    1    2    0    0 -0.47702738751E+02  0.31397389069E+02  0.26286527240E+03  0.29666006747E+03  0.12509075455E+03 0.  0.
          5    1    3    3  502    0 -0.27399301614E+02  0.80002365841E+02  0.16107818831E+03  0.18197460102E+03  0.41800000000E+01 0. -1.
         -5    1    3    3    0  502 -0.20303437137E+02 -0.48604976773E+02  0.10178708409E+03  0.11468546645E+03  0.41800000000E+01 0. -1.
        -11    1    1    2    0    0  0.51866415832E+02 -0.62360499188E+02  0.25530404222E+03  0.26787891094E+03  0.00000000000E+00 0. -1.
         11    1    1    2    0    0 -0.41636770812E+01  0.30963110119E+02  0.12367756816E+03  0.12756249943E+03  0.00000000000E+00 0.  1.
</event>
<event>
 7    1  0.2856214E-009  0.7201011E+02  0.7561462E-02  0.1353388E+00
         -2   -1    0    0    0  501 -0.00000000000E+00  0.00000000000E+00  0.10229811035E+03  0.10229811035E+03  0.00000000000E+00 0.  1.
          2   -1    0    0  501    0  0.00000000000E+00 -0.00000000000E+00 -0.13006226638E+03  0.13006226638E+03  0.00000000000E+00 0. -1.
         25    2    1    2    0    0  0.13053200026E+02 -0.33568421602E+02 -0.18598662278E+02  0.13149666031E+03  0.12509291136E+03 0.  0.
          5    1    3    3  502    0 -0.22328020141E+02 -0.16110601142E+02 -0.64840035088E+02  0.70567659043E+02  0.41800000000E+01 0. -1.
         -5    1    3    3    0  502  0.35381220167E+02 -0.17457820461E+02  0.46241372810E+02  0.60929001265E+02  0.41800000000E+01 0. -1.
        -11    1    1    2    0    0 -0.29343049077E+02 -0.91833296565E+01  0.28256123647E+02  0.41758311703E+02  0.00000000000E+00 0.  1.
         11    1    1    2    0    0  0.16289849051E+02  0.42751751259E+02 -0.37421617404E+02  0.59105404718E+02  0.00000000000E+00 0. -1.
</event>
<event>
 7    1  0.2856214E-009  0.1233649E+03  0.7561462E-02  0.1237647E+00
         -2   -1    0    0    0  501 -0.00000000000E+00  0.00000000000E+00  0.38752476486E+02  0.38752476486E+02  0.00000000000E+00 0. -1.
          2   -1    0    0  501    0  0.00000000000E+00 -0.00000000000E+00 -0.46065933881E+03  0.46065933881E+03  0.00000000000E+00 0.  1.
         25    2    1    2    0    0  0.45298801650E+02 -0.51534646442E+02 -0.30442322922E+03  0.33619769523E+03  0.12509031366E+03 0.  0.
          5    1    3    3  502    0 -0.25864769332E+02  0.19753536006E+02 -0.32483130461E+02  0.46171578291E+02  0.41800000000E+01 0. -1.
         -5    1    3    3    0  502  0.71163570981E+02 -0.71288182447E+02 -0.27194009876E+03  0.29002611694E+03  0.41800000000E+01 0. -1.
        -11    1    1    2    0    0  0.12247353105E+01 -0.24193576606E+02 -0.29219498725E+02  0.37955345227E+02  0.00000000000E+00 0.  1.
         11    1    1    2    0    0 -0.46523536960E+02  0.75728223048E+02 -0.88264134377E+02  0.12525877484E+03  0.00000000000E+00 0. -1.
</event>
<event>
 7    1  0.2856214E-009  0.1009032E+03  0.7561462E-02  0.1278408E+00
         -4   -1    0    0    0  501 -0.00000000000E+00  0.00000000000E+00  0.71439980754E+02  0.71439980754E+02  0.00000000000E+00 0.  1.
          4   -1    0    0  501    0  0.00000000000E+00 -0.00000000000E+00 -0.18740536493E+03  0.18740536493E+03  0.00000000000E+00 0. -1.
         25    2    1    2    0    0  0.14029013992E+02  0.37251259331E+02 -0.55418203070E+02  0.14248963954E+03  0.12509056955E+03 0.  0.
          5    1    3    3  502    0  0.18483147532E+02 -0.29712573746E+02 -0.65614110203E+02  0.74479175876E+02  0.41800000000E+01 0.  1.
         -5    1    3    3    0  502 -0.44541335399E+01  0.66963833077E+02  0.10195907133E+02  0.68010463667E+02  0.41800000000E+01 0.  1.
        -11    1    1    2    0    0 -0.12363801432E+02  0.29793973648E+02 -0.21179574847E+02  0.38589102637E+02  0.00000000000E+00 0. -1.
         11    1    1    2    0    0 -0.16652125607E+01 -0.67045232979E+02 -0.39367606260E+02  0.77766603505E+02  0.00000000000E+00 0.  1.
</event>
<event>
 7    1  0.2856214E-009  0.1009015E+03  0.7561462E-02  0.1278411E+00
          2   -1    0    0  501    0  0.00000000000E+00  0.00000000000E+00  0.31776710163E+04  0.31776710163E+04  0.00000000000E+00 0. -1.
         -2   -1    0    0    0  501 -0.00000000000E+00 -0.00000000000E+00 -0.70228017120E+01  0.70228017120E+01  0.00000000000E+00 0.  1.
         25    2    1    2    0    0  0.26933622806E+02 -0.55459772935E+02  0.28307178928E+04  0.28341510818E+04  0.12508940477E+03 0.  0.
          5    1    3    3  502    0  0.47166912885E+02 -0.74391879722E+02  0.12173273973E+04  0.12205172404E+04  0.41800000000E+01 0.  1.
         -5    1    3    3    0  502 -0.20233290079E+02  0.18932106786E+02  0.16133904955E+04  0.16136338414E+04  0.41800000000E+01 0.  1.
        -11    1    1    2    0    0 -0.44646273551E+02  0.50065306555E+02  0.26789946240E+03  0.27617014070E+03  0.00000000000E+00 0. -1.
         11    1    1    2    0    0  0.17712650744E+02  0.53944663802E+01  0.72030859370E+02  0.74372595528E+02  0.00000000000E+00 0.  1.
</event>
<event>
 7    1  0.2856214E-009  0.8516428E+02  0.7561462E-02  0.1315003E+00
         -1   -1    0    0    0  501 -0.00000000000E+00  0.00000000000E+00  0.12205180084E+03  0.12205180084E+03  0.00000000000E+00 0.  1.
          1   -1    0    0  501    0  0.00000000000E+00 -0.00000000000E+00 -0.99140185795E+02  0.99140185795E+02  0.00000000000E+00 0. -1.
         25    2    1    2    0    0 -0.82030302035E+01  0.44567933619E+02 -0.30190001157E+02  0.13642454644E+03  0.12508649124E+03 0.  0.
          5    1    3    3  502    0  0.16322577266E+02  0.79979069111E+02 -0.41538206747E+02  0.91684093736E+02  0.41800000000E+01 0.  1.
         -5    1    3    3    0  502 -0.24525607469E+02 -0.35411135491E+02  0.11348205590E+02  0.44740452709E+02  0.41800000000E+01 0.  1.
        -11    1    1    2    0    0  0.51758241209E+01 -0.27945381392E+02  0.60098677423E+02  0.66479955810E+02  0.00000000000E+00 0.  1.
         11    1    1    2    0    0  0.30272060826E+01 -0.16622552227E+02 -0.69970612220E+01  0.18287484380E+02  0.00000000000E+00 0. -1.
</event>
<event>
 7    1  0.2856214E-009  0.1360896E+03  0.7561462E-02  0.1218690E+00
         -1   -1    0    0    0  501 -0.00000000000E+00  0.00000000000E+00  0.31003303155E+02  0.31003303155E+02  0.00000000000E+00 0.  1.
          1   -1    0    0  501    0  0.00000000000E+00 -0.00000000000E+00 -0.71910267122E+03  0.71910267122E+03  0.00000000000E+00 0. -1.
         25    2    1    2    0    0 -0.88322384814E+02 -0.56139311278E+02 -0.37742048009E+03  0.41115192695E+03  0.12508885770E+03 0.  0.
          5    1    3    3  502    0 -0.78533159220E+02  0.23953549076E+02 -0.18368226783E+03  0.20124084458E+03  0.41800000000E+01 0. -1.
         -5    1    3    3    0  502 -0.97892255944E+01 -0.80092860354E+02 -0.19373821225E+03  0.20991108237E+03  0.41800000000E+01 0. -1.
        -11    1    1    2    0    0  0.20137967984E+02  0.30032800409E+02 -0.21796169462E+03  0.22094073227E+03  0.00000000000E+00 0. -1.
         11    1    1    2    0    0  0.68184416830E+02  0.26106510869E+02 -0.92717193360E+02  0.11801331515E+03  0.00000000000E+00 0.  1.
</event>
<event>
 7    1  0.2856214E-009  0.9996087E+02  0.7561462E-02  0.1280378E+00
         -2   -1    0    0    0  501 -0.00000000000E+00  0.00000000000E+00  0.14362986493E+03  0.14362986493E+03  0.00000000000E+00 0.  1.
          2   -1    0    0  501    0  0.00000000000E+00 -0.00000000000E+00 -0.89293846442E+02  0.89293846442E+02  0.00000000000E+00 0. -1.
         25    2    1    2    0    0 -0.29694804421E+02  0.10563847995E+02  0.21249922668E+02  0.13073616511E+03  0.12508800646E+03 0.  0.
          5    1    3    3  502    0 -0.70390496991E+02 -0.41843936300E+01 -0.17184618518E+02  0.72698794559E+02  0.41800000000E+01 0.  1.
         -5    1    3    3    0  502  0.40695692570E+02  0.14748241625E+02  0.38434541186E+02  0.58037370555E+02  0.41800000000E+01 0.  1.
        -11    1    1    2    0    0 -0.40173925857E+01  0.31576047607E+02 -0.97468797196E+01  0.33289456138E+02  0.00000000000E+00 0. -1.
         11    1    1    2    0    0  0.33712197006E+02 -0.42139895602E+02  0.42832975536E+02  0.68898090116E+02  0.00000000000E+00 0.  1.
</event>
<event>
 7    1  0.2856214E-009  0.1297929E+03  0.7561462E-02  0.1227763E+00
          2   -1    0    0  501    0  0.00000000000E+00  0.00000000000E+00  0.14404306734E+03  0.14404306734E+03  0.00000000000E+00 0. -1.
         -2   -1    0    0    0  501 -0.00000000000E+00 -0.00000000000E+00 -0.12070026366E+03  0.12070026366E+03  0.00000000000E+00 0.  1.
         25    2    1    2    0    0 -0.74841931342E+02 -0.58873218402E+01  0.22499502629E+02  0.14761187426E+03  0.12508821910E+03 0.  0.
          5    1    3    3  502    0 -0.10819686868E+03 -0.13885878961E+02  0.60230847200E+01  0.10933037079E+03  0.41800000000E+01 0.  1.
         -5    1    3    3    0  502  0.33354937338E+02  0.79985571204E+01  0.16476417909E+02  0.38281503470E+02  0.41800000000E+01 0.  1.
        -11    1    1    2    0    0  0.31968970977E+02 -0.41224502330E+02  0.89104419869E+01  0.52923252678E+02  0.00000000000E+00 0. -1.
         11    1    1    2    0    0  0.42872960366E+02  0.47111824170E+02 -0.80671409366E+01  0.64208204071E+02  0.00000000000E+00 0.  1.
</event>
<event>
 7    1  0.2856214E-009  0.1071194E+03  0.7561462E-02  0.1265999E+00
         -1   -1    0    0    0  501 -0.00000000000E+00  0.00000000000E+00  0.13535733279E+03  0.13535733279E+03  0.00000000000E+00 0.  1.
          1   -1    0    0  501    0  0.00000000000E+00 -0.00000000000E+00 -0.11093050909E+03  0.11093050909E+03  0.00000000000E+00 0. -1.
         25    2    1    2    0    0 -0.37720874426E+02 -0.18067223426E+02  0.52978420791E+02  0.14213775868E+03  0.12508853042E+03 0.  0.
          5    1    3    3  502    0 -0.57870890682E+02  0.28102800542E+02  0.63516778542E+02  0.90502270375E+02  0.41800000000E+01 0.  1.
         -5    1    3    3    0  502  0.20150016256E+02 -0.46170023968E+02 -0.10538357751E+02  0.51635488304E+02  0.41800000000E+01 0.  1.
        -11    1    1    2    0    0  0.67639331291E+02  0.12094782995E+02 -0.13093139439E+02  0.69948504012E+02  0.00000000000E+00 0.  1.
         11    1    1    2    0    0 -0.29918456864E+02  0.59724404310E+01 -0.15458457656E+02  0.34201579188E+02  0.00000000000E+00 0. -1.
</event>
<event>
 7    1  0.2856214E-009  0.1075570E+03  0.7561462E-02  0.1265162E+00
          2   -1    0    0  501    0  0.00000000000E+00  0.00000000000E+00  0.19296668283E+02  0.19296668283E+02  0.00000000000E+00 0. -1.
         -2   -1    0    0    0  501 -0.00000000000E+00 -0.00000000000E+00 -0.64476560594E+03  0.64476560594E+03  0.00000000000E+00 0.  1.
         25    2    1    2    0    0  0.16145469994E+02 -0.23790252825E+01 -0.30757722355E+03  0.33244897852E+03  0.12510890818E+03 0.  0.
          5    1    3    3  502    0  0.92210965175E+01 -0.62373566338E+02 -0.12442305782E+03  0.13954948984E+03  0.41800000000E+01 0.  1.
         -5    1    3    3    0  502  0.69243734764E+01  0.59994541056E+02 -0.18315416573E+03  0.19289948867E+03  0.41800000000E+01 0.  1.
        -11    1    1    2    0    0 -0.53105086764E+02  0.89315367604E+01 -0.14457497193E+03  0.15427846609E+03  0.00000000000E+00 0.  1.
         11    1    1    2    0    0  0.36959616770E+02 -0.65525114779E+01 -0.17331674217E+03  0.17733482961E+03  0.00000000000E+00 0. -1.
</event>
<event>
 7    1  0.2856214E-009  0.8480270E+02  0.7561462E-02  0.1315949E+00
          1   -1    0    0  501    0  0.00000000000E+00  0.00000000000E+00  0.36501381003E+02  0.36501381003E+02  0.00000000000E+00 0. -1.
         -1   -1    0    0    0  501 -0.00000000000E+00 -0.00000000000E+00 -0.32436270719E+03  0.32436270719E+03  0.00000000000E+00 0.  1.
         25    2    1    2    0    0  0.10011420368E+02  0.36293874890E+01 -0.19471137569E+03  0.23167885484E+03  0.12509664651E+03 0.  0.
          5    1    3    3  502    0  0.56623643559E+02 -0.33336515039E+01 -0.16795339170E+03  0.17732220511E+03  0.41800000000E+01 0.  1.
         -5    1    3    3    0  502 -0.46612223192E+02  0.69630389929E+01 -0.26757983984E+02  0.54356649729E+02  0.41800000000E+01 0.  1.
        -11    1    1    2    0    0  0.17083913587E+02  0.22178971354E+02  0.85239049560E+00  0.28008810102E+02  0.00000000000E+00 0. -1.
         11    1    1    2    0    0 -0.27095333954E+02 -0.25808358843E+02 -0.94002340993E+02  0.10117642324E+03  0.00000000000E+00 0.  1.
</event>
<event>
 7    1  0.2856214E-009  0.7851213E+02  0.7561462E-02  0.1333328E+00
          2   -1    0    0  501    0  0.00000000000E+00  0.00000000000E+00  0.12139452595E+02  0.12139452595E+02  0.00000000000E+00 0. -1.
         -2   -1    0    0    0  501 -0.00000000000E+00 -0.00000000000E+00 -0.10168903196E+04  0.10168903196E+04  0.00000000000E+00 0.  1.
         25    2    1    2    0    0  0.38924155081E+01  0.17191151539E+02 -0.52660630792E+03  0.54154660766E+03  0.12509131918E+03 0.  0.
          5    1    3    3  502    0 -0.24584668678E+02  0.22682988126E+02 -0.33346109560E+02  0.47416867328E+02  0.41800000000E+01 0.  1.
         -5    1    3    3    0  502  0.28477084186E+02 -0.54918365874E+01 -0.49326019836E+03  0.49412974033E+03  0.41800000000E+01 0.  1.
        -11    1    1    2    0    0  0.42260927629E+02 -0.21937503415E+02 -0.27647710349E+03  0.28054737357E+03  0.00000000000E+00 0.  1.
         11    1    1    2    0    0 -0.46153343137E+02  0.47463518762E+01 -0.20166745555E+03  0.20693579093E+03  0.00000000000E+00 0. -1.
</event>
<event>
 7    1  0.2856214E-009  0.1153105E+03  0.7561462E-02  0.1251040E+00
         -1   -1    0    0    0  501 -0.00000000000E+00  0.00000000000E+00  0.11923254708E+03  0.11923254708E+03  0.00000000000E+00 0.  1.
          1   -1    0    0  501    0  0.00000000000E+00 -0.00000000000E+00 -0.13249275605E+03  0.13249275605E+03  0.00000000000E+00 0. -1.
         25    2    1    2    0    0  0.27409381825E+02  0.48002624804E+02 -0.39122189349E+02  0.14224785558E+03  0.12509348711E+03 0.  0.
          5    1    3    3  502    0 -0.81666325542E+01 -0.34693193722E+02  0.12966883759E+02  0.38156572859E+02  0.41800000000E+01 0. -1.
         -5    1    3    3    0  502  0.35576014379E+02  0.82695818527E+02 -0.52089073108E+02  0.10409128272E+03  0.41800000000E+01 0. -1.
        -11    1    1    2    0    0  0.50773953786E+01 -0.66859276417E+02  0.25994994882E+02  0.71914411252E+02  0.00000000000E+00 0.  1.
         11    1    1    2    0    0 -0.32486777203E+02  0.18856651613E+02 -0.13301450856E+00  0.37563036298E+02  0.00000000000E+00 0. -1.
</event>
<event>
 7    1  0.2856214E-009  0.1100433E+03  0.7561462E-02  0.1260490E+00
         -2   -1    0    0    0  501 -0.00000000000E+00  0.00000000000E+00  0.10986556403E+02  0.10986556403E+02  0.00000000000E+00 0. -1.
          2   -1    0    0  501    0  0.00000000000E+00 -0.00000000000E+00 -0.17208790453E+04  0.17208790453E+04  0.00000000000E+00 0.  1.
         25    2    1    2    0    0 -0.43196473678E+01  0.63545051920E+02 -0.12832929445E+04  0.12909476355E+04  0.12509349815E+03 0.  0.
          5    1    3    3  502    0  0.52834856116E+02  0.16418546059E+02 -0.80753711754E+03  0.80944101655E+03  0.41800000000E+01 0. -1.
         -5    1    3    3    0  502 -0.57154503484E+02  0.47126505860E+02 -0.47575582694E+03  0.48150661894E+03  0.41800000000E+01 0. -1.
        -11    1    1    2    0    0  0.18455261027E+02  0.60255001937E+01 -0.18937668241E+02  0.27120814711E+02  0.00000000000E+00 0. -1.
         11    1    1    2    0    0 -0.14135613659E+02 -0.69570552113E+02 -0.40766187616E+03  0.41379715148E+03  0.00000000000E+00 0.  1.
</event>
<event>
 7    1  0.2856214E-009  0.1788313E+03  0.7561462E-02  0.1168939E+00
          3   -1    0    0  501    0  0.00000000000E+00  0.00000000000E+00  0.20226421997E+03  0.20226421997E+03  0.00000000000E+00 0. -1.
         -3   -1    0    0    0  501 -0.00000000000E+00 -0.00000000000E+00 -0.19339339988E+03  0.19339339988E+03  0.00000000000E+00 0.  1.
         25    2    1    2    0    0  0.15603816702E+03 -0.51462116377E+02 -0.16127561594E+02  0.20713550529E+03  0.12509500518E+03 0.  0.
          5    1    3    3  502    0  0.48409144874E+01  0.18030668642E+02 -0.34723200196E+02  0.39644829380E+02  0.41800000000E+01 0.  1.
         -5    1    3    3    0  502  0.15119725253E+03 -0.69492785019E+02  0.18595638602E+02  0.16749067591E+03  0.41800000000E+01 0.  1.
        -11    1    1    2    0    0 -0.87977745705E+01 -0.92898203533E+01 -0.19336055311E+02  0.23185871444E+02  0.00000000000E+00 0.  1.
         11    1    1    2    0    0 -0.14724039245E+03  0.60751936731E+02  0.44334436994E+02  0.16533624312E+03  0.00000000000E+00 0. -1.
</event>
<event>
 7    1  0.4147137E-009  0.1197199E+03  0.7561462E-02  0.1243560E+00
          2   -1    0    0  501    0  0.00000000000E+00  0.00000000000E+00  0.60086515939E+03  0.60086515939E+03  0.00000000000E+00 0. -1.
         -2   -1    0    0    0  501 -0.00000000000E+00 -0.00000000000E+00 -0.41830446781E+02  0.41830446781E+02  0.00000000000E+00 0.  1.
         25    2    1    2    0    0  0.64958601890E+02 -0.80252724489E+02  0.40460326929E+03  0.43590270714E+03  0.12508894764E+03 0.  0.
          5    1    3    3  502    0  0.75982258744E+02 -0.30351059255E+02  0.35581541581E+03  0.36512542087E+03  0.41800000000E+01 0. -1.
         -5    1    3    3    0  502 -0.11023656854E+02 -0.49901665234E+02  0.48787853483E+02  0.70777286265E+02  0.41800000000E+01 0. -1.
        -11    1    1    2    0    0 -0.31861019314E+02  0.20367019087E+02 -0.73932340535E-01  0.37814619979E+02  0.00000000000E+00 0.  1.
         11    1    1    2    0    0 -0.33097582576E+02  0.59885705403E+02  0.15450537566E+03  0.16897827905E+03  0.00000000000E+00 0. -1.
</event>
<event>
 7    1  0.2856214E-009  0.2308896E+03  0.7561462E-02  0.1126015E+00
          2   -1    0    0  501    0  0.00000000000E+00  0.00000000000E+00  0.83166007216E+02  0.83166007216E+02  0.00000000000E+00 0.  1.
         -2   -1    0    0    0  501 -0.00000000000E+00 -0.00000000000E+00 -0.97998958494E+03  0.97998958494E+03  0.00000000000E+00 0. -1.
         25    2    1    2    0    0 -0.24515506891E+02  0.22105953587E+03 -0.19643057840E+03  0.32202701177E+03  0.12509234869E+03 0.  0.
          5    1    3    3  502    0 -0.69945430945E+01  0.43517446901E+02 -0.11997800574E+03  0.12788622318E+03  0.41800000000E+01 0.  1.
         -5    1    3    3    0  502 -0.17520963796E+02  0.17754208897E+03 -0.76452572670E+02  0.19414078860E+03  0.41800000000E+01 0.  1.
        -11    1    1    2    0    0 -0.24151949987E+02 -0.17682850551E+02 -0.53881200660E+02  0.61637518415E+02  0.00000000000E+00 0.  1.
         11    1    1    2    0    0  0.48667456878E+02 -0.20337668532E+03 -0.64651179866E+03  0.67949106197E+03  0.00000000000E+00 0. -1.
</event>
<event>
 7    1  0.2856214E-009  0.1472182E+03  0.7561462E-02  0.1203933E+00
         -1   -1    0    0    0  501 -0.00000000000E+00  0.00000000000E+00  0.43048514009E+02  0.43048514009E+02  0.00000000000E+00 0.  1.
          1   -1    0    0  501    0  0.00000000000E+00 -0.00000000000E+00 -0.53154738264E+03  0.53154738264E+03  0.00000000000E+00 0. -1.
         25    2    1    2    0    0  0.10425758772E+03 -0.79725300023E+01 -0.26380399385E+03  0.31011859562E+03  0.12509112818E+03 0.  0.
          5    1    3    3  502    0  0.10704284499E+03 -0.50337995742E+02 -0.17087755066E+03  0.20786701085E+03  0.41800000000E+01 0. -1.
         -5    1    3    3    0  502 -0.27852572724E+01  0.42365465740E+02 -0.92926443184E+02  0.10225158477E+03  0.41800000000E+01 0. -1.
        -11    1    1    2    0    0  0.96149021590E+01  0.16631795285E+02 -0.10886882219E+02  0.22081375916E+02  0.00000000000E+00 0.  1.
         11    1    1    2    0    0 -0.11387248988E+03 -0.86592652824E+01 -0.21380799257E+03  0.24239592511E+03  0.00000000000E+00 0. -1.
</event>
<event>
 7    1  0.2856214E-009  0.1163503E+03  0.7561462E-02  0.1249242E+00
         -1   -1    0    0    0  501 -0.00000000000E+00  0.00000000000E+00  0.12833021066E+02  0.12833021066E+02  0.00000000000E+00 0.  1.
          1   -1    0    0  501    0  0.00000000000E+00 -0.00000000000E+00 -0.11418000515E+04  0.11418000515E+04  0.00000000000E+00 0. -1.
         25    2    1    2    0    0 -0.11541052806E+02  0.55029293102E+02 -0.78803621495E+03  0.79988144517E+03  0.12509129171E+03 0.  0.
          5    1    3    3  502    0  0.28229218781E+02 -0.29855543968E+02 -0.18223338697E+03  0.18685481537E+03  0.41800000000E+01 0.  1.
         -5    1    3    3    0  502 -0.39770271587E+02  0.84884837070E+02 -0.60580282798E+03  0.61302662981E+03  0.41800000000E+01 0.  1.
        -11    1    1    2    0    0 -0.34475972876E+02 -0.21493652236E+02 -0.12481880667E+03  0.13126425367E+03  0.00000000000E+00 0. -1.
         11    1    1    2    0    0  0.46017025682E+02 -0.33535640866E+02 -0.21611200884E+03  0.22348737375E+03  0.00000000000E+00 0.  1.
</event>
<event>
 7    1  0.2856214E-009  0.9200107E+02  0.7561462E-02  0.1298077E+00
         -3   -1    0    0    0  501 -0.00000000000E+00  0.00000000000E+00  0.70342810056E+03  0.70342810056E+03  0.00000000000E+00 0.  1.
          3   -1    0    0  501    0  0.00000000000E+00 -0.00000000000E+00 -0.65691790566E+02  0.65691790566E+02  0.00000000000E+00 0. -1.
         25    2    1    2    0    0  0.21457192636E+02 -0.48613793904E+02  0.64980096008E+03  0.66386147038E+03  0.12508817716E+03 0.  0.
          5    1    3    3  502    0  0.48785283926E+02 -0.76554949743E+02  0.53119095736E+03  0.53890812746E+03  0.41800000000E+01 0. -1.
         -5    1    3    3    0  502 -0.27328091290E+02  0.27941155839E+02  0.11861000272E+03  0.12495334292E+03  0.41800000000E+01 0. -1.
        -11    1    1    2    0    0 -0.83446154357E+01  0.29387029796E+02  0.38764400660E+02  0.49354927672E+02  0.00000000000E+00 0.  1.
         11    1    1    2    0    0 -0.13112577201E+02  0.19226764108E+02 -0.50829050740E+02  0.55903493076E+02  0.00000000000E+00 0. -1.
</event>
<event>
 7    1  0.2856214E-009  0.1108953E+03  0.7561462E-02  0.1258921E+00
         -1   -1    0    0    0  501 -0.00000000000E+00  0.00000000000E+00  0.73113830072E+02  0.73113830072E+02  0.00000000000E+00 0.  1.
          1   -1    0    0  501    0  0.00000000000E+00 -0.00000000000E+00 -0.18411282902E+03  0.18411282902E+03  0.00000000000E+00 0. -1.
         25    2    1    2    0    0 -0.24527586562E+02 -0.25077166311E+02 -0.86342578054E+02  0.15598908069E+03  0.12508831175E+03 0.  0.
          5    1    3    3  502    0  0.46291784466E+02  0.12116346640E+02 -0.20195799540E+02  0.52106409241E+02  0.41800000000E+01 0. -1.
         -5    1    3    3    0  502 -0.70819371028E+02 -0.37193512951E+02 -0.66146778515E+02  0.10388267144E+03  0.41800000000E+01 0. -1.
        -11    1    1    2    0    0 -0.46262968947E+01  0.53050778905E+02 -0.28939027517E+02  0.60607384690E+02  0.00000000000E+00 0. -1.
         11    1    1    2    0    0  0.29153883457E+02 -0.27973612594E+02  0.42826066210E+01  0.40630193719E+02  0.00000000000E+00 0.  1.
</event>
<event>
 7    1  0.2856214E-009  0.1202909E+03  0.7561462E-02  0.1242618E+00
          2   -1    0    0  501    0  0.00000000000E+00  0.00000000000E+00  0.62172243147E+03  0.62172243147E+03  0.00000000000E+00 0. -1.
         -2   -1    0    0    0  501 -0.00000000000E+00 -0.00000000000E+00 -0.25028799108E+02  0.25028799108E+02  0.00000000000E+00 0.  1.
         25    2    1    2    0    0 -0.62110577928E+02 -0.13769801872E+01  0.37110209549E+03  0.39651537171E+03  0.12509218507E+03 0.  0.
          5    1    3    3  502    0 -0.26137579064E+02 -0.62172739138E+02  0.20866157449E+03  0.21933022500E+03  0.41800000000E+01 0.  1.
         -5    1    3    3    0  502 -0.35972998864E+02  0.60795758950E+02  0.16244052100E+03  0.17718514671E+03  0.41800000000E+01 0.  1.
        -11    1    1    2    0    0 -0.30670434406E+01  0.30644034593E+02  0.34614615431E+02  0.46331794839E+02  0.00000000000E+00 0.  1.
         11    1    1    2    0    0  0.65177621368E+02 -0.29267054406E+02  0.19097692145E+03  0.20390406403E+03  0.00000000000E+00 0. -1.
</event>
<event>
 7    1  0.2856214E-009  0.1005855E+03  0.7561462E-02  0.1279070E+00
         -1   -1    0    0    0  501 -0.00000000000E+00  0.00000000000E+00  0.13774180468E+03  0.13774180468E+03  0.00000000000E+00 0.  1.
          1   -1    0    0  501    0  0.00000000000E+00 -0.00000000000E+00 -0.96071416412E+02  0.96071416412E+02  0.00000000000E+00 0. -1.
         25    2    1    2    0    0  0.31234223033E+02  0.19926254978E+02  0.33582003803E+02  0.13471369439E+03  0.12508955253E+03 0.  0.
          5    1    3    3  502    0  0.70639778751E+00  0.62310790464E+02 -0.13919328310E+02  0.63987137040E+02  0.41800000000E+01 0.  1.
         -5    1    3    3    0  502  0.30527825246E+02 -0.42384535486E+02  0.47501332113E+02  0.70726557354E+02  0.41800000000E+01 0.  1.
        -11    1    1    2    0    0  0.18253283526E+02  0.16706301276E+02  0.25075170390E+02  0.35228497441E+02  0.00000000000E+00 0.  1.
         11    1    1    2    0    0 -0.49487506559E+02 -0.36632556254E+02 -0.16986785920E+02  0.63871029263E+02  0.00000000000E+00 0. -1.
</event>
<event>
 7    1  0.2856214E-009  0.2214966E+03  0.7561462E-02  0.1132772E+00
          2   -1    0    0  501    0  0.00000000000E+00  0.00000000000E+00  0.11740629000E+04  0.11740629000E+04  0.00000000000E+00 0. -1.
         -2   -1    0    0    0  501 -0.00000000000E+00 -0.00000000000E+00 -0.52301277162E+02  0.52301277162E+02  0.00000000000E+00 0.  1.
         25    2    1    2    0    0  0.11480460052E+03 -0.15487781705E+03  0.30561663151E+03  0.38237963262E+03  0.12508166720E+03 0.  0.
          5    1    3    3  502    0  0.72220474149E+02 -0.53812387895E+01  0.12015334794E+03  0.14035331859E+03  0.41800000000E+01 0. -1.
         -5    1    3    3    0  502  0.42584126375E+02 -0.14949657826E+03  0.18546328356E+03  0.24202631402E+03  0.41800000000E+01 0. -1.
        -11    1    1    2    0    0 -0.18756363733E+02  0.10512122987E+03  0.39844440260E+03  0.41250480738E+03  0.00000000000E+00 0.  1.
         11    1    1    2    0    0 -0.96048236792E+02  0.49756587176E+02  0.41770058873E+03  0.43147973716E+03  0.00000000000E+00 0. -1.
</event>
<event>
 7    1  0.2856214E-009  0.1523286E+03  0.7561462E-02  0.1197641E+00
         -2   -1    0    0    0  501 -0.00000000000E+00  0.00000000000E+00  0.25725878411E+02  0.25725878411E+02  0.00000000000E+00 0.  1.
          2   -1    0    0  501    0  0.00000000000E+00 -0.00000000000E+00 -0.11044810608E+04  0.11044810608E+04  0.00000000000E+00 0. -1.
         25    2    1    2    0    0 -0.10322656743E+03 -0.75735888540E+02 -0.59876902715E+03  0.62495086545E+03  0.12509031666E+03 0.  0.
          5    1    3    3  502    0 -0.92222734698E+02 -0.20278437632E+02 -0.51626481692E+03  0.52484576918E+03  0.41800000000E+01 0.  1.
         -5    1    3    3    0  502 -0.11003832730E+02 -0.55457450908E+02 -0.82504210226E+02  0.10010509628E+03  0.41800000000E+01 0.  1.
        -11    1    1    2    0    0  0.65016062673E+02 -0.38838907752E+01 -0.26392125242E+03  0.27183929166E+03  0.00000000000E+00 0.  1.
         11    1    1    2    0    0  0.38210504754E+02  0.79619779315E+02 -0.21606490279E+03  0.23341678206E+03  0.00000000000E+00 0. -1.
</event>
<event>
 7    1  0.2856214E-009  0.1239423E+03  0.7561462E-02  0.1236732E+00
          2   -1    0    0  501    0  0.00000000000E+00  0.00000000000E+00  0.86219713859E+02  0.86219713859E+02  0.00000000000E+00 0. -1.
         -2   -1    0    0    0  501 -0.00000000000E+00 -0.00000000000E+00 -0.29982987975E+03  0.29982987975E+03  0.00000000000E+00 0.  1.
         25    2    1    2    0    0 -0.69950678990E+02  0.86993486446E+02 -0.16331029841E+03  0.23404892416E+03  0.12509069174E+03 0.  0.
          5    1    3    3  502    0 -0.57383670152E+02  0.35875261189E+02 -0.59498429523E+01  0.68064623680E+02  0.41800000000E+01 0. -1.
         -5    1    3    3    0  502 -0.12567008838E+02  0.51118225257E+02 -0.15736045546E+03  0.16598430048E+03  0.41800000000E+01 0. -1.
        -11    1    1    2    0    0  0.59384149696E+02 -0.25075195183E+02 -0.60451630360E+02  0.88372180361E+02  0.00000000000E+00 0.  1.
         11    1    1    2    0    0  0.10566529293E+02 -0.61918291262E+02  0.10151762877E+02  0.63628489088E+02  0.00000000000E+00 0. -1.
</event>
<event>
 7    1  0.2856214E-009  0.1054194E+03  0.7561462E-02  0.1269296E+00
         -1   -1    0    0    0  501 -0.00000000000E+00  0.00000000000E+00  0.17460945532E+02  0.17460945532E+02  0.00000000000E+00 0.  1.
          1   -1    0    0  501    0  0.00000000000E+00 -0.00000000000E+00 -0.11821157424E+04  0.11821157424E+04  0.00000000000E+00 0. -1.
         25    2    1    2    0    0 -0.60113420729E+02  0.68563915945E+02 -0.72935674900E+03  0.74560277623E+03  0.12509036207E+03 0.  0.
          5    1    3    3  502    0 -0.12169758032E+02  0.21902318238E+02 -0.18092876110E+02  0.31187162755E+02  0.41800000000E+01 0. -1.
         -5    1    3    3    0  502 -0.47943662698E+02  0.46661597707E+02 -0.71126387289E+03  0.71441561347E+03  0.41800000000E+01 0. -1.
        -11    1    1    2    0    0  0.52032251769E+02 -0.85243815350E+02 -0.41336605034E+03  0.42525916199E+03  0.00000000000E+00 0. -1.
         11    1    1    2    0    0  0.80811689600E+01  0.16679899405E+02 -0.21931997530E+02  0.28714749722E+02  0.00000000000E+00 0.  1.
</event>
<event>
 7    1  0.2856214E-009  0.1510817E+03  0.7561462E-02  0.1199150E+00
          2   -1    0    0  501    0  0.00000000000E+00  0.00000000000E+00  0.35804696869E+02  0.35804696869E+02  0.00000000000E+00 0.  1.
         -2   -1    0    0    0  501 -0.00000000000E+00 -0.00000000000E+00 -0.72099674301E+03  0.72099674301E+03  0.00000000000E+00 0. -1.
         25    2    1    2    0    0 -0.66830569952E+02  0.90380154260E+02 -0.46546247270E+03  0.49491215646E+03  0.12509129368E+03 0.  0.
          5    1    3    3  502    0 -0.23316741926E+02 -0.30295904409E+02 -0.13596020386E+03  0.14129459194E+03  0.41800000000E+01 0. -1.
         -5    1    3    3    0  502 -0.43513828026E+02  0.12067605867E+03 -0.32950226884E+03  0.35361756452E+03  0.41800000000E+01 0. -1.
        -11    1    1    2    0    0 -0.36629372827E+01 -0.57421832975E+02 -0.13552378634E+03  0.14723240362E+03  0.00000000000E+00 0. -1.
         11    1    1    2    0    0  0.70493507235E+02 -0.32958321285E+02 -0.84205787100E+02  0.11465687980E+03  0.00000000000E+00 0.  1.
</event>
<event>
 7    1  0.2856214E-009  0.7812339E+02  0.7561462E-02  0.1334463E+00
         -2   -1    0    0    0  501 -0.00000000000E+00  0.00000000000E+00  0.92024508681E+01  0.92024508681E+01  0.00000000000E+00 0.  1.
          2   -1    0    0  501    0  0.00000000000E+00 -0.00000000000E+00 -0.14132938910E+04  0.14132938910E+04  0.00000000000E+00 0. -1.
         25    2    1    2    0    0 -0.22598792507E+02  0.16573532350E+02 -0.86047518292E+03  0.86997043297E+03  0.12508247853E+03 0.  0.
          5    1    3    3  502    0  0.10551280621E+02 -0.97548473939E+01 -0.90617708907E+01  0.17494989628E+02  0.41800000000E+01 0.  1.
         -5    1    3    3    0  502 -0.33150073128E+02  0.26328379744E+02 -0.85141341203E+03  0.85247544335E+03  0.41800000000E+01 0.  1.
        -11    1    1    2    0    0 -0.35143596986E+02  0.79114980844E+01 -0.18761082512E+03  0.19103791747E+03  0.00000000000E+00 0. -1.
         11    1    1    2    0    0  0.57742389493E+02 -0.24485030435E+02 -0.35600543212E+03  0.36148799145E+03  0.00000000000E+00 0.  1.
</event>
<event>
 7    1  0.2856214E-009  0.1376383E+03  0.7561462E-02  0.1216543E+00
         -2   -1    0    0    0  501 -0.00000000000E+00  0.00000000000E+00  0.77018181892E+02  0.77018181892E+02  0.00000000000E+00 0. -1.
          2   -1    0    0  501    0  0.00000000000E+00 -0.00000000000E+00 -0.27614051019E+03  0.27614051019E+03  0.00000000000E+00 0.  1.
         25    2    1    2    0    0 -0.34565731931E+02  0.87015566575E+02 -0.13756228287E+03  0.20817149105E+03  0.12508193062E+03 0.  0.
          5    1    3    3  502    0 -0.30609707679E+02  0.11484913478E+03 -0.13456772468E+03  0.17959182300E+03  0.41800000000E+01 0. -1.
         -5    1    3    3    0  502 -0.39560242519E+01 -0.27833568204E+02 -0.29945581895E+01  0.28579668046E+02  0.41800000000E+01 0. -1.
        -11    1    1    2    0    0  0.51251131942E+02 -0.14146506204E+02 -0.98035722035E+01  0.54063963886E+02  0.00000000000E+00 0. -1.
         11    1    1    2    0    0 -0.16685400011E+02 -0.72869060371E+02 -0.51756473227E+02  0.90923237150E+02  0.00000000000E+00 0.  1.
</event>
<event>
 7    1  0.2856214E-009  0.1983552E+03  0.7561462E-02  0.1151134E+00
          2   -1    0    0  501    0  0.00000000000E+00  0.00000000000E+00  0.20383375599E+04  0.20383375599E+04  0.00000000000E+00 0. -1.
         -2   -1    0    0    0  501 -0.00000000000E+00 -0.00000000000E+00 -0.21940743203E+02  0.21940743203E+02  0.00000000000E+00 0.  1.
         25    2    1    2    0    0 -0.15012975807E+03  0.10111958066E+03  0.10005194220E+04  0.10244279982E+04  0.12509794500E+03 0.  0.
          5    1    3    3  502    0 -0.94416167568E+01 -0.10436430202E+02  0.10012186624E+02  0.17770185237E+02  0.41800000000E+01 0. -1.
         -5    1    3    3    0  502 -0.14068814132E+03  0.11155601086E+03  0.99050723539E+03  0.10066578130E+04  0.41800000000E+01 0. -1.
        -11    1    1    2    0    0  0.12583258183E+03 -0.32970164411E+02  0.65449611828E+03  0.66729756424E+03  0.00000000000E+00 0.  1.
         11    1    1    2    0    0  0.24297176240E+02 -0.68149416251E+02  0.36138127641E+03  0.36855274066E+03  0.00000000000E+00 0. -1.
</event>
<event>
 7    1  0.2856214E-009  0.9638375E+02  0.7561462E-02  0.1288090E+00
         -2   -1    0    0    0  501 -0.00000000000E+00  0.00000000000E+00  0.26717516048E+02  0.26717516048E+02  0.00000000000E+00 0. -1.
          2   -1    0    0  501    0  0.00000000000E+00 -0.00000000000E+00 -0.59116770671E+03  0.59116770671E+03  0.00000000000E+00 0.  1.
         25    2    1    2    0    0 -0.25789782474E+01  0.31801704635E+01 -0.46772818038E+03  0.48418499277E+03  0.12509473166E+03 0.  0.
          5    1    3    3  502    0  0.47248604280E+02 -0.25713977759E+02 -0.33668479031E+03  0.34098058550E+03  0.41800000000E+01 0. -1.
         -5    1    3    3    0  502 -0.49827582527E+02  0.28894148222E+02 -0.13104339007E+03  0.14320440727E+03  0.41800000000E+01 0. -1.
        -11    1    1    2    0    0 -0.36567849984E+02  0.12850686568E+02 -0.78684421240E+02  0.87713088782E+02  0.00000000000E+00 0.  1.
         11    1    1    2    0    0  0.39146828231E+02 -0.16030857031E+02 -0.18037589040E+02  0.45987141204E+02  0.00000000000E+00 0. -1.
</event>
<event>
 7    1  0.2856214E-009  0.1010451E+03  0.7561462E-02  0.1278113E+00
         -3   -1    0    0    0  501 -0.00000000000E+00  0.00000000000E+00  0.78923314401E+02  0.78923314401E+02  0.00000000000E+00 0.  1.
          3   -1    0    0  501    0  0.00000000000E+00 -0.00000000000E+00 -0.16100072329E+03  0.16100072329E+03  0.00000000000E+00 0. -1.
         25    2    1    2    0    0 -0.21794033433E+02 -0.25592071342E+02 -0.40261403885E+02  0.13563572616E+03  0.12508451367E+03 0.  0.
          5    1    3    3  502    0 -0.53554993601E+02  0.22623848045E+02  0.97975225217E+01  0.59105327065E+02  0.41800000000E+01 0.  1.
         -5    1    3    3    0  502  0.31760960168E+02 -0.48215919387E+02 -0.50058926407E+02  0.76530399098E+02  0.41800000000E+01 0.  1.
        -11    1    1    2    0    0  0.51588070241E+02  0.21303146066E+02 -0.47933805888E+02  0.73571752530E+02  0.00000000000E+00 0.  1.
         11    1    1    2    0    0 -0.29794036808E+02  0.42889252757E+01  0.61178008794E+01  0.30716559002E+02  0.00000000000E+00 0. -1.
</event>
<event>
 7    1  0.2856214E-009  0.1375768E+03  0.7561462E-02  0.1216627E+00
          1   -1    0    0  501    0  0.00000000000E+00  0.00000000000E+00  0.75519647103E+02  0.75519647103E+02  0.00000000000E+00 0. -1.
         -1   -1    0    0    0  501 -0.00000000000E+00 -0.00000000000E+00 -0.27551771193E+03  0.27551771193E+03  0.00000000000E+00 0.  1.
         25    2    1    2    0    0 -0.87368127927E+02  0.32946179458E+02 -0.12935224099E+03  0.20272684938E+03  0.12509009829E+03 0.  0.
          5    1    3    3  502    0 -0.10915823824E+03 -0.79883925291E+01 -0.89965391531E+02  0.14174124123E+03  0.41800000000E+01 0.  1.
         -5    1    3    3    0  502  0.21790110314E+02  0.40934571987E+02 -0.39386849456E+02  0.60985608149E+02  0.41800000000E+01 0.  1.
        -11    1    1    2    0    0  0.69768792092E+02  0.12000388630E+02 -0.70686177077E+02  0.10004113807E+03  0.00000000000E+00 0.  1.
         11    1    1    2    0    0  0.17599335835E+02 -0.44946568087E+02  0.40353237547E-01  0.48269371583E+02  0.00000000000E+00 0. -1.
</event>
<event>
 7    1  0.2856214E-009  0.9973621E+02  0.7561462E-02  0.1280852E+00
          3   -1    0    0  501    0  0.00000000000E+00  0.00000000000E+00  0.81292043370E+02  0.81292043370E+02  0.00000000000E+00 0. -1.
         -3   -1    0    0    0  501 -0.00000000000E+00 -0.00000000000E+00 -0.15023671753E+03  0.15023671753E+03  0.00000000000E+00 0.  1.
         25    2    1    2    0    0 -0.97447406211E+01 -0.40004686279E+01 -0.18299231746E+02  0.12686334066E+03  0.12509389115E+03 0.  0.
          5    1    3    3  502    0 -0.62818399722E+02  0.18882524708E+02 -0.20569173040E+02  0.68871360975E+02  0.41800000000E+01 0.  1.
         -5    1    3    3    0  502  0.53073659101E+02 -0.22882993336E+02  0.22699412945E+01  0.57991979685E+02  0.41800000000E+01 0.  1.
        -11    1    1    2    0    0 -0.24585229247E+02  0.25394989092E+02 -0.53491474839E+02  0.64114560347E+02  0.00000000000E+00 0.  1.
         11    1    1    2    0    0  0.34329969868E+02 -0.21394520465E+02  0.28460324294E+01  0.40550859888E+02  0.00000000000E+00 0. -1.
</event>
<event>
 7    1  0.2856214E-009  0.1653543E+03  0.7561462E-02  0.1182781E+00
         -2   -1    0    0    0  501 -0.00000000000E+00  0.00000000000E+00  0.18427377900E+02  0.18427377900E+02  0.00000000000E+00 0.  1.
          2   -1    0    0  501    0  0.00000000000E+00 -0.00000000000E+00 -0.21107596923E+04  0.21107596923E+04  0.00000000000E+00 0. -1.
         25    2    1    2    0    0  0.15127994705E+03 -0.36317592475E+02 -0.13696912105E+04  0.13841624614E+04  0.12508843845E+03 0.  0.
          5    1    3    3  502    0  0.10355249971E+03 -0.18730238928E+02 -0.12447805516E+04  0.12492277759E+04  0.41800000000E+01 0.  1.
         -5    1    3    3    0  502  0.47727447335E+02 -0.17587353547E+02 -0.12491065889E+03  0.13493468545E+03  0.41800000000E+01 0.  1.
        -11    1    1    2    0    0 -0.11600915502E+03 -0.96575926759E+01 -0.37711901471E+03  0.39467726613E+03  0.00000000000E+00 0.  1.
         11    1    1    2    0    0 -0.35270792022E+02  0.45975185151E+02 -0.34552208920E+03  0.35034734271E+03  0.00000000000E+00 0. -1.
</event>
<event>
 7    1  0.2856214E-009  0.2300003E+03  0.7561462E-02  0.1126640E+00
          1   -1    0    0  501    0  0.00000000000E+00  0.00000000000E+00  0.38860698535E+03  0.38860698535E+03  0.00000000000E+00 0. -1.
         -1   -1    0    0    0  501 -0.00000000000E+00 -0.00000000000E+00 -0.22032207488E+03  0.22032207488E+03  0.00000000000E+00 0.  1.
         25    2    1    2    0    0  0.20635848446E+03  0.10811848676E+02  0.26623442041E+03  0.35948459710E+03  0.12509072213E+03 0.  0.
          5    1    3    3  502    0  0.12534554796E+03  0.63623691190E+02  0.18939334516E+03  0.23589572286E+03  0.41800000000E+01 0. -1.
         -5    1    3    3    0  502  0.81012936498E+02 -0.52811842514E+02  0.76841075251E+02  0.12358887424E+03  0.41800000000E+01 0. -1.
        -11    1    1    2    0    0 -0.16749956290E+03 -0.42070264454E+02 -0.99938862828E+02  0.19953392450E+03  0.00000000000E+00 0.  1.
         11    1    1    2    0    0 -0.38858921557E+02  0.31258415778E+02  0.19893528754E+01  0.49910538630E+02  0.00000000000E+00 0. -1.
</event>
<event>
 7    1  0.2856214E-009  0.1111950E+03  0.7561462E-02  0.1258373E+00
          2   -1    0    0  501    0  0.00000000000E+00  0.00000000000E+00  0.14552844930E+03  0.14552844930E+03  0.00000000000E+00 0.  1.
         -2   -1    0    0    0  501 -0.00000000000E+00 -0.00000000000E+00 -0.10195625183E+03  0.10195625183E+03  0.00000000000E+00 0. -1.
         25    2    1    2    0    0  0.49479532939E+02  0.16832056368E+01 -0.14269912003E+01  0.13454075101E+03  0.12509244588E+03 0.  0.
          5    1    3    3  502    0  0.28382689531E+02 -0.52977775789E+02  0.30669182242E+02  0.67603941690E+02  0.41800000000E+01 0.  1.
         -5    1    3    3    0  502  0.21096843407E+02  0.54660981426E+02 -0.32096173442E+02  0.66936809319E+02  0.41800000000E+01 0.  1.
        -11    1    1    2    0    0  0.43050390571E+01  0.36938377979E+02  0.12931404566E+02  0.39372558376E+02  0.00000000000E+00 0.  1.
         11    1    1    2    0    0 -0.53784571996E+02 -0.38621583616E+02  0.32067784105E+02  0.73571391744E+02  0.00000000000E+00 0. -1.
</event>
<event>
 7    1  0.2856214E-009  0.2488597E+03  0.7561462E-02  0.1114028E+00
          2   -1    0    0  501    0  0.00000000000E+00  0.00000000000E+00  0.10887613505E+04  0.10887613505E+04  0.00000000000E+00 0.  1.
         -2   -1    0    0    0  501 -0.00000000000E+00 -0.00000000000E+00 -0.71179987432E+02  0.71179987432E+02  0.00000000000E+00 0. -1.
         25    2    1    2    0    0  0.72333354841E+02  0.23660532085E+03  0.38318256024E+03  0.47295495511E+03  0.12507327058E+03 0.  0.
          5    1    3    3  502    0 -0.11308481199E+00  0.38593372193E+02  0.39383856543E+01  0.39018514156E+02  0.41800000000E+01 0. -1.
         -5    1    3    3    0  502  0.72446439653E+02  0.19801194866E+03  0.37924417458E+03  0.43393644095E+03  0.41800000000E+01 0. -1.
        -11    1    1    2    0    0 -0.25836581026E+02 -0.11382474342E+03  0.41692599177E+03  0.43295598361E+03  0.00000000000E+00 0. -1.
         11    1    1    2    0    0 -0.46496773815E+02 -0.12278057743E+03  0.21747281102E+03  0.25403039917E+03  0.00000000000E+00 0.  1.
</event>
<event>
 7    1  0.2856214E-009  0.1005682E+03  0.7561462E-02  0.1279106E+00
         -4   -1    0    0    0  501 -0.00000000000E+00  0.00000000000E+00  0.22964174371E+03  0.22964174371E+03  0.00000000000E+00 0.  1.
          4   -1    0    0  501    0  0.00000000000E+00 -0.00000000000E+00 -0.84325058504E+02  0.84325058504E+02  0.00000000000E+00 0. -1.
         25    2    1    2    0    0 -0.33525728747E+02  0.47970160898E+02  0.79275688411E+01  0.13833280619E+03  0.12509199853E+03 0.  0.
          5    1    3    3  502    0 -0.42437690859E+02 -0.33867836052E+02 -0.58207693097E+01  0.54766245806E+02  0.41800000000E+01 0.  1.
         -5    1    3    3    0  502  0.89119621117E+01  0.81837996949E+02  0.13748338151E+02  0.83566560389E+02  0.41800000000E+01 0.  1.
        -11    1    1    2    0    0  0.72374855429E+01 -0.33443176470E+02 -0.79181972534E+00  0.34226513522E+02  0.00000000000E+00 0. -1.
         11    1    1    2    0    0  0.26288243205E+02 -0.14526984427E+02  0.13818093609E+03  0.14140748250E+03  0.00000000000E+00 0.  1.
</event>
<event>
 7    1  0.2856214E-009  0.9938230E+02  0.7561462E-02  0.1281600E+00
         -2   -1    0    0    0  501 -0.00000000000E+00  0.00000000000E+00  0.27531590942E+02  0.27531590942E+02  0.00000000000E+00 0.  1.
          2   -1    0    0  501    0  0.00000000000E+00 -0.00000000000E+00 -0.77163146341E+03  0.77163146341E+03  0.00000000000E+00 0. -1.
         25    2    1    2    0    0  0.53335801968E+02 -0.78915885783E+02 -0.34409022088E+03  0.37831165958E+03  0.12509679001E+03 0.  0.
          5    1    3    3  502    0  0.53763389213E+02 -0.66510455025E+02 -0.91250814985E+02  0.12513323413E+03  0.41800000000E+01 0.  1.
         -5    1    3    3    0  502 -0.42758724482E+00 -0.12405430757E+02 -0.25283940590E+03  0.25317842546E+03  0.41800000000E+01 0.  1.
        -11    1    1    2    0    0 -0.49770164325E+02  0.48756314699E+02 -0.37526305554E+03  0.38167605156E+03  0.00000000000E+00 0. -1.
         11    1    1    2    0    0 -0.35656376429E+01  0.30159571083E+02 -0.24746596044E+02  0.39175343208E+02  0.00000000000E+00 0.  1.
</event>
<event>
 7    1  0.2856214E-009  0.1134757E+03  0.7561462E-02  0.1254266E+00
          1   -1    0    0  501    0  0.00000000000E+00  0.00000000000E+00  0.93852206673E+02  0.93852206673E+02  0.00000000000E+00 0. -1.
         -1   -1    0    0    0  501 -0.00000000000E+00 -0.00000000000E+00 -0.14567714341E+03  0.14567714341E+03  0.00000000000E+00 0.  1.
         25    2    1    2    0    0 -0.84011560957E+01  0.34192901276E+02 -0.33686803689E+02  0.13424588808E+03  0.12508966305E+03 0.  0.
          5    1    3    3  502    0 -0.22728661666E+01 -0.47447882380E+02 -0.81032240571E+01  0.48369433562E+02  0.41800000000E+01 0. -1.
         -5    1    3    3    0  502 -0.61282899291E+01  0.81640783656E+02 -0.25583579632E+02  0.85876454516E+02  0.41800000000E+01 0. -1.
        -11    1    1    2    0    0  0.48499330165E+02 -0.73949272342E+01 -0.27371617748E+02  0.56178958992E+02  0.00000000000E+00 0.  1.
         11    1    1    2    0    0 -0.40098174069E+02 -0.26797974042E+02  0.92334847012E+01  0.49104503013E+02  0.00000000000E+00 0. -1.
</event>
<event>
 7    1  0.2856214E-009  0.9973197E+02  0.7561462E-02  0.1280861E+00
          1   -1    0    0  501    0  0.00000000000E+00  0.00000000000E+00  0.55615587861E+02  0.55615587861E+02  0.00000000000E+00 0. -1.
         -1   -1    0    0    0  501 -0.00000000000E+00 -0.00000000000E+00 -0.22616409839E+03  0.22616409839E+03  0.00000000000E+00 0.  1.
         25    2    1    2    0    0 -0.13335038926E+02 -0.94053241223E+01 -0.13544342280E+03  0.18509328079E+03  0.12509323895E+03 0.  0.
          5    1    3    3  502    0 -0.45035479227E+02 -0.47000673989E+02 -0.37051204706E+02  0.75016810881E+02  0.41800000000E+01 0. -1.
         -5    1    3    3    0  502  0.31700440301E+02  0.37595349866E+02 -0.98392218093E+02  0.11007646991E+03  0.41800000000E+01 0. -1.
        -11    1    1    2    0    0  0.26192148972E+02  0.42193990167E+02 -0.42170366485E+01  0.49841196535E+02  0.00000000000E+00 0. -1.
         11    1    1    2    0    0 -0.12857110047E+02 -0.32788666044E+02 -0.30888051085E+02  0.46845208929E+02  0.00000000000E+00 0.  1.
</event>
<event>
 7    1  0.2856214E-009  0.1775230E+03  0.7561462E-02  0.1170222E+00
         -3   -1    0    0    0  501 -0.00000000000E+00  0.00000000000E+00  0.15151097549E+03  0.15151097549E+03  0.00000000000E+00 0.  1.
          3   -1    0    0  501    0  0.00000000000E+00 -0.00000000000E+00 -0.54514674608E+03  0.54514674608E+03  0.00000000000E+00 0. -1.
         25    2    1    2    0    0 -0.13522035095E+03  0.95513570886E+02 -0.45342844679E+03  0.49865222630E+03  0.12509716583E+03 0.  0.
          5    1    3    3  502    0 -0.12573807321E+03  0.10539162393E+03 -0.45552048825E+03  0.48418368938E+03  0.41800000000E+01 0.  1.
         -5    1    3    3    0  502 -0.94822777350E+01 -0.98780530440E+01  0.20920414581E+01  0.14468536915E+02  0.41800000000E+01 0.  1.
        -11    1    1    2    0    0  0.98929106268E+02 -0.32929166934E+02  0.69069714413E+02  0.12506767588E+03  0.00000000000E+00 0.  1.
         11    1    1    2    0    0  0.36291244679E+02 -0.62584403952E+02 -0.92770382136E+01  0.72937819383E+02  0.00000000000E+00 0. -1.
</event>
<event>
 7    1  0.2856214E-009  0.9535518E+02  0.7561462E-02  0.1290378E+00
         -2   -1    0    0    0  501 -0.00000000000E+00  0.00000000000E+00  0.11658390465E+03  0.11658390465E+03  0.00000000000E+00 0.  1.
          2   -1    0    0  501    0  0.00000000000E+00 -0.00000000000E+00 -0.11179037155E+03  0.11179037155E+03  0.00000000000E+00 0. -1.
         25    2    1    2    0    0 -0.36013976181E+02 -0.36732909534E+02 -0.13836829406E+02  0.13596137282E+03  0.12509086269E+03 0.  0.
          5    1    3    3  502    0 -0.82130049997E+01 -0.66952034041E+02  0.31574861341E+02  0.74595392499E+02  0.41800000000E+01 0. -1.
         -5    1    3    3    0  502 -0.27800971181E+02  0.30219124508E+02 -0.45411690746E+02  0.61365980324E+02  0.41800000000E+01 0. -1.
        -11    1    1    2    0    0  0.46491997802E+02  0.30658643333E+01  0.29940405096E+02  0.55383510551E+02  0.00000000000E+00 0.  1.
         11    1    1    2    0    0 -0.10478021621E+02  0.33667045201E+02 -0.11310042590E+02  0.37029392825E+02  0.00000000000E+00 0. -1.
</event>
<event>
 7    1  0.3568874E-009  0.1412894E+03  0.7561462E-02  0.1211604E+00
         -1   -1    0    0    0  501 -0.00000000000E+00  0.00000000000E+00  0.10739988901E+03  0.10739988901E+03  0.00000000000E+00 0.  1.
          1   -1    0    0  501    0  0.00000000000E+00 -0.00000000000E+00 -0.34894343673E+03  0.34894343673E+03  0.00000000000E+00 0. -1.
         25    2    1    2    0    0  0.63165056617E+02  0.10415204861E+03 -0.46251659489E+01  0.17466059591E+03  0.12508979974E+03 0.  0.
          5    1    3    3  502    0 -0.28757715612E+02  0.20829233759E+02 -0.31496872257E+02  0.47648594399E+02  0.41800000000E+01 0.  1.
         -5    1    3    3    0  502  0.91922772229E+02  0.83322814850E+02  0.26871706308E+02  0.12701200151E+03  0.41800000000E+01 0.  1.
        -11    1    1    2    0    0 -0.29675884770E+02 -0.35248319460E+02 -0.18116316139E+03  0.18693098514E+03  0.00000000000E+00 0.  1.
         11    1    1    2    0    0 -0.33489171847E+02 -0.68903729149E+02 -0.55755220381E+02  0.94751744688E+02  0.00000000000E+00 0. -1.
</event>
<event>
 7    1  0.2856214E-009  0.1097264E+03  0.7561462E-02  0.1261077E+00
          4   -1    0    0  501    0  0.00000000000E+00  0.00000000000E+00  0.27884012484E+03  0.27884012484E+03  0.00000000000E+00 0.  1.
         -4   -1    0    0    0  501 -0.00000000000E+00 -0.00000000000E+00 -0.56403256806E+02  0.56403256806E+02  0.00000000000E+00 0. -1.
         25    2    1    2    0    0  0.59826840812E+02 -0.17666825614E+02  0.14118146664E+03  0.19867312894E+03  0.12508971993E+03 0.  0.
          5    1    3    3  502    0  0.15082827686E+02  0.51253472404E+02  0.79355816127E+02  0.95756086374E+02  0.41800000000E+01 0.  1.
         -5    1    3    3    0  502  0.44744013127E+02 -0.68920298018E+02  0.61825650513E+02  0.10291704257E+03  0.41800000000E+01 0.  1.
        -11    1    1    2    0    0 -0.57079773434E+02 -0.81188777877E+01  0.71953681042E+01  0.58101549325E+02  0.00000000000E+00 0. -1.
         11    1    1    2    0    0 -0.27470673788E+01  0.25785703402E+02  0.74060033290E+02  0.78468703380E+02  0.00000000000E+00 0.  1.
</event>
<event>
 7    1  0.2856214E-009  0.3022628E+03  0.7561462E-02  0.1084115E+00
          2   -1    0    0  501    0  0.00000000000E+00  0.00000000000E+00  0.12256109049E+04  0.12256109049E+04  0.00000000000E+00 0. -1.
         -2   -1    0    0    0  501 -0.00000000000E+00 -0.00000000000E+00 -0.10598011872E+03  0.10598011872E+03  0.00000000000E+00 0.  1.
         25    2    1    2    0    0 -0.28002425841E+03 -0.80232652756E+02  0.23192111967E+03  0.39279296099E+03  0.12509212842E+03 0.  0.
          5    1    3    3  502    0 -0.15397876238E+03 -0.82036745719E+02  0.19431013229E+03  0.26117692628E+03  0.41800000000E+01 0. -1.
         -5    1    3    3    0  502 -0.12604549603E+03  0.18040929632E+01  0.37610987375E+02  0.13161603471E+03  0.41800000000E+01 0. -1.
        -11    1    1    2    0    0  0.12950036869E+03  0.82120238329E+02  0.49579498222E+03  0.51896699647E+03  0.00000000000E+00 0. -1.
         11    1    1    2    0    0  0.15052388971E+03 -0.18875855729E+01  0.39191468433E+03  0.41983106620E+03  0.00000000000E+00 0.  1.
</event>
<event>
 7    1  0.2856214E-009  0.1121356E+03  0.7561462E-02  0.1256665E+00
         -2   -1    0    0    0  501 -0.00000000000E+00  0.00000000000E+00  0.74642632897E+02  0.74642632897E+02  0.00000000000E+00 0.  1.
          2   -1    0    0  501    0  0.00000000000E+00 -0.00000000000E+00 -0.17764567786E+03  0.17764567786E+03  0.00000000000E+00 0. -1.
         25    2    1    2    0    0  0.30364482541E+02 -0.78175165492E+01 -0.44539496612E+02  0.13643376683E+03  0.12508913065E+03 0.  0.
          5    1    3    3  502    0  0.40877023632E+02  0.50355535900E+02 -0.41459935583E+02  0.77090918501E+02  0.41800000000E+01 0. -1.
         -5    1    3    3    0  502 -0.10512541091E+02 -0.58173052449E+02 -0.30795610296E+01  0.59342848327E+02  0.41800000000E+01 0. -1.
        -11    1    1    2    0    0 -0.63829793540E+02 -0.53480541310E+01 -0.36828208729E+02  0.73886136620E+02  0.00000000000E+00 0. -1.
         11    1    1    2    0    0  0.33465310999E+02  0.13165570680E+02 -0.21635339622E+02  0.41968407310E+02  0.00000000000E+00 0.  1.
</event>
<event>
 7    1  0.2856214E-009  0.9473163E+02  0.7561462E-02  0.1291782E+00
          1   -1    0    0  501    0  0.00000000000E+00  0.00000000000E+00  0.61649187093E+02  0.61649187093E+02  0.00000000000E+00 0. -1.
         -1   -1    0    0    0  501 -0.00000000000E+00 -0.00000000000E+00 -0.23002165143E+03  0.23002165143E+03  0.00000000000E+00 0.  1.
         25    2    1    2    0    0  0.48203799693E+02 -0.41854863781E+01 -0.11426105892E+03  0.17619312169E+03  0.12508917597E+03 0.  0.
          5    1    3    3  502    0  0.29613942881E+02  0.36285587202E+02 -0.12204370387E+03  0.13078901906E+03  0.41800000000E+01 0.  1.
         -5    1    3    3    0  502  0.18589856811E+02 -0.40471073580E+02  0.77826449545E+01  0.45404102628E+02  0.41800000000E+01 0.  1.
        -11    1    1    2    0    0 -0.48361537435E+02  0.39470127727E+02 -0.17949139896E+02  0.64953066970E+02  0.00000000000E+00 0.  1.
         11    1    1    2    0    0  0.15773774178E+00 -0.35284641348E+02 -0.36162265521E+02  0.50524649864E+02  0.00000000000E+00 0. -1.
</event>
<event>
 7    1  0.2856214E-009  0.1194710E+03  0.7561462E-02  0.1243972E+00
         -2   -1    0    0    0  501 -0.00000000000E+00  0.00000000000E+00  0.42464024195E+02  0.42464024195E+02  0.00000000000E+00 0.  1.
          2   -1    0    0  501    0  0.00000000000E+00 -0.00000000000E+00 -0.35488145148E+03  0.35488145148E+03  0.00000000000E+00 0. -1.
         25    2    1    2    0    0  0.18226238196E+02  0.44561508572E+02 -0.21886875996E+03  0.25665044930E+03  0.12509194712E+03 0.  0.
          5    1    3    3  502    0 -0.45119994390E+02  0.53249267807E+02 -0.11739678563E+03  0.13664104834E+03  0.41800000000E+01 0.  1.
         -5    1    3    3    0  502  0.63346232586E+02 -0.86877592356E+01 -0.10147197433E+03  0.12000940096E+03  0.41800000000E+01 0.  1.
        -11    1    1    2    0    0  0.37550121171E+02 -0.84138979444E+01 -0.30805273354E+02  0.49292698698E+02  0.00000000000E+00 0. -1.
         11    1    1    2    0    0 -0.55776359367E+02 -0.36147610627E+02 -0.62743393973E+02  0.91402327681E+02  0.00000000000E+00 0.  1.
</event>
<event>
 7    1  0.2856214E-009  0.1192434E+03  0.7561462E-02  0.1244350E+00
         -1   -1    0    0    0  501 -0.00000000000E+00  0.00000000000E+00  0.18899647541E+03  0.18899647541E+03  0.00000000000E+00 0.  1.
          1   -1    0    0  501    0  0.00000000000E+00 -0.00000000000E+00 -0.13072658861E+03  0.13072658861E+03  0.00000000000E+00 0. -1.
         25    2    1    2    0    0  0.39194868852E+02  0.10618731892E+03  0.46054666991E+02  0.17487376443E+03  0.12509123347E+03 0.  0.
          5    1    3    3  502    0  0.16047732669E+02  0.27607562890E+02  0.79895743102E+02  0.86142378759E+02  0.41800000000E+01 0. -1.
         -5    1    3    3    0  502  0.23147136184E+02  0.78579756027E+02 -0.33841076110E+02  0.88731385671E+02  0.41800000000E+01 0. -1.
        -11    1    1    2    0    0 -0.50780815337E+02 -0.71591628877E+02  0.42418651439E+02  0.97485355420E+02  0.00000000000E+00 0.  1.
         11    1    1    2    0    0  0.11585946485E+02 -0.34595690040E+02 -0.30203431627E+02  0.47363944170E+02  0.00000000000E+00 0. -1.
</event>
<event>
 7    1  0.2856214E-009  0.1333399E+03  0.7561462E-02  0.1222582E+00
          2   -1    0    0  501    0  0.00000000000E+00  0.00000000000E+00  0.15102632715E+02  0.15102632715E+02  0.00000000000E+00 0. -1.
         -2   -1    0    0    0  501 -0.00000000000E+00 -0.00000000000E+00 -0.12277921568E+04  0.12277921568E+04  0.00000000000E+00 0.  1.
         25    2    1    2    0    0 -0.25118426542E+02  0.74987073060E+02 -0.78182105418E+03  0.79570441789E+03  0.12508942165E+03 0.  0.
          5    1    3    3  502    0 -0.37952518748E+02 -0.25938361375E+02 -0.24770210233E+03  0.25196625998E+03  0.41800000000E+01 0. -1.
         -5    1    3    3    0  502  0.12834092206E+02  0.10092543444E+03 -0.53411895186E+03  0.54373815791E+03  0.41800000000E+01 0. -1.
        -11    1    1    2    0    0 -0.32861705713E+02 -0.18319458992E+02 -0.11079345626E+03  0.11700719735E+03  0.00000000000E+00 0. -1.
         11    1    1    2    0    0  0.57980132256E+02 -0.56667614068E+02 -0.32007501369E+03  0.33018317433E+03  0.00000000000E+00 0.  1.
</event>
<event>
 7    1  0.4045322E-009  0.1183164E+03  0.7561462E-02  0.1245901E+00
          2   -1    0    0  501    0  0.00000000000E+00  0.00000000000E+00  0.31152529119E+03  0.31152529119E+03  0.00000000000E+00 0.  1.
         -2   -1    0    0    0  501 -0.00000000000E+00 -0.00000000000E+00 -0.68786963372E+02  0.68786963372E+02  0.00000000000E+00 0. -1.
         25    2    1    2    0    0 -0.87286349681E+01 -0.79665962432E+02  0.58528992496E+02  0.15967198337E+03  0.12508654873E+03 0.  0.
          5    1    3    3  502    0 -0.64870008409E+02 -0.36811512213E+02  0.46251221611E+02  0.87862695855E+02  0.41800000000E+01 0.  1.
         -5    1    3    3    0  502  0.56141373441E+02 -0.42854450219E+02  0.12277770884E+02  0.71809287514E+02  0.41800000000E+01 0.  1.
        -11    1    1    2    0    0 -0.16980535853E+02  0.44387945060E+02  0.16714701473E+03  0.17377212894E+03  0.00000000000E+00 0.  1.
         11    1    1    2    0    0  0.25709170821E+02  0.35278017372E+02  0.17062320594E+02  0.46868142251E+02  0.00000000000E+00 0. -1.
</event>
<event>
 7    1  0.2856214E-009  0.1597556E+03  0.7561462E-02  0.1188973E+00
         -2   -1    0    0    0  501 -0.00000000000E+00  0.00000000000E+00  0.50365233429E+02  0.50365233429E+02  0.00000000000E+00 0.  1.
          2   -1    0    0  501    0  0.00000000000E+00 -0.00000000000E+00 -0.62677989196E+03  0.62677989196E+03  0.00000000000E+00 0. -1.
         25    2    1    2    0    0  0.99143089557E+02  0.95932553565E+02 -0.35071022628E+03  0.39708127581E+03  0.12507385715E+03 0.  0.
          5    1    3    3  502    0 -0.91883546627E+01  0.49588265339E+02 -0.19679661551E+03  0.20319892273E+03  0.41800000000E+01 0.  1.
         -5    1    3    3    0  502  0.10833144422E+03  0.46344288226E+02 -0.15391361077E+03  0.19388235308E+03  0.41800000000E+01 0.  1.
        -11    1    1    2    0    0 -0.49141405440E+02 -0.79148520036E+01 -0.13594750822E+03  0.14477309005E+03  0.00000000000E+00 0. -1.
         11    1    1    2    0    0 -0.50001684117E+02 -0.88017701561E+02 -0.89756924033E+02  0.13529075953E+03  0.00000000000E+00 0.  1.
</event>
<event>
 7    1  0.2856214E-009  0.5764939E+02  0.7561462E-02  0.1407970E+00
         -1   -1    0    0    0  501 -0.00000000000E+00  0.00000000000E+00  0.80730726744E+01  0.80730726744E+01  0.00000000000E+00 0.  1.
          1   -1    0    0  501    0  0.00000000000E+00 -0.00000000000E+00 -0.15151445892E+04  0.15151445892E+04  0.00000000000E+00 0. -1.
         25    2    1    2    0    0 -0.11600539737E+02 -0.16563702217E+01 -0.10013017828E+04  0.10091535370E+04  0.12509310450E+03 0.  0.
          5    1    3    3  502    0 -0.21890002113E+01 -0.95982314632E+01 -0.34803408535E+01  0.11247352649E+02  0.41800000000E+01 0. -1.
         -5    1    3    3    0  502 -0.94115395258E+01  0.79418612415E+01 -0.99782144198E+03  0.99790618432E+03  0.41800000000E+01 0. -1.
        -11    1    1    2    0    0  0.10727681641E+02 -0.44327216919E+02 -0.27497287063E+03  0.27872937573E+03  0.00000000000E+00 0. -1.
         11    1    1    2    0    0  0.87285809596E+00  0.45983587140E+02 -0.23079686302E+03  0.23533474913E+03  0.00000000000E+00 0.  1.
</event>
<event>
 7    1  0.2856214E-009  0.1840378E+03  0.7561462E-02  0.1163951E+00
          2   -1    0    0  501    0  0.00000000000E+00  0.00000000000E+00  0.60989683392E+03  0.60989683392E+03  0.00000000000E+00 0.  1.
         -2   -1    0    0    0  501 -0.00000000000E+00 -0.00000000000E+00 -0.72561882921E+02  0.72561882921E+02  0.00000000000E+00 0. -1.
         25    2    1    2    0    0 -0.47737553862E+02  0.16536804591E+03  0.21984963975E+03  0.30595002288E+03  0.12508432254E+03 0.  0.
          5    1    3    3  502    0 -0.57878028073E+02  0.80554348800E+02  0.19175884592E+03  0.21593470456E+03  0.41800000000E+01 0.  1.
         -5    1    3    3    0  502  0.10140474211E+02  0.84813697108E+02  0.28090793829E+02  0.90015318321E+02  0.41800000000E+01 0.  1.
        -11    1    1    2    0    0 -0.64896523922E+01 -0.91033310487E+02  0.23807210676E+03  0.25496569813E+03  0.00000000000E+00 0.  1.
         11    1    1    2    0    0  0.54227206254E+02 -0.74334735421E+02  0.79413204490E+02  0.12154299583E+03  0.00000000000E+00 0. -1.
</event>
<event>
 7    1  0.2856214E-009  0.2174600E+03  0.7561462E-02  0.1135791E+00
         -2   -1    0    0    0  501 -0.00000000000E+00  0.00000000000E+00  0.36081736370E+03  0.36081736370E+03  0.00000000000E+00 0.  1.
          2   -1    0    0  501    0  0.00000000000E+00 -0.00000000000E+00 -0.14611088667E+03  0.14611088667E+03  0.00000000000E+00 0. -1.
         25    2    1    2    0    0 -0.17279187549E+03 -0.86202024797E+02  0.17832364860E+03  0.29109148472E+03  0.12508839879E+03 0.  0.
          5    1    3    3  502    0 -0.43995584165E+02  0.31380329331E+02  0.56655389643E+02  0.78406900656E+02  0.41800000000E+01 0. -1.
         -5    1    3    3    0  502 -0.12879629133E+03 -0.11758235413E+03  0.12166825896E+03  0.21268458407E+03  0.41800000000E+01 0. -1.
        -11    1    1    2    0    0  0.10165123814E+03  0.88955569818E+02 -0.17175842216E+01  0.13508892521E+03  0.00000000000E+00 0.  1.
         11    1    1    2    0    0  0.71140637349E+02 -0.27535450215E+01  0.38100412648E+02  0.80747840445E+02  0.00000000000E+00 0. -1.
</event>
<event>
 7    1  0.2856214E-009  0.1068889E+03  0.7561462E-02  0.1266442E+00
         -2   -1    0    0    0  501 -0.00000000000E+00  0.00000000000E+00  0.28126786679E+02  0.28126786679E+02  0.00000000000E+00 0. -1.
          2   -1    0    0  501    0  0.00000000000E+00 -0.00000000000E+00 -0.70442025833E+03  0.70442025833E+03  0.00000000000E+00 0.  1.
         25    2    1    2    0    0 -0.61809014771E+02  0.35074768619E+02 -0.50888042862E+03  0.52882749744E+03  0.12509451513E+03 0.  0.
          5    1    3    3  502    0 -0.96871934808E+02  0.43476669494E+02 -0.34591617808E+03  0.36186995897E+03  0.41800000000E+01 0.  1.
         -5    1    3    3    0  502  0.35062920038E+02 -0.84019008750E+01 -0.16296425054E+03  0.16695753848E+03  0.41800000000E+01 0.  1.
        -11    1    1    2    0    0  0.45459424771E+02 -0.23406516424E+02 -0.17494769453E+03  0.18226661827E+03  0.00000000000E+00 0.  1.
         11    1    1    2    0    0  0.16349590000E+02 -0.11668252195E+02  0.75346515010E+01  0.21452929303E+02  0.00000000000E+00 0. -1.
</event>
<event>
 7    1  0.2856214E-009  0.1108872E+03  0.7561462E-02  0.1258936E+00
          2   -1    0    0  501    0  0.00000000000E+00  0.00000000000E+00  0.58808402014E+02  0.58808402014E+02  0.00000000000E+00 0. -1.
         -2   -1    0    0    0  501 -0.00000000000E+00 -0.00000000000E+00 -0.26379515457E+03  0.26379515457E+03  0.00000000000E+00 0.  1.
         25    2    1    2    0    0 -0.52105937665E+02 -0.97782785867E+00 -0.73106949393E+02  0.15397128972E+03  0.12508615879E+03 0.  0.
          5    1    3    3  502    0  0.13824805615E+01 -0.52445599525E+02 -0.57602082631E+02  0.78025152902E+02  0.41800000000E+01 0.  1.
         -5    1    3    3    0  502 -0.53488418227E+02  0.51467771666E+02 -0.15504866762E+02  0.75946136821E+02  0.41800000000E+01 0.  1.
        -11    1    1    2    0    0  0.45484062423E+01  0.35652505951E+02 -0.88491133322E+02  0.95511621579E+02  0.00000000000E+00 0.  1.
         11    1    1    2    0    0  0.47557531423E+02 -0.34674678092E+02 -0.43388669839E+02  0.73120645281E+02  0.00000000000E+00 0. -1.
</event>
<event>
 7    1  0.2856214E-009  0.1497379E+03  0.7561462E-02  0.1200795E+00
         -2   -1    0    0    0  501 -0.00000000000E+00  0.00000000000E+00  0.39627493137E+02  0.39627493137E+02  0.00000000000E+00 0.  1.
          2   -1    0    0  501    0  0.00000000000E+00 -0.00000000000E+00 -0.70295513824E+03  0.70295513824E+03  0.00000000000E+00 0. -1.
         25    2    1    2    0    0  0.80961523523E+02 -0.93094050718E+02 -0.28976608945E+03  0.33886898196E+03  0.12508608943E+03 0.  0.
          5    1    3    3  502    0 -0.13513026525E+02  0.13064746542E+02 -0.39649194423E+01  0.19659157517E+02  0.41800000000E+01 0.  1.
         -5    1    3    3    0  502  0.94474550048E+02 -0.10615879726E+03 -0.28580117001E+03  0.31920982444E+03  0.41800000000E+01 0.  1.
        -11    1    1    2    0    0 -0.62144387441E+02  0.24296618259E+02 -0.26893302123E+03  0.27708702687E+03  0.00000000000E+00 0.  1.
         11    1    1    2    0    0 -0.18817136083E+02  0.68797432459E+02 -0.10462853442E+03  0.12662662255E+03  0.00000000000E+00 0. -1.
</event>
<event>
 7    1  0.2856214E-009  0.1198251E+03  0.7561462E-02  0.1243386E+00
         -2   -1    0    0    0  501 -0.00000000000E+00  0.00000000000E+00  0.56929788094E+02  0.56929788094E+02  0.00000000000E+00 0.  1.
          2   -1    0    0  501    0  0.00000000000E+00 -0.00000000000E+00 -0.41315212466E+03  0.41315212466E+03  0.00000000000E+00 0. -1.
         25    2    1    2    0    0 -0.58383984263E+02 -0.63338717245E+02 -0.28654575809E+03  0.32430804746E+03  0.12508699151E+03 0.  0.
          5    1    3    3  502    0 -0.57710933309E+02 -0.99686417125E+02 -0.21504637957E+03  0.24398842462E+03  0.41800000000E+01 0. -1.
         -5    1    3    3    0  502 -0.67305095447E+00  0.36347699879E+02 -0.71499378526E+02  0.80319622843E+02  0.41800000000E+01 0. -1.
        -11    1    1    2    0    0  0.15591451922E+02  0.71149379155E+01  0.23345153701E+02  0.28960523405E+02  0.00000000000E+00 0.  1.
         11    1    1    2    0    0  0.42792532341E+02  0.56223779330E+02 -0.93021732171E+02  0.11681334188E+03  0.00000000000E+00 0. -1.
</event>
<event>
 7    1  0.2856214E-009  0.9826495E+02  0.7561462E-02  0.1283987E+00
          2   -1    0    0  501    0  0.00000000000E+00  0.00000000000E+00  0.25945891337E+03  0.25945891337E+03  0.00000000000E+00 0. -1.
         -2   -1    0    0    0  501 -0.00000000000E+00 -0.00000000000E+00 -0.83229843723E+02  0.83229843723E+02  0.00000000000E+00 0.  1.
         25    2    1    2    0    0 -0.62635196348E+02 -0.35708194050E+02  0.17188668843E+03  0.22447974951E+03  0.12509149187E+03 0.  0.
          5    1    3    3  502    0 -0.65250282375E+02 -0.12923933053E+02  0.18274835894E+02  0.69109112442E+02  0.41800000000E+01 0.  1.
         -5    1    3    3    0  502  0.26150860275E+01 -0.22784260997E+02  0.15361185253E+03  0.15537063707E+03  0.41800000000E+01 0.  1.
        -11    1    1    2    0    0 -0.14941194749E+02  0.23775359870E+02  0.24397290406E+02  0.37198586218E+02  0.00000000000E+00 0. -1.
         11    1    1    2    0    0  0.77576391097E+02  0.11932834181E+02 -0.20054909187E+02  0.81010421365E+02  0.00000000000E+00 0.  1.
</event>
<event>
 7    1  0.2856214E-009  0.9295434E+02  0.7561462E-02  0.1295851E+00
         -1   -1    0    0    0  501 -0.00000000000E+00  0.00000000000E+00  0.66364147125E+02  0.66364147125E+02  0.00000000000E+00 0.  1.
          1   -1    0    0  501    0  0.00000000000E+00 -0.00000000000E+00 -0.26184451577E+03  0.26184451577E+03  0.00000000000E+00 0. -1.
         25    2    1    2    0    0 -0.20033937624E+02  0.44796390783E+02 -0.37282274939E+02  0.13945027474E+03  0.12509330843E+03 0.  0.
          5    1    3    3  502    0  0.36784096227E+02 -0.35664859497E+01 -0.51352545144E+02  0.63406197253E+02  0.41800000000E+01 0.  1.
         -5    1    3    3    0  502 -0.56818033851E+02  0.48362876733E+02  0.14070270205E+02  0.76044077483E+02  0.41800000000E+01 0.  1.
        -11    1    1    2    0    0  0.33161363151E+02 -0.68890612346E+01 -0.14117322884E+03  0.14517925372E+03  0.00000000000E+00 0. -1.
         11    1    1    2    0    0 -0.13127425527E+02 -0.37907329549E+02 -0.17024864867E+02  0.43579134437E+02  0.00000000000E+00 0.  1.
</event>
<event>
 7    1  0.2856214E-009  0.1494914E+03  0.7561462E-02  0.1201099E+00
         -3   -1    0    0    0  501 -0.00000000000E+00  0.00000000000E+00  0.70283456043E+02  0.70283456043E+02  0.00000000000E+00 0.  1.
          3   -1    0    0  501    0  0.00000000000E+00 -0.00000000000E+00 -0.47071396393E+03  0.47071396393E+03  0.00000000000E+00 0. -1.
         25    2    1    2    0    0 -0.22961858003E+02 -0.12998022315E+03 -0.11966642402E+03  0.21769364440E+03  0.12509342286E+03 0.  0.
          5    1    3    3  502    0 -0.77533355889E+01  0.76032152859E+01  0.18639410746E+02  0.21973236639E+02  0.41800000000E+01 0.  1.
         -5    1    3    3    0  502 -0.15208522415E+02 -0.13758343843E+03 -0.13830583477E+03  0.19572040776E+03  0.41800000000E+01 0.  1.
        -11    1    1    2    0    0  0.34330800530E+02  0.23099436349E+02 -0.14125843805E+03  0.14719420554E+03  0.00000000000E+00 0. -1.
         11    1    1    2    0    0 -0.11368942526E+02  0.10688078680E+03 -0.13950564582E+03  0.17610957003E+03  0.00000000000E+00 0.  1.
</event>
<event>
 7    1  0.2856214E-009  0.7205688E+02  0.7561462E-02  0.1353235E+00
         -2   -1    0    0    0  501 -0.00000000000E+00  0.00000000000E+00  0.19182488190E+03  0.19182488190E+03  0.00000000000E+00 0.  1.
          2   -1    0    0  501    0  0.00000000000E+00 -0.00000000000E+00 -0.70564994417E+02  0.70564994417E+02  0.00000000000E+00 0. -1.
         25    2    1    2    0    0  0.38665409401E+02 -0.12171349535E+02  0.98036852259E+02  0.16401899642E+03  0.12509137121E+03 0.  0.
          5    1    3    3  502    0  0.35367331179E+02  0.61949157033E+01  0.12547301712E+03  0.13057632067E+03  0.41800000000E+01 0. -1.
         -5    1    3    3    0  502  0.32980782212E+01 -0.18366265239E+02 -0.27436164859E+02  0.33442675745E+02  0.41800000000E+01 0. -1.
        -11    1    1    2    0    0  0.17613673826E+02  0.25514551951E+02  0.26003302191E+02  0.40464868611E+02  0.00000000000E+00 0.  1.
         11    1    1    2    0    0 -0.56279083226E+02 -0.13343202416E+02 -0.27802669627E+01  0.57906011293E+02  0.00000000000E+00 0. -1.
</event>
<event>
 7    1  0.2856214E-009  0.1398988E+03  0.7561462E-02  0.1213465E+00
         -2   -1    0    0    0  501 -0.00000000000E+00  0.00000000000E+00  0.13060498651E+02  0.13060498651E+02  0.00000000000E+00 0.  1.
          2   -1    0    0  501    0  0.00000000000E+00 -0.00000000000E+00 -0.25678161408E+04  0.25678161408E+04  0.00000000000E+00 0. -1.
         25    2    1    2    0    0  0.97504454288E+02  0.37818190733E+02 -0.21456980634E+04  0.21518840938E+04  0.12509052685E+03 0.  0.
          5    1    3    3  502    0  0.11919121506E+03  0.16945006414E+02 -0.12808199686E+04  0.12864722863E+04  0.41800000000E+01 0.  1.
         -5    1    3    3    0  502 -0.21686760771E+02  0.20873184319E+02 -0.86487809475E+03  0.86541180752E+03  0.41800000000E+01 0.  1.
        -11    1    1    2    0    0  0.11102579736E+02  0.50350076447E+01 -0.48146087796E+02  0.49665524751E+02  0.00000000000E+00 0. -1.
         11    1    1    2    0    0 -0.10860703402E+03 -0.42853198378E+02 -0.36091149100E+03  0.37932702090E+03  0.00000000000E+00 0.  1.
</event>
<event>
 7    1  0.3124579E-009  0.1325106E+03  0.7561462E-02  0.1223777E+00
         -2   -1    0    0    0  501 -0.00000000000E+00  0.00000000000E+00  0.63289926810E+02  0.63289926810E+02  0.00000000000E+00 0.  1.
          2   -1    0    0  501    0  0.00000000000E+00 -0.00000000000E+00 -0.34622827921E+03  0.34622827921E+03  0.00000000000E+00 0. -1.
         25    2    1    2    0    0 -0.46665743767E+01  0.95846468895E+02 -0.19362337819E+03  0.24969221419E+03  0.12509143347E+03 0.  0.
          5    1    3    3  502    0 -0.40843507018E+02  0.11280910349E+01 -0.14012974311E+02  0.43397010311E+02  0.41800000000E+01 0. -1.
         -5    1    3    3    0  502  0.36176932642E+02  0.94718377860E+02 -0.17961040388E+03  0.20629520387E+03  0.41800000000E+01 0. -1.
        -11    1    1    2    0    0 -0.31638475428E+02 -0.73036292016E+02 -0.26730609219E+02  0.83963197582E+02  0.00000000000E+00 0.  1.
         11    1    1    2    0    0  0.36305049804E+02 -0.22810176879E+02 -0.62584364987E+02  0.75862794250E+02  0.00000000000E+00 0. -1.
</event>
<event>
 7    1  0.3123912E-009  0.1876335E+03  0.7561462E-02  0.1160613E+00
          1   -1    0    0  501    0  0.00000000000E+00  0.00000000000E+00  0.12137639027E+04  0.12137639027E+04  0.00000000000E+00 0. -1.
         -1   -1    0    0    0  501 -0.00000000000E+00 -0.00000000000E+00 -0.42586274068E+02  0.42586274068E+02  0.00000000000E+00 0.  1.
         25    2    1    2    0    0 -0.61337468896E+02  0.14038425181E+03  0.25389140864E+03  0.32183574723E+03  0.12508947826E+03 0.  0.
          5    1    3    3  502    0 -0.39555897892E+02 -0.12969622303E+02  0.41488323522E+02  0.58920569833E+02  0.41800000000E+01 0. -1.
         -5    1    3    3    0  502 -0.21781571003E+02  0.15335387411E+03  0.21240308512E+03  0.26291517740E+03  0.41800000000E+01 0. -1.
        -11    1    1    2    0    0 -0.17631360934E+02 -0.71651800709E+02  0.36150367214E+03  0.36895765395E+03  0.00000000000E+00 0.  1.
         11    1    1    2    0    0  0.78968829829E+02 -0.68732451099E+02  0.55578254787E+03  0.56555677560E+03  0.00000000000E+00 0. -1.
</event>
<event>
 7    1  0.2856214E-009  0.1119492E+03  0.7561462E-02  0.1257002E+00
         -2   -1    0    0    0  501 -0.00000000000E+00  0.00000000000E+00  0.32948778724E+03  0.32948778724E+03  0.00000000000E+00 0. -1.
          2   -1    0    0  501    0  0.00000000000E+00 -0.00000000000E+00 -0.47465976073E+02  0.47465976073E+02  0.00000000000E+00 0.  1.
         25    2    1    2    0    0  0.60548675475E+02  0.45356268856E+00  0.14938000945E+03  0.20402986037E+03  0.12508976329E+03 0.  0.
          5    1    3    3  502    0  0.77521781518E+02 -0.25571997148E+02  0.15198561290E+03  0.17257071761E+03  0.41800000000E+01 0. -1.
         -5    1    3    3    0  502 -0.16973106043E+02  0.26025559836E+02 -0.26056034586E+01  0.31459142756E+02  0.41800000000E+01 0. -1.
        -11    1    1    2    0    0 -0.57021576341E+02  0.40350108851E+02  0.87695425753E+02  0.11211636433E+03  0.00000000000E+00 0.  1.
         11    1    1    2    0    0 -0.35270991341E+01 -0.40803671540E+02  0.44946375966E+02  0.60807538611E+02  0.00000000000E+00 0. -1.
</event>
<event>
 7    1  0.2856214E-009  0.9708417E+02  0.7561462E-02  0.1286550E+00
          1   -1    0    0  501    0  0.00000000000E+00  0.00000000000E+00  0.18561413657E+03  0.18561413657E+03  0.00000000000E+00 0. -1.
         -1   -1    0    0    0  501 -0.00000000000E+00 -0.00000000000E+00 -0.66232256458E+02  0.66232256458E+02  0.00000000000E+00 0.  1.
         25    2    1    2    0    0  0.24877764342E+02  0.25803778230E+01  0.73909501551E+02  0.14743111112E+03  0.12509099327E+03 0.  0.
          5    1    3    3  502    0 -0.37308965086E+02  0.54116897124E+01 -0.13306068850E+02  0.40196630823E+02  0.41800000000E+01 0.  1.
         -5    1    3    3    0  502  0.62186729428E+02 -0.28313118895E+01  0.87215570401E+02  0.10723448030E+03  0.41800000000E+01 0.  1.
        -11    1    1    2    0    0 -0.49302446857E+02 -0.29534801589E+02  0.30676893766E+02  0.65146815595E+02  0.00000000000E+00 0.  1.
         11    1    1    2    0    0  0.24424682515E+02  0.26954423766E+02  0.14795484799E+02  0.39268466318E+02  0.00000000000E+00 0. -1.
</event>
<event>
 7    1  0.2856214E-009  0.1235033E+03  0.7561462E-02  0.1237427E+00
          2   -1    0    0  501    0  0.00000000000E+00  0.00000000000E+00  0.17848183996E+03  0.17848183996E+03  0.00000000000E+00 0. -1.
         -2   -1    0    0    0  501 -0.00000000000E+00 -0.00000000000E+00 -0.17744528814E+03  0.17744528814E+03  0.00000000000E+00 0.  1.
         25    2    1    2    0    0  0.93957691252E+02 -0.31174408575E+02 -0.10026432084E+03  0.18841448816E+03  0.12508874377E+03 0.  0.
          5    1    3    3  502    0  0.53451899503E+02  0.33767224030E+02 -0.91451163247E+02  0.11125699366E+03  0.41800000000E+01 0. -1.
         -5    1    3    3    0  502  0.40505791750E+02 -0.64941632605E+02 -0.88131575959E+01  0.77157494499E+02  0.41800000000E+01 0. -1.
        -11    1    1    2    0    0 -0.44979305217E+02  0.36225993829E+02  0.33117830937E+01  0.57848322654E+02  0.00000000000E+00 0.  1.
         11    1    1    2    0    0 -0.48978386036E+02 -0.50515852541E+01  0.97989089565E+02  0.10966431729E+03  0.00000000000E+00 0. -1.
</event>
<event>
 7    1  0.2856214E-009  0.7787847E+02  0.7561462E-02  0.1335182E+00
         -4   -1    0    0    0  501 -0.00000000000E+00  0.00000000000E+00  0.21890420982E+03  0.21890420982E+03  0.00000000000E+00 0. -1.
          4   -1    0    0  501    0  0.00000000000E+00 -0.00000000000E+00 -0.63511141247E+02  0.63511141247E+02  0.00000000000E+00 0.  1.
         25    2    1    2    0    0 -0.16545816962E+02 -0.38679551657E+01  0.14246575470E+03  0.19035020013E+03  0.12509189538E+03 0.  0.
          5    1    3    3  502    0 -0.19864418068E+01 -0.32521049215E+02 -0.10110582655E+02  0.34369475915E+02  0.41800000000E+01 0.  1.
         -5    1    3    3    0  502 -0.14559375155E+02  0.28653094049E+02  0.15257633736E+03  0.15598072421E+03  0.41800000000E+01 0.  1.
        -11    1    1    2    0    0  0.34655635108E+02 -0.33983142704E+02  0.14308001404E+01  0.48558358928E+02  0.00000000000E+00 0.  1.
         11    1    1    2    0    0 -0.18109818146E+02  0.37851097869E+02  0.11496513727E+02  0.43506792011E+02  0.00000000000E+00 0. -1.
</event>
<event>
 7    1  0.2856214E-009  0.2407747E+03  0.7561462E-02  0.1119278E+00
          2   -1    0    0  501    0  0.00000000000E+00  0.00000000000E+00  0.29045203719E+04  0.29045203719E+04  0.00000000000E+00 0. -1.
         -2   -1    0    0    0  501 -0.00000000000E+00 -0.00000000000E+00 -0.23882989493E+02  0.23882989493E+02  0.00000000000E+00 0.  1.
         25    2    1    2    0    0  0.95265720707E+02  0.19610602347E+03  0.20348734651E+04  0.20503392142E+04  0.12509094381E+03 0.  0.
          5    1    3    3  502    0  0.50887070761E+02  0.47834265658E+01  0.58003932239E+03  0.58230186592E+03  0.41800000000E+01 0.  1.
         -5    1    3    3    0  502  0.44378649946E+02  0.19132259690E+03  0.14548341427E+04  0.14680373483E+04  0.41800000000E+01 0.  1.
        -11    1    1    2    0    0  0.15329767250E+02 -0.37025552008E+02  0.19480778582E+03  0.19888681878E+03  0.00000000000E+00 0.  1.
         11    1    1    2    0    0 -0.11059548796E+03 -0.15908047146E+03  0.65095613148E+03  0.67917732844E+03  0.00000000000E+00 0. -1.
</event>
<event>
 7    1  0.2856214E-009  0.1562605E+03  0.7561462E-02  0.1192984E+00
         -2   -1    0    0    0  501 -0.00000000000E+00  0.00000000000E+00  0.12229648143E+03  0.12229648143E+03  0.00000000000E+00 0. -1.
          2   -1    0    0  501    0  0.00000000000E+00 -0.00000000000E+00 -0.32860647575E+03  0.32860647575E+03  0.00000000000E+00 0.  1.
         25    2    1    2    0    0  0.12049083071E+03  0.82658082954E+02 -0.12688278878E+02  0.19276458452E+03  0.12508714426E+03 0.  0.
          5    1    3    3  502    0  0.73719118449E+02  0.12776128974E+02 -0.60172515605E+02  0.96103808096E+02  0.41800000000E+01 0. -1.
         -5    1    3    3    0  502  0.46771712266E+02  0.69881953980E+02  0.47484236727E+02  0.96660776419E+02  0.41800000000E+01 0. -1.
        -11    1    1    2    0    0 -0.33766524956E+02 -0.50807368994E+02 -0.25126777472E+02  0.65976676923E+02  0.00000000000E+00 0.  1.
         11    1    1    2    0    0 -0.86724305758E+02 -0.31850713960E+02 -0.16849493797E+03  0.19216169574E+03  0.00000000000E+00 0. -1.
</event>
<event>
 7    1  0.2856214E-009  0.1090851E+03  0.7561462E-02  0.1262273E+00
         -1   -1    0    0    0  501 -0.00000000000E+00  0.00000000000E+00  0.20975095235E+02  0.20975095235E+02  0.00000000000E+00 0.  1.
          1   -1    0    0  501    0  0.00000000000E+00 -0.00000000000E+00 -0.58175681726E+03  0.58175681726E+03  0.00000000000E+00 0. -1.
         25    2    1    2    0    0 -0.12259975126E+02 -0.19729016502E+02 -0.33673715592E+03  0.35997129708E+03  0.12509149236E+03 0.  0.
          5    1    3    3  502    0 -0.65954186063E+02 -0.27511578109E+02 -0.16613612827E+03  0.18090198204E+03  0.41800000000E+01 0. -1.
         -5    1    3    3    0  502  0.53694210936E+02  0.77825616078E+01 -0.17060102765E+03  0.17906931504E+03  0.41800000000E+01 0. -1.
        -11    1    1    2    0    0 -0.32805513388E+02 -0.14213115181E+02 -0.10727893498E+03  0.11307954829E+03  0.00000000000E+00 0. -1.
         11    1    1    2    0    0  0.45065488514E+02  0.33942131683E+02 -0.11676563113E+03  0.12968106712E+03  0.00000000000E+00 0.  1.
</event>
<event>
 7    1  0.2856214E-009  0.1700786E+03  0.7561462E-02  0.1177766E+00
          1   -1    0    0  501    0  0.00000000000E+00  0.00000000000E+00  0.33046258765E+03  0.33046258765E+03  0.00000000000E+00 0. -1.
         -1   -1    0    0    0  501 -0.00000000000E+00 -0.00000000000E+00 -0.18455516094E+03  0.18455516094E+03  0.00000000000E+00 0.  1.
         25    2    1    2    0    0 -0.13415874255E+03 -0.48526171792E+02  0.24983244851E+03  0.31371547961E+03  0.12509113585E+03 0.  0.
          5    1    3    3  502    0 -0.66348243514E+02  0.31480748701E+02  0.53052760564E+02  0.90692859474E+02  0.41800000000E+01 0. -1.
         -5    1    3    3    0  502 -0.67810499041E+02 -0.80006920492E+02  0.19677968794E+03  0.22302262014E+03  0.41800000000E+01 0. -1.
        -11    1    1    2    0    0  0.71035905527E+02 -0.14431262783E+02 -0.12412472750E+02  0.73542033554E+02  0.00000000000E+00 0. -1.
         11    1    1    2    0    0  0.63122837028E+02  0.62957434575E+02 -0.91512549047E+02  0.12776023542E+03  0.00000000000E+00 0.  1.
</event>
<event>
 7    1  0.2856214E-009  0.9191037E+02  0.7561462E-02  0.1298290E+00
         -2   -1    0    0    0  501 -0.00000000000E+00  0.00000000000E+00  0.24504171600E+02  0.24504171600E+02  0.00000000000E+00 0.  1.
          2   -1    0    0  501    0  0.00000000000E+00 -0.00000000000E+00 -0.57430991862E+03  0.57430991862E+03  0.00000000000E+00 0. -1.
         25    2    1    2    0    0  0.93371903453E+01 -0.45198124418E+02 -0.33910327754E+03  0.36437581781E+03  0.12509456500E+03 0.  0.
          5    1    3    3  502    0  0.20447370189E+02  0.17290878818E+02 -0.26640318228E+03  0.26777826157E+03  0.41800000000E+01 0. -1.
         -5    1    3    3    0  502 -0.11110179844E+02 -0.62489003236E+02 -0.72700095260E+02  0.96597556245E+02  0.41800000000E+01 0. -1.
        -11    1    1    2    0    0 -0.37506943296E+02 -0.26358535525E+01 -0.39825417244E+02  0.54770269107E+02  0.00000000000E+00 0.  1.
         11    1    1    2    0    0  0.28169752951E+02  0.47833977970E+02 -0.17087705223E+03  0.17966800330E+03  0.00000000000E+00 0. -1.
</event>
<event>
 7    1  0.2856214E-009  0.8462321E+02  0.7561462E-02  0.1316421E+00
         -1   -1    0    0    0  501 -0.00000000000E+00  0.00000000000E+00  0.10452833712E+03  0.10452833712E+03  0.00000000000E+00 0. -1.
          1   -1    0    0  501    0  0.00000000000E+00 -0.00000000000E+00 -0.13779746820E+03  0.13779746820E+03  0.00000000000E+00 0.  1.
         25    2    1    2    0    0 -0.45495984839E+01 -0.45794721837E+02  0.61017659102E+01  0.13341944414E+03  0.12508261722E+03 0.  0.
          5    1    3    3  502    0  0.22521229948E+02 -0.62651723167E+02  0.46843627209E+02  0.81512220092E+02  0.41800000000E+01 0.  1.
         -5    1    3    3    0  502 -0.27070828432E+02  0.16857001330E+02 -0.40741861299E+02  0.51907224044E+02  0.41800000000E+01 0.  1.
        -11    1    1    2    0    0  0.28320870894E+02  0.16979751833E+02  0.20114345422E+02  0.38664849570E+02  0.00000000000E+00 0. -1.
         11    1    1    2    0    0 -0.23771272411E+02  0.28814970004E+02 -0.59485242417E+02  0.70241511614E+02  0.00000000000E+00 0.  1.
</event>
<event>
 7    1  0.2856214E-009  0.1125425E+03  0.7561462E-02  0.1255933E+00
         -2   -1    0    0    0  501 -0.00000000000E+00  0.00000000000E+00  0.74833501704E+02  0.74833501704E+02  0.00000000000E+00 0.  1.
          2   -1    0    0  501    0  0.00000000000E+00 -0.00000000000E+00 -0.56090284655E+03  0.56090284655E+03  0.00000000000E+00 0. -1.
         25    2    1    2    0    0 -0.84742828971E+02  0.29124237561E+02 -0.23328471703E+02  0.15563261527E+03  0.12509086725E+03 0.  0.
          5    1    3    3  502    0 -0.53720070325E+02 -0.23534569141E+02  0.37148101418E+02  0.69549807616E+02  0.41800000000E+01 0.  1.
         -5    1    3    3    0  502 -0.31022758645E+02  0.52658806701E+02 -0.60476573122E+02  0.86082807655E+02  0.41800000000E+01 0.  1.
        -11    1    1    2    0    0  0.78606643186E+02 -0.35069356325E+01 -0.43417032473E+03  0.44124276065E+03  0.00000000000E+00 0. -1.
         11    1    1    2    0    0  0.61361857851E+01 -0.25617301928E+02 -0.28570548415E+02  0.38860972335E+02  0.00000000000E+00 0.  1.
</event>
<event>
 7    1  0.2856214E-009  0.1125013E+03  0.7561462E-02  0.1256007E+00
          2   -1    0    0  501    0  0.00000000000E+00  0.00000000000E+00  0.38730533276E+03  0.38730533276E+03  0.00000000000E+00 0. -1.
         -2   -1    0    0    0  501 -0.00000000000E+00 -0.00000000000E+00 -0.37251673837E+02  0.37251673837E+02  0.00000000000E+00 0.  1.
         25    2    1    2    0    0 -0.32900134533E+01 -0.46786365454E+02  0.16365909509E+03  0.21125419198E+03  0.12507696047E+03 0.  0.
          5    1    3    3  502    0 -0.60833467249E+02 -0.14172887181E+02  0.51884683225E+02  0.81308512604E+02  0.41800000000E+01 0. -1.
         -5    1    3    3    0  502  0.57543453795E+02 -0.32613478273E+02  0.11177441187E+03  0.12994567938E+03  0.41800000000E+01 0. -1.
        -11    1    1    2    0    0 -0.26109542434E+02 -0.13248433680E+02  0.24594126385E+02  0.38237419548E+02  0.00000000000E+00 0.  1.
         11    1    1    2    0    0  0.29399555887E+02  0.60034799134E+02  0.16180043744E+03  0.17506539507E+03  0.00000000000E+00 0. -1.
</event>
<event>
 7    1  0.2856214E-009  0.1189777E+03  0.7561462E-02  0.1244793E+00
         -2   -1    0    0    0  501 -0.00000000000E+00  0.00000000000E+00  0.40101232336E+02  0.40101232336E+02  0.00000000000E+00 0. -1.
          2   -1    0    0  501    0  0.00000000000E+00 -0.00000000000E+00 -0.58500305919E+03  0.58500305919E+03  0.00000000000E+00 0.  1.
         25    2    1    2    0    0 -0.99519564369E+02 -0.39865286674E+02 -0.30612587419E+03  0.34763875362E+03  0.12508504067E+03 0.  0.
          5    1    3    3  502    0 -0.10417904879E+03 -0.52429319421E+02 -0.14605499498E+03  0.18695358168E+03  0.41800000000E+01 0. -1.
         -5    1    3    3    0  502  0.46594844238E+01  0.12564032748E+02 -0.16007087920E+03  0.16068517195E+03  0.41800000000E+01 0. -1.
        -11    1    1    2    0    0  0.63560100355E+02  0.26149536673E+02 -0.22706215483E+03  0.23723597278E+03  0.00000000000E+00 0.  1.
         11    1    1    2    0    0  0.35959464015E+02  0.13715750001E+02 -0.11713797841E+02  0.40229565125E+02  0.00000000000E+00 0. -1.
</event>
<event>
 7    1  0.2856214E-009  0.1296790E+03  0.7561462E-02  0.1227933E+00
          1   -1    0    0  501    0  0.00000000000E+00  0.00000000000E+00  0.11809057811E+03  0.11809057811E+03  0.00000000000E+00 0. -1.
         -1   -1    0    0    0  501 -0.00000000000E+00 -0.00000000000E+00 -0.16233090531E+03  0.16233090531E+03  0.00000000000E+00 0.  1.
         25    2    1    2    0    0 -0.78175965432E+02 -0.18889027880E+02  0.30940701002E+01  0.14874093576E+03  0.12508403478E+03 0.  0.
          5    1    3    3  502    0 -0.68170583786E+02 -0.66456662149E+02 -0.15465582822E+02  0.96542079373E+02  0.41800000000E+01 0.  1.
         -5    1    3    3    0  502 -0.10005381647E+02  0.47567634269E+02  0.18559652922E+02  0.52198856390E+02  0.41800000000E+01 0.  1.
        -11    1    1    2    0    0  0.60051313645E+01  0.39709335457E+02  0.45080533405E+01  0.40413060637E+02  0.00000000000E+00 0. -1.
         11    1    1    2    0    0  0.72170834068E+02 -0.20820307577E+02 -0.51842450637E+02  0.91267487013E+02  0.00000000000E+00 0.  1.
</event>
<event>
 7    1  0.2856214E-009  0.1318734E+03  0.7561462E-02  0.1224702E+00
          4   -1    0    0  501    0  0.00000000000E+00  0.00000000000E+00  0.22399418511E+03  0.22399418511E+03  0.00000000000E+00 0. -1.
         -4   -1    0    0    0  501 -0.00000000000E+00 -0.00000000000E+00 -0.11254150713E+03  0.11254150713E+03  0.00000000000E+00 0.  1.
         25    2    1    2    0    0 -0.92669732353E+02  0.20219684509E+02 -0.97512177149E+01  0.15728506823E+03  0.12508793508E+03 0.  0.
          5    1    3    3  502    0  0.29217112976E+02  0.70955507562E+01  0.12123968400E+02  0.32687146418E+02  0.41800000000E+01 0.  1.
         -5    1    3    3    0  502 -0.12188684533E+03  0.13124133753E+02 -0.21875186115E+02  0.12459792181E+03  0.41800000000E+01 0.  1.
        -11    1    1    2    0    0  0.63486623050E+02 -0.40397054329E+02  0.29328698579E+02  0.80762899063E+02  0.00000000000E+00 0.  1.
         11    1    1    2    0    0  0.29183109303E+02  0.20177369819E+02  0.91875197114E+02  0.98487724952E+02  0.00000000000E+00 0. -1.
</event>
<event>
 7    1  0.2856214E-009  0.1119803E+03  0.7561462E-02  0.1256946E+00
          1   -1    0    0  501    0  0.00000000000E+00  0.00000000000E+00  0.28518563049E+03  0.28518563049E+03  0.00000000000E+00 0. -1.
         -1   -1    0    0    0  501 -0.00000000000E+00 -0.00000000000E+00 -0.60169690860E+02  0.60169690860E+02  0.00000000000E+00 0.  1.
         25    2    1    2    0    0  0.10197914528E+02 -0.71503426898E+02  0.13858451806E+03  0.20017461823E+03  0.12508985419E+03 0.  0.
          5    1    3    3  502    0 -0.13016794151E+02  0.29414013266E+02  0.66329919961E+02  0.73835978957E+02  0.41800000000E+01 0.  1.
         -5    1    3    3    0  502  0.23214708679E+02 -0.10091744016E+03  0.72254598096E+02  0.12633863928E+03  0.41800000000E+01 0.  1.
        -11    1    1    2    0    0 -0.30454838609E+02  0.37520073509E+02 -0.19338981158E+01  0.48363137540E+02  0.00000000000E+00 0.  1.
         11    1    1    2    0    0  0.20256924081E+02  0.33983353389E+02  0.88365319692E+02  0.96817565581E+02  0.00000000000E+00 0. -1.
</event>
<event>
 7    1  0.2856214E-009  0.1708281E+03  0.7561462E-02  0.1176987E+00
         -1   -1    0    0    0  501 -0.00000000000E+00  0.00000000000E+00  0.20266092282E+03  0.20266092282E+03  0.00000000000E+00 0.  1.
          1   -1    0    0  501    0  0.00000000000E+00 -0.00000000000E+00 -0.16650649256E+03  0.16650649256E+03  0.00000000000E+00 0. -1.
         25    2    1    2    0    0 -0.10489520837E+03  0.98914231509E+02  0.52323959255E+02  0.19792190980E+03  0.12509298835E+03 0.  0.
          5    1    3    3  502    0  0.60426913245E+01  0.49554432002E+02  0.57568521352E+02  0.76313582671E+02  0.41800000000E+01 0.  1.
         -5    1    3    3    0  502 -0.11093789969E+03  0.49359799507E+02 -0.52445620966E+01  0.12160832713E+03  0.41800000000E+01 0.  1.
        -11    1    1    2    0    0  0.45991782486E+02 -0.10115403243E+03 -0.48643387132E+01  0.11122519555E+03  0.00000000000E+00 0. -1.
         11    1    1    2    0    0  0.58903425882E+02  0.22398009219E+01 -0.11305190276E+02  0.60020310029E+02  0.00000000000E+00 0.  1.
</event>
<event>
 7    1  0.2856214E-009  0.1343362E+03  0.7561462E-02  0.1221160E+00
          1   -1    0    0  501    0  0.00000000000E+00  0.00000000000E+00  0.28771812092E+03  0.28771812092E+03  0.00000000000E+00 0. -1.
         -1   -1    0    0    0  501 -0.00000000000E+00 -0.00000000000E+00 -0.70446108239E+02  0.70446108239E+02  0.00000000000E+00 0.  1.
         25    2    1    2    0    0 -0.42029800498E+02  0.80113188375E+02  0.14466538161E+03  0.21156503166E+03  0.12508822048E+03 0.  0.
          5    1    3    3  502    0 -0.45257757844E+02 -0.17162031393E+02  0.18090123621E+02  0.51841343918E+02  0.41800000000E+01 0. -1.
         -5    1    3    3    0  502  0.32279573466E+01  0.97275219767E+02  0.12657525799E+03  0.15972368774E+03  0.41800000000E+01 0. -1.
        -11    1    1    2    0    0  0.41144119404E+02 -0.97206362881E+02  0.46411833489E+02  0.11530816898E+03  0.00000000000E+00 0.  1.
         11    1    1    2    0    0  0.88568109374E+00  0.17093174506E+02  0.26194797582E+02  0.31291028523E+02  0.00000000000E+00 0. -1.
</event>
<event>
 7    1  0.2856214E-009  0.8471865E+02  0.7561462E-02  0.1316170E+00
         -2   -1    0    0    0  501 -0.00000000000E+00  0.00000000000E+00  0.34120106475E+03  0.34120106475E+03  0.00000000000E+00 0.  1.
          2   -1    0    0  501    0  0.00000000000E+00 -0.00000000000E+00 -0.33260412788E+02  0.33260412788E+02  0.00000000000E+00 0. -1.
         25    2    1    2    0    0  0.14743589362E+02  0.45505493298E+01  0.20631087496E+03  0.24176615746E+03  0.12509443168E+03 0.  0.
          5    1    3    3  502    0 -0.38253862973E+02  0.44830862207E+02  0.10471360880E+03  0.12023134577E+03  0.41800000000E+01 0.  1.
         -5    1    3    3    0  502  0.52997452335E+02 -0.40280312877E+02  0.10159726616E+03  0.12153481169E+03  0.41800000000E+01 0.  1.
        -11    1    1    2    0    0  0.20399276153E+00 -0.21246558177E+02 -0.65379325231E+01  0.22230663713E+02  0.00000000000E+00 0. -1.
         11    1    1    2    0    0 -0.14947582124E+02  0.16696008847E+02  0.10816770952E+03  0.11046465636E+03  0.00000000000E+00 0.  1.
</event>
<event>
 7    1  0.2856214E-009  0.1075401E+03  0.7561462E-02  0.1265194E+00
          4   -1    0    0  501    0  0.00000000000E+00  0.00000000000E+00  0.70752429294E+02  0.70752429294E+02  0.00000000000E+00 0. -1.
         -4   -1    0    0    0  501 -0.00000000000E+00 -0.00000000000E+00 -0.23003568571E+03  0.23003568571E+03  0.00000000000E+00 0.  1.
         25    2    1    2    0    0 -0.25388963587E+02  0.35516066961E+02 -0.29019941189E+02  0.13562988288E+03  0.12508923878E+03 0.  0.
          5    1    3    3  502    0 -0.43391616773E+02 -0.34401647240E+02  0.49069807918E+01  0.55748153328E+02  0.41800000000E+01 0.  1.
         -5    1    3    3    0  502  0.18002653186E+02  0.69917714200E+02 -0.33926921981E+02  0.79881729549E+02  0.41800000000E+01 0.  1.
        -11    1    1    2    0    0  0.50465324700E+02 -0.36261060642E+02 -0.46208071035E+02  0.77439004027E+02  0.00000000000E+00 0. -1.
         11    1    1    2    0    0 -0.25076361113E+02  0.74499368166E+00 -0.84055244196E+02  0.87719228103E+02  0.00000000000E+00 0.  1.
</event>
<event>
 7    1  0.2856214E-009  0.1012529E+03  0.7561462E-02  0.1277683E+00
         -2   -1    0    0    0  501 -0.00000000000E+00  0.00000000000E+00  0.61213628253E+02  0.61213628253E+02  0.00000000000E+00 0.  1.
          2   -1    0    0  501    0  0.00000000000E+00 -0.00000000000E+00 -0.23904634276E+03  0.23904634276E+03  0.00000000000E+00 0. -1.
         25    2    1    2    0    0 -0.53534593688E+02  0.70241185926E+00 -0.10170355827E+03  0.16987201436E+03  0.12508573618E+03 0.  0.
          5    1    3    3  502    0 -0.60372039516E+02 -0.28915050085E+02 -0.36931906268E+01  0.67171238888E+02  0.41800000000E+01 0.  1.
         -5    1    3    3    0  502  0.68374458284E+01  0.29617461945E+02 -0.98010367644E+02  0.10270077548E+03  0.41800000000E+01 0.  1.
        -11    1    1    2    0    0  0.26697710363E+02 -0.45371029420E+02 -0.28872431745E+02  0.60040947395E+02  0.00000000000E+00 0.  1.
         11    1    1    2    0    0  0.26836883325E+02  0.44668617560E+02 -0.47256724493E+02  0.70347009256E+02  0.00000000000E+00 0. -1.
</event>
<event>
 7    1  0.2856214E-009  0.1738192E+03  0.7561462E-02  0.1173923E+00
         -1   -1    0    0    0  501 -0.00000000000E+00  0.00000000000E+00  0.30778562428E+02  0.30778562428E+02  0.00000000000E+00 0.  1.
          1   -1    0    0  501    0  0.00000000000E+00 -0.00000000000E+00 -0.11015761002E+04  0.11015761002E+04  0.00000000000E+00 0. -1.
         25    2    1    2    0    0 -0.27474078591E+02 -0.14685684678E+03 -0.58552584131E+03  0.61709740511E+03  0.12508772166E+03 0.  0.
          5    1    3    3  502    0  0.96374928305E+01  0.15972551076E+02 -0.21121322024E+02  0.28488353760E+02  0.41800000000E+01 0. -1.
         -5    1    3    3    0  502 -0.37111571421E+02 -0.16282939785E+03 -0.56440451929E+03  0.58860905135E+03  0.41800000000E+01 0. -1.
        -11    1    1    2    0    0 -0.17980166806E+02  0.20974909277E+02 -0.30277947901E+02  0.40987648708E+02  0.00000000000E+00 0.  1.
         11    1    1    2    0    0  0.45454245397E+02  0.12588193750E+03 -0.45499374858E+03  0.47426960883E+03  0.00000000000E+00 0. -1.
</event>
<event>
 7    1  0.2856214E-009  0.2014292E+03  0.7561462E-02  0.1148539E+00
         -1   -1    0    0    0  501 -0.00000000000E+00  0.00000000000E+00  0.20091281603E+03  0.20091281603E+03  0.00000000000E+00 0.  1.
          1   -1    0    0  501    0  0.00000000000E+00 -0.00000000000E+00 -0.25336385533E+03  0.25336385533E+03  0.00000000000E+00 0. -1.
         25    2    1    2    0    0  0.15803213898E+03 -0.11762543572E+03 -0.39634118421E+02  0.23670373486E+03  0.12509154518E+03 0.  0.
          5    1    3    3  502    0  0.61704006446E+01  0.62008809967E+01 -0.39541615309E+02  0.40712854365E+02  0.41800000000E+01 0.  1.
         -5    1    3    3    0  502  0.15186173833E+03 -0.12382631671E+03 -0.92503112061E-01  0.19599088050E+03  0.41800000000E+01 0.  1.
        -11    1    1    2    0    0 -0.65156449136E+02  0.53546186680E+02  0.39583007406E+02  0.93163144254E+02  0.00000000000E+00 0.  1.
         11    1    1    2    0    0 -0.92875689841E+02  0.64079249037E+02 -0.52399928284E+02  0.12440979224E+03  0.00000000000E+00 0. -1.
</event>
<event>
 7    1  0.2856214E-009  0.8550841E+02  0.7561462E-02  0.1314108E+00
         -1   -1    0    0    0  501 -0.00000000000E+00  0.00000000000E+00  0.64336863934E+02  0.64336863934E+02  0.00000000000E+00 0.  1.
          1   -1    0    0  501    0  0.00000000000E+00 -0.00000000000E+00 -0.18447752544E+03  0.18447752544E+03  0.00000000000E+00 0. -1.
         25    2    1    2    0    0 -0.49322335925E+01  0.86298238441E+01 -0.81242939629E+02  0.14948779751E+03  0.12508951026E+03 0.  0.
          5    1    3    3  502    0  0.79265312265E+01 -0.57256074283E+02 -0.32712813271E+02  0.66548392104E+02  0.41800000000E+01 0.  1.
         -5    1    3    3    0  502 -0.12858764819E+02  0.65885898127E+02 -0.48530126358E+02  0.82939405405E+02  0.41800000000E+01 0.  1.
        -11    1    1    2    0    0  0.49377611491E+01 -0.26993333188E+02  0.22346161075E+02  0.35388874474E+02  0.00000000000E+00 0.  1.
         11    1    1    2    0    0 -0.55275565331E-02  0.18363509344E+02 -0.61243882956E+02  0.63937717394E+02  0.00000000000E+00 0. -1.
</event>
<event>
 7    1  0.2856214E-009  0.1375723E+03  0.7561462E-02  0.1216633E+00
          1   -1    0    0  501    0  0.00000000000E+00  0.00000000000E+00  0.27167549585E+03  0.27167549585E+03  0.00000000000E+00 0. -1.
         -1   -1    0    0    0  501 -0.00000000000E+00 -0.00000000000E+00 -0.99645030577E+02  0.99645030577E+02  0.00000000000E+00 0.  1.
         25    2    1    2    0    0  0.74487297794E+02  0.55997890272E+01  0.18275044638E+03  0.23371930151E+03  0.12508905259E+03 0.  0.
          5    1    3    3  502    0 -0.26918329352E+02 -0.25614356754E+02  0.31351925915E+02  0.48796591947E+02  0.41800000000E+01 0.  1.
         -5    1    3    3    0  502  0.10140562715E+03  0.31214145781E+02  0.15139852046E+03  0.18492270956E+03  0.41800000000E+01 0.  1.
        -11    1    1    2    0    0 -0.30592979345E+02 -0.56564603774E+02 -0.24724905213E+02  0.68897066143E+02  0.00000000000E+00 0.  1.
         11    1    1    2    0    0 -0.43894318448E+02  0.50964814747E+02  0.14004924113E+02  0.68704158780E+02  0.00000000000E+00 0. -1.
</event>
<event>
 7    1  0.5853946E-009  0.7467760E+02  0.7561462E-02  0.1344872E+00
          2   -1    0    0  501    0  0.00000000000E+00  0.00000000000E+00  0.53864719182E+03  0.53864719182E+03  0.00000000000E+00 0. -1.
         -2   -1    0    0    0  501 -0.00000000000E+00 -0.00000000000E+00 -0.26655143119E+02  0.26655143119E+02  0.00000000000E+00 0.  1.
         25    2    1    2    0    0 -0.27986613010E+02  0.41547689132E+02  0.31194823765E+03  0.33980846591E+03  0.12509448250E+03 0.  0.
          5    1    3    3  502    0 -0.51261055883E+02  0.27364604804E+01  0.27889903501E+03  0.28361475313E+03  0.41800000000E+01 0. -1.
         -5    1    3    3    0  502  0.23274442874E+02  0.38811228651E+02  0.33049202641E+02  0.56193712778E+02  0.41800000000E+01 0. -1.
        -11    1    1    2    0    0  0.13308317953E+02 -0.73824935101E+01 -0.58237160342E+01  0.16295036226E+02  0.00000000000E+00 0.  1.
         11    1    1    2    0    0  0.14678295057E+02 -0.34165195622E+02  0.20586752709E+03  0.20919883280E+03  0.00000000000E+00 0. -1.
</event>
<event>
 7    1  0.2856214E-009  0.1125292E+03  0.7561462E-02  0.1255957E+00
          3   -1    0    0  501    0  0.00000000000E+00  0.00000000000E+00  0.36724485782E+03  0.36724485782E+03  0.00000000000E+00 0. -1.
         -3   -1    0    0    0  501 -0.00000000000E+00 -0.00000000000E+00 -0.49287188853E+02  0.49287188853E+02  0.00000000000E+00 0.  1.
         25    2    1    2    0    0 -0.27722701084E+02  0.59442771852E+02  0.18733952518E+03  0.23461874601E+03  0.12509143458E+03 0.  0.
          5    1    3    3  502    0  0.22300045508E+02  0.82598766071E+02  0.12129891859E+03  0.14849494348E+03  0.41800000000E+01 0.  1.
         -5    1    3    3    0  502 -0.50022746592E+02 -0.23155994219E+02  0.66040606589E+02  0.86123802538E+02  0.41800000000E+01 0.  1.
        -11    1    1    2    0    0  0.41877272742E+02 -0.30198478101E+02  0.13906803980E+03  0.14834275764E+03  0.00000000000E+00 0.  1.
         11    1    1    2    0    0 -0.14154571658E+02 -0.29244293751E+02 -0.84498960129E+01  0.33570543016E+02  0.00000000000E+00 0. -1.
</event>
<event>
 7    1  0.2856214E-009  0.1276900E+03  0.7561462E-02  0.1230924E+00
         -2   -1    0    0    0  501 -0.00000000000E+00  0.00000000000E+00  0.10155485630E+03  0.10155485630E+03  0.00000000000E+00 0.  1.
          2   -1    0    0  501    0  0.00000000000E+00 -0.00000000000E+00 -0.25078238334E+03  0.25078238334E+03  0.00000000000E+00 0. -1.
         25    2    1    2    0    0  0.65624130191E+02 -0.92385148692E+02 -0.11319078934E+03  0.20322704111E+03  0.12509010067E+03 0.  0.
          5    1    3    3  502    0  0.24476349931E+02 -0.21806142381E+02 -0.11675804362E+03  0.12134460310E+03  0.41800000000E+01 0. -1.
         -5    1    3    3    0  502  0.41147780260E+02 -0.70579006310E+02  0.35672542769E+01  0.81882438014E+02  0.41800000000E+01 0. -1.
        -11    1    1    2    0    0 -0.72502931405E+02  0.31154664965E+02 -0.24862192975E+01  0.78952324208E+02  0.00000000000E+00 0.  1.
         11    1    1    2    0    0  0.68788012146E+01  0.61230483727E+02 -0.33550518405E+02  0.70157874318E+02  0.00000000000E+00 0. -1.
</event>
<event>
 7    1  0.2856214E-009  0.3395537E+03  0.7561462E-02  0.1066986E+00
         -2   -1    0    0    0  501 -0.00000000000E+00  0.00000000000E+00  0.26157435866E+03  0.26157435866E+03  0.00000000000E+00 0.  1.
          2   -1    0    0  501    0  0.00000000000E+00 -0.00000000000E+00 -0.45695009780E+03  0.45695009780E+03  0.00000000000E+00 0. -1.
         25    2    1    2    0    0 -0.18329891469E+03 -0.26730797067E+03 -0.14987921911E+03  0.37837012319E+03  0.12509247177E+03 0.  0.
          5    1    3    3  502    0  0.12218800912E+02 -0.42626776815E+02 -0.42989947667E+02  0.61902739825E+02  0.41800000000E+01 0.  1.
         -5    1    3    3    0  502 -0.19551771560E+03 -0.22468119385E+03 -0.10688927144E+03  0.31646738336E+03  0.41800000000E+01 0.  1.
        -11    1    1    2    0    0  0.15068134131E+03  0.14141190952E+03 -0.35978028998E+02  0.20975369685E+03  0.00000000000E+00 0.  1.
         11    1    1    2    0    0  0.32617573379E+02  0.12589606115E+03 -0.95184910303E+01  0.13040063642E+03  0.00000000000E+00 0. -1.
</event>
<event>
 7    1  0.2856214E-009  0.1255920E+03  0.7561462E-02  0.1234147E+00
         -1   -1    0    0    0  501 -0.00000000000E+00  0.00000000000E+00  0.57365002513E+03  0.57365002513E+03  0.00000000000E+00 0.  1.
          1   -1    0    0  501    0  0.00000000000E+00 -0.00000000000E+00 -0.35837476174E+02  0.35837476174E+02  0.00000000000E+00 0. -1.
         25    2    1    2    0    0  0.42172272774E+02 -0.69917779750E+02  0.19782307438E+03  0.24788645741E+03  0.12508689177E+03 0.  0.
          5    1    3    3  502    0  0.55684660989E+02  0.71841456005E+01  0.32718564470E+02  0.65118125576E+02  0.41800000000E+01 0.  1.
         -5    1    3    3    0  502 -0.13512388215E+02 -0.77101925351E+02  0.16510450991E+03  0.18276833183E+03  0.41800000000E+01 0.  1.
        -11    1    1    2    0    0 -0.67656591322E+02  0.52258245066E+02  0.29368723665E+03  0.30587666060E+03  0.00000000000E+00 0.  1.
         11    1    1    2    0    0  0.25484318548E+02  0.17659534684E+02  0.46302237925E+02  0.55724383298E+02  0.00000000000E+00 0. -1.
</event>
<event>
 7    1  0.2856214E-009  0.1142198E+03  0.7561462E-02  0.1252949E+00
         -1   -1    0    0    0  501 -0.00000000000E+00  0.00000000000E+00  0.59532393189E+02  0.59532393189E+02  0.00000000000E+00 0.  1.
          1   -1    0    0  501    0  0.00000000000E+00 -0.00000000000E+00 -0.32283417531E+03  0.32283417531E+03  0.00000000000E+00 0. -1.
         25    2    1    2    0    0  0.75745824554E+01 -0.81323591193E+02 -0.18859923700E+03  0.24059873198E+03  0.12508867594E+03 0.  0.
          5    1    3    3  502    0 -0.22577958091E+02  0.24602458098E+02 -0.19924318149E+02  0.39108771263E+02  0.41800000000E+01 0.  1.
         -5    1    3    3    0  502  0.30152540546E+02 -0.10592604929E+03 -0.16867491885E+03  0.20148996071E+03  0.41800000000E+01 0.  1.
        -11    1    1    2    0    0  0.57195154161E+01  0.52743436600E+02 -0.91711435906E+02  0.10595079253E+03  0.00000000000E+00 0. -1.
         11    1    1    2    0    0 -0.13294097872E+02  0.28580154593E+02  0.17008890785E+02  0.35817043995E+02  0.00000000000E+00 0.  1.
</event>
<event>
 7    1  0.2856214E-009  0.8433887E+02  0.7561462E-02  0.1317171E+00
         -4   -1    0    0    0  501 -0.00000000000E+00  0.00000000000E+00  0.33950612036E+03  0.33950612036E+03  0.00000000000E+00 0.  1.
          4   -1    0    0  501    0  0.00000000000E+00 -0.00000000000E+00 -0.44972124326E+02  0.44972124326E+02  0.00000000000E+00 0. -1.
         25    2    1    2    0    0 -0.26436637397E+02  0.52546586986E+02  0.17228467310E+03  0.22087742580E+03  0.12507913113E+03 0.  0.
          5    1    3    3  502    0 -0.50634642853E+01  0.54772963375E+02  0.87149421000E+01  0.55849250696E+02  0.41800000000E+01 0. -1.
         -5    1    3    3    0  502 -0.21373173112E+02 -0.22263763888E+01  0.16356973100E+03  0.16502817511E+03  0.41800000000E+01 0. -1.
        -11    1    1    2    0    0 -0.37731523137E+01  0.16144957344E+02  0.70556374387E+02  0.72478260828E+02  0.00000000000E+00 0.  1.
         11    1    1    2    0    0  0.30209789711E+02 -0.68691544330E+02  0.51692948548E+02  0.91122558054E+02  0.00000000000E+00 0. -1.
</event>
<event>
 7    1  0.2856214E-009  0.2352761E+03  0.7561462E-02  0.1122980E+00
         -3   -1    0    0    0  501 -0.00000000000E+00  0.00000000000E+00  0.14370778190E+04  0.14370778190E+04  0.00000000000E+00 0.  1.
          3   -1    0    0  501    0  0.00000000000E+00 -0.00000000000E+00 -0.40890854870E+02  0.40890854870E+02  0.00000000000E+00 0. -1.
         25    2    1    2    0    0  0.20232819906E+03 -0.87188010405E+02  0.62543254939E+03  0.67479799198E+03  0.12509199357E+03 0.  0.
          5    1    3    3  502    0  0.17855699889E+03 -0.11559611647E+03  0.56575709817E+03  0.60443662242E+03  0.41800000000E+01 0. -1.
         -5    1    3    3    0  502  0.23771200174E+02  0.28408106070E+02  0.59675451216E+02  0.70361369558E+02  0.41800000000E+01 0. -1.
        -11    1    1    2    0    0 -0.13083151478E+03  0.51328713778E+02  0.56996581680E+03  0.58703709800E+03  0.00000000000E+00 0.  1.
         11    1    1    2    0    0 -0.71496684287E+02  0.35859296627E+02  0.20078859797E+03  0.21613358391E+03  0.00000000000E+00 0. -1.
</event>
<event>
 7    1  0.2856214E-009  0.1135267E+03  0.7561462E-02  0.1254175E+00
          2   -1    0    0  501    0  0.00000000000E+00  0.00000000000E+00  0.98551081823E+03  0.98551081823E+03  0.00000000000E+00 0. -1.
         -2   -1    0    0    0  501 -0.00000000000E+00 -0.00000000000E+00 -0.16077334542E+02  0.16077334542E+02  0.00000000000E+00 0.  1.
         25    2    1    2    0    0  0.35451725863E+02 -0.53678013297E+02  0.52915759223E+03  0.54753418744E+03  0.12509106691E+03 0.  0.
          5    1    3    3  502    0  0.56060671635E+02 -0.70003603686E+02  0.22556095512E+03  0.24277256910E+03  0.41800000000E+01 0. -1.
         -5    1    3    3    0  502 -0.20608945771E+02  0.16325590389E+02  0.30359663710E+03  0.30476161833E+03  0.41800000000E+01 0. -1.
        -11    1    1    2    0    0  0.23705596265E+02  0.44996082814E+02  0.22057622154E+03  0.22636358425E+03  0.00000000000E+00 0. -1.
         11    1    1    2    0    0 -0.59157322128E+02  0.86819304832E+01  0.21969966992E+03  0.22769038109E+03  0.00000000000E+00 0.  1.
</event>
<event>
 7    1  0.2856214E-009  0.1664338E+03  0.7561462E-02  0.1181619E+00
         -2   -1    0    0    0  501 -0.00000000000E+00  0.00000000000E+00  0.27578427474E+02  0.27578427474E+02  0.00000000000E+00 0.  1.
          2   -1    0    0  501    0  0.00000000000E+00 -0.00000000000E+00 -0.12407303136E+04  0.12407303136E+04  0.00000000000E+00 0. -1.
         25    2    1    2    0    0  0.13509542444E+03  0.10875160919E+02 -0.44818600067E+03  0.48465224563E+03  0.12509222667E+03 0.  0.
          5    1    3    3  502    0 -0.11824236053E+02  0.27198599350E+02 -0.13534450970E+03  0.13861884818E+03  0.41800000000E+01 0.  1.
         -5    1    3    3    0  502  0.14691966049E+03 -0.16323438431E+02 -0.31284149097E+03  0.34603339745E+03  0.41800000000E+01 0.  1.
        -11    1    1    2    0    0 -0.12077779996E+03 -0.36075425409E+02 -0.71386571969E+03  0.72490894534E+03  0.00000000000E+00 0. -1.
         11    1    1    2    0    0 -0.14317624483E+02  0.25200264490E+02 -0.51100165726E+02  0.58747550063E+02  0.00000000000E+00 0.  1.
</event>
<event>
 7    1  0.2856214E-009  0.1455918E+03  0.7561462E-02  0.1205997E+00
          3   -1    0    0  501    0  0.00000000000E+00  0.00000000000E+00  0.99480190286E+03  0.99480190286E+03  0.00000000000E+00 0. -1.
         -3   -1    0    0    0  501 -0.00000000000E+00 -0.00000000000E+00 -0.32151323345E+02  0.32151323345E+02  0.00000000000E+00 0.  1.
         25    2    1    2    0    0 -0.89752576551E+02 -0.92905059068E+02  0.66537003135E+03  0.68924022054E+03  0.12509167839E+03 0.  0.
          5    1    3    3  502    0 -0.85712526582E+02 -0.22562539454E+02  0.20343111114E+03  0.22194007025E+03  0.41800000000E+01 0. -1.
         -5    1    3    3    0  502 -0.40400499690E+01 -0.70342519614E+02  0.46193892020E+03  0.46730015030E+03  0.41800000000E+01 0. -1.
        -11    1    1    2    0    0  0.27808373354E+02  0.12810927466E+02  0.86175976672E+01  0.31807050802E+02  0.00000000000E+00 0.  1.
         11    1    1    2    0    0  0.61944203196E+02  0.80094131602E+02  0.28866295050E+03  0.30590595486E+03  0.00000000000E+00 0. -1.
</event>
<event>
 7    1  0.2856214E-009  0.1569283E+03  0.7561462E-02  0.1192209E+00
         -1   -1    0    0    0  501 -0.00000000000E+00  0.00000000000E+00  0.51255604565E+02  0.51255604565E+02  0.00000000000E+00 0.  1.
          1   -1    0    0  501    0  0.00000000000E+00 -0.00000000000E+00 -0.80717834820E+03  0.80717834820E+03  0.00000000000E+00 0. -1.
         25    2    1    2    0    0  0.71213370341E+02 -0.10752934539E+03 -0.15739989885E+03  0.23886607198E+03  0.12509343688E+03 0.  0.
          5    1    3    3  502    0  0.59496000790E+02 -0.13584327638E+03 -0.13595194502E+03  0.20123015083E+03  0.41800000000E+01 0.  1.
         -5    1    3    3    0  502  0.11717369552E+02  0.28313930991E+02 -0.21447953824E+02  0.37635921148E+02  0.41800000000E+01 0.  1.
        -11    1    1    2    0    0 -0.15822923841E+02  0.27626642847E+01 -0.93307419868E+01  0.18575790127E+02  0.00000000000E+00 0.  1.
         11    1    1    2    0    0 -0.55390446500E+02  0.10476668110E+03 -0.58919210280E+03  0.60099209066E+03  0.00000000000E+00 0. -1.
</event>
<event>
 7    1  0.2856214E-009  0.1546799E+03  0.7561462E-02  0.1194837E+00
         -2   -1    0    0    0  501 -0.00000000000E+00  0.00000000000E+00  0.82621505960E+02  0.82621505960E+02  0.00000000000E+00 0.  1.
          2   -1    0    0  501    0  0.00000000000E+00 -0.00000000000E+00 -0.35603889791E+03  0.35603889791E+03  0.00000000000E+00 0. -1.
         25    2    1    2    0    0 -0.16442305992E+02  0.12487642923E+03 -0.93280102624E+02  0.20053207880E+03  0.12508982804E+03 0.  0.
          5    1    3    3  502    0  0.36141044966E+02  0.44246775929E+02 -0.86753693134E+02  0.10395974213E+03  0.41800000000E+01 0. -1.
         -5    1    3    3    0  502 -0.52583350958E+02  0.80629653297E+02 -0.65264094897E+01  0.96572336669E+02  0.41800000000E+01 0. -1.
        -11    1    1    2    0    0  0.53882687263E+02 -0.58624159504E+02 -0.90311242524E+02  0.12040040112E+03  0.00000000000E+00 0. -1.
         11    1    1    2    0    0 -0.37440381271E+02 -0.66252269723E+02 -0.89826046799E+02  0.11772792395E+03  0.00000000000E+00 0.  1.
</event>
<event>
 7    1  0.3619518E-009  0.9020379E+02  0.7561462E-02  0.1302359E+00
         -1   -1    0    0    0  501 -0.00000000000E+00  0.00000000000E+00  0.61073725442E+02  0.61073725442E+02  0.00000000000E+00 0.  1.
          1   -1    0    0  501    0  0.00000000000E+00 -0.00000000000E+00 -0.22030391307E+03  0.22030391307E+03  0.00000000000E+00 0. -1.
         25    2    1    2    0    0 -0.25516832047E+02  0.11096579481E+02 -0.53471866741E+02  0.13885708014E+03  0.12509118826E+03 0.  0.
          5    1    3    3  502    0  0.50868324259E+02  0.27430953401E+01 -0.23764476779E+02  0.56367843152E+02  0.41800000000E+01 0.  1.
         -5    1    3    3    0  502 -0.76385156306E+02  0.83534841407E+01 -0.29707389961E+02  0.82489236992E+02  0.41800000000E+01 0.  1.
        -11    1    1    2    0    0  0.33999197765E+02  0.47858237439E+01  0.90684479859E+00  0.34346352427E+02  0.00000000000E+00 0.  1.
         11    1    1    2    0    0 -0.84823657178E+01 -0.15882403225E+02 -0.10666516569E+03  0.10817420594E+03  0.00000000000E+00 0. -1.
</event>
<event>
 7    1  0.2856214E-009  0.1497252E+03  0.7561462E-02  0.1200811E+00
          2   -1    0    0  501    0  0.00000000000E+00  0.00000000000E+00  0.13160720715E+04  0.13160720715E+04  0.00000000000E+00 0. -1.
         -2   -1    0    0    0  501 -0.00000000000E+00 -0.00000000000E+00 -0.35529860401E+02  0.35529860401E+02  0.00000000000E+00 0.  1.
         25    2    1    2    0    0 -0.64291291506E+02  0.10335405439E+03  0.11059053585E+04  0.11195933536E+04  0.12508870780E+03 0.  0.
          5    1    3    3  502    0  0.27551882009E+02  0.28942754822E+02  0.53820123851E+03  0.53969883713E+03  0.41800000000E+01 0.  1.
         -5    1    3    3    0  502 -0.91843173515E+02  0.74411299565E+02  0.56770411998E+03  0.57989451650E+03  0.41800000000E+01 0.  1.
        -11    1    1    2    0    0  0.16009935919E+02 -0.89279272189E+02  0.15166731716E+03  0.17672034853E+03  0.00000000000E+00 0. -1.
         11    1    1    2    0    0  0.48281355587E+02 -0.14074782199E+02  0.22969535474E+02  0.55288229771E+02  0.00000000000E+00 0.  1.
</event>
<event>
 7    1  0.2856214E-009  0.2232592E+03  0.7561462E-02  0.1131476E+00
          2   -1    0    0  501    0  0.00000000000E+00  0.00000000000E+00  0.33726870565E+03  0.33726870565E+03  0.00000000000E+00 0. -1.
         -2   -1    0    0    0  501 -0.00000000000E+00 -0.00000000000E+00 -0.18140252084E+03  0.18140252084E+03  0.00000000000E+00 0.  1.
         25    2    1    2    0    0  0.18672614522E+03 -0.92944996410E+02  0.71734775435E-01  0.24320440499E+03  0.12507178656E+03 0.  0.
          5    1    3    3  502    0  0.56145923537E+02 -0.88251264048E+02 -0.30326414630E+02  0.10898538508E+03  0.41800000000E+01 0. -1.
         -5    1    3    3    0  502  0.13058022169E+03 -0.46937323623E+01  0.30398149405E+02  0.13421901991E+03  0.41800000000E+01 0. -1.
        -11    1    1    2    0    0 -0.84195482307E+02  0.23995801434E+02  0.16181443218E+02  0.89030988043E+02  0.00000000000E+00 0.  1.
         11    1    1    2    0    0 -0.10253066292E+03  0.68949194976E+02  0.13961300682E+03  0.18643583346E+03  0.00000000000E+00 0. -1.
</event>
<event>
 7    1  0.2856214E-009  0.1330499E+03  0.7561462E-02  0.1222999E+00
         -1   -1    0    0    0  501 -0.00000000000E+00  0.00000000000E+00  0.18071132203E+03  0.18071132203E+03  0.00000000000E+00 0.  1.
          1   -1    0    0  501    0  0.00000000000E+00 -0.00000000000E+00 -0.13362248730E+03  0.13362248730E+03  0.00000000000E+00 0. -1.
         25    2    1    2    0    0  0.21947263315E-01 -0.88326518318E+02  0.94084155099E+02  0.17972334710E+03  0.12508828456E+03 0.  0.
          5    1    3    3  502    0  0.18611981027E+02 -0.11535793069E+03  0.57142621355E+02  0.13014072993E+03  0.41800000000E+01 0. -1.
         -5    1    3    3    0  502 -0.18590033763E+02  0.27031412377E+02  0.36941533744E+02  0.49582617173E+02  0.41800000000E+01 0. -1.
        -11    1    1    2    0    0 -0.14523936699E+02 -0.94041020493E+01  0.10557511926E+02  0.20269260733E+02  0.00000000000E+00 0.  1.
         11    1    1    2    0    0  0.14501989436E+02  0.97730620367E+02 -0.57552832292E+02  0.11434120150E+03  0.00000000000E+00 0. -1.
</event>
<event>
 7    1  0.2856214E-009  0.1256568E+03  0.7561462E-02  0.1234046E+00
          2   -1    0    0  501    0  0.00000000000E+00  0.00000000000E+00  0.15194760715E+04  0.15194760715E+04  0.00000000000E+00 0. -1.
         -2   -1    0    0    0  501 -0.00000000000E+00 -0.00000000000E+00 -0.15829622168E+02  0.15829622168E+02  0.00000000000E+00 0.  1.
         25    2    1    2    0    0  0.10886762111E+02 -0.89404955978E+02  0.11771068365E+04  0.11871559372E+04  0.12508775715E+03 0.  0.
          5    1    3    3  502    0  0.28280480934E+02 -0.11278075554E+03  0.74321261117E+03  0.75226440978E+03  0.41800000000E+01 0. -1.
         -5    1    3    3    0  502 -0.17393718823E+02  0.23375799558E+02  0.43389422534E+03  0.43489152744E+03  0.41800000000E+01 0. -1.
        -11    1    1    2    0    0 -0.33448785293E+02  0.55682013405E+02  0.10922917992E+03  0.12708391558E+03  0.00000000000E+00 0.  1.
         11    1    1    2    0    0  0.22562023182E+02  0.33722942572E+02  0.21731043291E+03  0.22106584086E+03  0.00000000000E+00 0. -1.
</event>
<event>
 7    1  0.2856214E-009  0.7714585E+02  0.7561462E-02  0.1337352E+00
         -1   -1    0    0    0  501 -0.00000000000E+00  0.00000000000E+00  0.16908739459E+02  0.16908739459E+02  0.00000000000E+00 0.  1.
          1   -1    0    0  501    0  0.00000000000E+00 -0.00000000000E+00 -0.70878259238E+03  0.70878259238E+03  0.00000000000E+00 0. -1.
         25    2    1    2    0    0 -0.83468779897E+01  0.17254532101E+02 -0.36984139578E+03  0.39089321915E+03  0.12508981372E+03 0.  0.
          5    1    3    3  502    0 -0.36166225187E+01 -0.27256135327E+02 -0.32894492437E+03  0.33011848258E+03  0.41800000000E+01 0. -1.
         -5    1    3    3    0  502 -0.47302554710E+01  0.44510667428E+02 -0.40896471410E+02  0.60774736573E+02  0.41800000000E+01 0. -1.
        -11    1    1    2    0    0 -0.30981998261E+02 -0.26899880705E+02 -0.85630394725E+02  0.94952895159E+02  0.00000000000E+00 0.  1.
         11    1    1    2    0    0  0.39328876250E+02  0.96453486043E+01 -0.23640206242E+03  0.23984521753E+03  0.00000000000E+00 0. -1.
</event>
<event>
 7    1  0.2856214E-009  0.4733785E+03  0.7561462E-02  0.1020971E+00
         -1   -1    0    0    0  501 -0.00000000000E+00  0.00000000000E+00  0.17072933629E+03  0.17072933629E+03  0.00000000000E+00 0.  1.
          1   -1    0    0  501    0  0.00000000000E+00 -0.00000000000E+00 -0.17092126546E+04  0.17092126546E+04  0.00000000000E+00 0. -1.
         25    2    1    2    0    0 -0.28048974947E+03  0.37034799366E+03 -0.34643612023E+03  0.59287122526E+03  0.12508464483E+03 0.  0.
          5    1    3    3  502    0 -0.33354852490E+02 -0.10919253275E+01 -0.36423562343E+02  0.49577079172E+02  0.41800000000E+01 0.  1.
         -5    1    3    3    0  502 -0.24713489698E+03  0.37143991898E+03 -0.31001255789E+03  0.54329414609E+03  0.41800000000E+01 0.  1.
        -11    1    1    2    0    0  0.59758913603E+02 -0.11371287784E+03 -0.50609076345E+03  0.52213945186E+03  0.00000000000E+00 0.  1.
         11    1    1    2    0    0  0.22073083587E+03 -0.25663511582E+03 -0.68595643464E+03  0.76493131378E+03  0.00000000000E+00 0. -1.
</event>
<event>
 7    1  0.2856214E-009  0.1010133E+03  0.7561462E-02  0.1278179E+00
         -1   -1    0    0    0  501 -0.00000000000E+00  0.00000000000E+00  0.24695335579E+03  0.24695335579E+03  0.00000000000E+00 0.  1.
          1   -1    0    0  501    0  0.00000000000E+00 -0.00000000000E+00 -0.77418306942E+02  0.77418306942E+02  0.00000000000E+00 0. -1.
         25    2    1    2    0    0 -0.20582498615E+02 -0.33918713312E+02  0.18182568117E+03  0.22423666332E+03  0.12508950589E+03 0.  0.
          5    1    3    3  502    0 -0.11874991150E+02  0.44431065534E+02  0.36536256324E+02  0.58885528150E+02  0.41800000000E+01 0. -1.
         -5    1    3    3    0  502 -0.87075074650E+01 -0.78349778846E+02  0.14528942485E+03  0.16535113517E+03  0.41800000000E+01 0. -1.
        -11    1    1    2    0    0  0.54767596803E+01 -0.20089501499E+02 -0.34106333195E+02  0.39960291930E+02  0.00000000000E+00 0. -1.
         11    1    1    2    0    0  0.15105738935E+02  0.54008214810E+02  0.21815700877E+02  0.60174707482E+02  0.00000000000E+00 0.  1.
</event>
<event>
 7    1  0.2856214E-009  0.1001368E+03  0.7561462E-02  0.1280008E+00
         -2   -1    0    0    0  501 -0.00000000000E+00  0.00000000000E+00  0.69149359807E+01  0.69149359807E+01  0.00000000000E+00 0.  1.
          2   -1    0    0  501    0  0.00000000000E+00 -0.00000000000E+00 -0.26273502373E+04  0.26273502373E+04  0.00000000000E+00 0. -1.
         25    2    1    2    0    0 -0.35377679474E+02 -0.28585185978E+02 -0.20655526629E+04  0.20698373522E+04  0.12510063284E+03 0.  0.
          5    1    3    3  502    0 -0.61263644357E+02 -0.35829240196E+02 -0.19430652148E+04  0.19443654157E+04  0.41800000000E+01 0. -1.
         -5    1    3    3    0  502  0.25885964883E+02  0.72440542181E+01 -0.12248744813E+03  0.12547193650E+03  0.41800000000E+01 0. -1.
        -11    1    1    2    0    0  0.62199351865E+02  0.38761189149E+02 -0.43713091703E+03  0.44323202477E+03  0.00000000000E+00 0. -1.
         11    1    1    2    0    0 -0.26821672391E+02 -0.10176003171E+02 -0.11775172134E+03  0.12119579626E+03  0.00000000000E+00 0.  1.
</event>
<event>
 7    1  0.2856214E-009  0.1132424E+03  0.7561462E-02  0.1254681E+00
          1   -1    0    0  501    0  0.00000000000E+00  0.00000000000E+00  0.73991076829E+03  0.73991076829E+03  0.00000000000E+00 0. -1.
         -1   -1    0    0    0  501 -0.00000000000E+00 -0.00000000000E+00 -0.18659100944E+02  0.18659100944E+02  0.00000000000E+00 0.  1.
         25    2    1    2    0    0  0.39112674870E+02  0.79516995769E+01  0.48548994157E+03  0.50293204183E+03  0.12508846660E+03 0.  0.
          5    1    3    3  502    0  0.80306039868E+02  0.25294602344E+02  0.27157724180E+03  0.28435989100E+03  0.41800000000E+01 0.  1.
         -5    1    3    3    0  502 -0.41193364998E+02 -0.17342902767E+02  0.21391269977E+03  0.21857215083E+03  0.41800000000E+01 0.  1.
        -11    1    1    2    0    0  0.15303922888E+02  0.28115735519E+02  0.57689190597E+02  0.65975354120E+02  0.00000000000E+00 0.  1.
         11    1    1    2    0    0 -0.54416597758E+02 -0.36067435096E+02  0.17807253517E+03  0.18966247328E+03  0.00000000000E+00 0. -1.
</event>
<event>
 7    1  0.2856214E-009  0.1420149E+03  0.7561462E-02  0.1210643E+00
          1   -1    0    0  501    0  0.00000000000E+00  0.00000000000E+00  0.11929434224E+03  0.11929434224E+03  0.00000000000E+00 0. -1.
         -1   -1    0    0    0  501 -0.00000000000E+00 -0.00000000000E+00 -0.18296194466E+03  0.18296194466E+03  0.00000000000E+00 0.  1.
         25    2    1    2    0    0 -0.84198596988E+02  0.44584352639E+02 -0.30103807650E+01  0.15726799207E+03  0.12508793188E+03 0.  0.
          5    1    3    3  502    0 -0.11256948948E+03  0.11167046294E+02 -0.27177691006E+01  0.11323184867E+03  0.41800000000E+01 0.  1.
         -5    1    3    3    0  502  0.28370892490E+02  0.33417306345E+02 -0.29261166449E+00  0.44036143401E+02  0.41800000000E+01 0.  1.
        -11    1    1    2    0    0 -0.17134060494E+02 -0.93004578164E+01  0.37347703418E+01  0.19850013958E+02  0.00000000000E+00 0. -1.
         11    1    1    2    0    0  0.10133265748E+03 -0.35283894823E+02 -0.64391992002E+02  0.12513828087E+03  0.00000000000E+00 0.  1.
</event>
<event>
 7    1  0.2856214E-009  0.1143045E+03  0.7561462E-02  0.1252800E+00
          2   -1    0    0  501    0  0.00000000000E+00  0.00000000000E+00  0.13844345637E+04  0.13844345637E+04  0.00000000000E+00 0. -1.
         -2   -1    0    0    0  501 -0.00000000000E+00 -0.00000000000E+00 -0.10593008041E+02  0.10593008041E+02  0.00000000000E+00 0.  1.
         25    2    1    2    0    0 -0.19494040201E+02 -0.19677400419E+02  0.90105291383E+03  0.91011660177E+03  0.12509459465E+03 0.  0.
          5    1    3    3  502    0 -0.35935291295E+02  0.44226605027E+02  0.29620794074E+03  0.30166861671E+03  0.41800000000E+01 0.  1.
         -5    1    3    3    0  502  0.16441251094E+02 -0.63904005447E+02  0.60484497309E+03  0.60844798506E+03  0.41800000000E+01 0.  1.
        -11    1    1    2    0    0  0.50238990348E+02  0.43503357601E+02  0.34465650299E+03  0.35100513290E+03  0.00000000000E+00 0.  1.
         11    1    1    2    0    0 -0.30744950147E+02 -0.23825957182E+02  0.12813213880E+03  0.13390583702E+03  0.00000000000E+00 0. -1.
</event>
<event>
 7    1  0.2856214E-009  0.1040443E+03  0.7561462E-02  0.1272014E+00
         -2   -1    0    0    0  501 -0.00000000000E+00  0.00000000000E+00  0.49048463845E+02  0.49048463845E+02  0.00000000000E+00 0.  1.
          2   -1    0    0  501    0  0.00000000000E+00 -0.00000000000E+00 -0.33792634865E+03  0.33792634865E+03  0.00000000000E+00 0. -1.
         25    2    1    2    0    0 -0.18077800462E+02 -0.60549336385E+02 -0.13244713871E+03  0.19282471495E+03  0.12508436008E+03 0.  0.
          5    1    3    3  502    0  0.44089412436E+02 -0.14862778659E+02 -0.97321493201E+02  0.10795241506E+03  0.41800000000E+01 0.  1.
         -5    1    3    3    0  502 -0.62167212898E+02 -0.45686557725E+02 -0.35125645510E+02  0.84872299891E+02  0.41800000000E+01 0.  1.
        -11    1    1    2    0    0 -0.15632184148E+02  0.97697531589E+00  0.68556429562E+01  0.17097353665E+02  0.00000000000E+00 0.  1.
         11    1    1    2    0    0  0.33709984610E+02  0.59572361069E+02 -0.16328638905E+03  0.17705274388E+03  0.00000000000E+00 0. -1.
</event>
<event>
 7    1  0.2856214E-009  0.9953401E+02  0.7561462E-02  0.1281279E+00
         -2   -1    0    0    0  501 -0.00000000000E+00  0.00000000000E+00  0.24659871306E+02  0.24659871306E+02  0.00000000000E+00 0.  1.
          2   -1    0    0  501    0  0.00000000000E+00 -0.00000000000E+00 -0.53381884643E+03  0.53381884643E+03  0.00000000000E+00 0. -1.
         25    2    1    2    0    0 -0.68741818898E+01 -0.34343367835E+02 -0.28758385250E+03  0.31556047219E+03  0.12508884083E+03 0.  0.
          5    1    3    3  502    0 -0.57808843005E+02  0.13368036643E+02 -0.11846367395E+03  0.13255821808E+03  0.41800000000E+01 0. -1.
         -5    1    3    3    0  502  0.50934661115E+02 -0.47711404478E+02 -0.16912017855E+03  0.18300225412E+03  0.41800000000E+01 0. -1.
        -11    1    1    2    0    0  0.33160371686E+02  0.12309023056E+02 -0.19838747147E+03  0.20151603195E+03  0.00000000000E+00 0. -1.
         11    1    1    2    0    0 -0.26286189796E+02  0.22034344779E+02 -0.23187651156E+02  0.41402213588E+02  0.00000000000E+00 0.  1.
</event>
<event>
 7    1  0.2856214E-009  0.1012039E+03  0.7561462E-02  0.1277785E+00
          3   -1    0    0  501    0  0.00000000000E+00  0.00000000000E+00  0.14816326240E+03  0.14816326240E+03  0.00000000000E+00 0. -1.
         -3   -1    0    0    0  501 -0.00000000000E+00 -0.00000000000E+00 -0.17612582336E+03  0.17612582336E+03  0.00000000000E+00 0.  1.
         25    2    1    2    0    0  0.10695470701E+01 -0.38281215239E+02  0.97110015190E+02  0.16291918022E+03  0.12508280802E+03 0.  0.
          5    1    3    3  502    0 -0.55221125076E+02 -0.31510513457E+02  0.82465781053E+02  0.10421306328E+03  0.41800000000E+01 0.  1.
         -5    1    3    3    0  502  0.56290672146E+02 -0.67707017823E+01  0.14644234137E+02  0.58706116945E+02  0.41800000000E+01 0.  1.
        -11    1    1    2    0    0 -0.31187751288E+02 -0.23368227808E+01 -0.10029758138E+03  0.10506065582E+03  0.00000000000E+00 0.  1.
         11    1    1    2    0    0  0.30118204218E+02  0.40618038020E+02 -0.24774994782E+02  0.56309249723E+02  0.00000000000E+00 0. -1.
</event>
<event>
 7    1  0.2856214E-009  0.2024336E+03  0.7561462E-02  0.1147702E+00
         -1   -1    0    0    0  501 -0.00000000000E+00  0.00000000000E+00  0.30096721346E+03  0.30096721346E+03  0.00000000000E+00 0.  1.
          1   -1    0    0  501    0  0.00000000000E+00 -0.00000000000E+00 -0.17174537856E+03  0.17174537856E+03  0.00000000000E+00 0. -1.
         25    2    1    2    0    0  0.15008707627E+03  0.10939446520E+03 -0.86837924777E+01  0.22408580169E+03  0.12508300759E+03 0.  0.
          5    1    3    3  502    0  0.10966021036E+03  0.11318895023E+03 -0.50603309149E+02  0.16557556428E+03  0.41800000000E+01 0.  1.
         -5    1    3    3    0  502  0.40426865911E+02 -0.37944850284E+01  0.41919516671E+02  0.58510237412E+02  0.41800000000E+01 0.  1.
        -11    1    1    2    0    0 -0.85819304481E+02 -0.77919900296E+01  0.49277904990E+02  0.99267215386E+02  0.00000000000E+00 0.  1.
         11    1    1    2    0    0 -0.64267771791E+02 -0.10160247517E+03  0.88627722385E+02  0.14935957494E+03  0.00000000000E+00 0. -1.
</event>
<event>
 7    1  0.2856214E-009  0.7794339E+02  0.7561462E-02  0.1334991E+00
         -2   -1    0    0    0  501 -0.00000000000E+00  0.00000000000E+00  0.38075024923E+03  0.38075024923E+03  0.00000000000E+00 0.  1.
          2   -1    0    0  501    0  0.00000000000E+00 -0.00000000000E+00 -0.33816521330E+02  0.33816521330E+02  0.00000000000E+00 0. -1.
         25    2    1    2    0    0 -0.53859401913E+02 -0.20005939608E+02  0.23833925547E+03  0.27523509603E+03  0.12509070549E+03 0.  0.
          5    1    3    3  502    0 -0.43480332029E+01  0.23417202428E+02  0.19453319399E+03  0.19603037194E+03  0.41800000000E+01 0. -1.
         -5    1    3    3    0  502 -0.49511368710E+02 -0.43423142037E+02  0.43806061480E+02  0.79204724091E+02  0.41800000000E+01 0. -1.
        -11    1    1    2    0    0  0.28247440913E+02 -0.63652780053E+01  0.96315055627E+02  0.10057347872E+03  0.00000000000E+00 0.  1.
         11    1    1    2    0    0  0.25611960999E+02  0.26371217614E+02  0.12279416809E+02  0.38758195802E+02  0.00000000000E+00 0. -1.
</event>
<event>
 7    1  0.2856214E-009  0.1858910E+03  0.7561462E-02  0.1162220E+00
         -4   -1    0    0    0  501 -0.00000000000E+00  0.00000000000E+00  0.30140944530E+02  0.30140944530E+02  0.00000000000E+00 0. -1.
          4   -1    0    0  501    0  0.00000000000E+00 -0.00000000000E+00 -0.14235172574E+04  0.14235172574E+04  0.00000000000E+00 0.  1.
         25    2    1    2    0    0 -0.13760728848E+03 -0.85813836833E+02 -0.91766206723E+03  0.94023799601E+03  0.12507613308E+03 0.  0.
          5    1    3    3  502    0 -0.71025672795E+02  0.17314902657E+02 -0.22054750304E+03  0.23238572578E+03  0.41800000000E+01 0.  1.
         -5    1    3    3    0  502 -0.66581615689E+02 -0.10312873949E+03 -0.69711456419E+03  0.70785227022E+03  0.41800000000E+01 0.  1.
        -11    1    1    2    0    0  0.11257779273E+03  0.33045429422E+02 -0.40528213271E+03  0.42192341356E+03  0.00000000000E+00 0.  1.
         11    1    1    2    0    0  0.25029495757E+02  0.52768407411E+02 -0.70432112899E+02  0.91496792326E+02  0.00000000000E+00 0. -1.
</event>
<event>
 7    1  0.2856214E-009  0.9059510E+02  0.7561462E-02  0.1301417E+00
         -3   -1    0    0    0  501 -0.00000000000E+00  0.00000000000E+00  0.95435369223E+01  0.95435369223E+01  0.00000000000E+00 0.  1.
          3   -1    0    0  501    0  0.00000000000E+00 -0.00000000000E+00 -0.13129564073E+04  0.13129564073E+04  0.00000000000E+00 0. -1.
         25    2    1    2    0    0 -0.16300226177E+02 -0.11662185033E+02 -0.85764828767E+03  0.86695470605E+03  0.12509265790E+03 0.  0.
          5    1    3    3  502    0 -0.35948567080E+02 -0.39125918562E+02 -0.78418355728E+03  0.78599265956E+03  0.41800000000E+01 0.  1.
         -5    1    3    3    0  502  0.19648340903E+02  0.27463733529E+02 -0.73464730394E+02  0.80962046488E+02  0.41800000000E+01 0.  1.
        -11    1    1    2    0    0 -0.44245674764E+01 -0.38936981308E+02 -0.18105888522E+03  0.18525114097E+03  0.00000000000E+00 0.  1.
         11    1    1    2    0    0  0.20724793654E+02  0.50599166341E+02 -0.26470569751E+03  0.27029409723E+03  0.00000000000E+00 0. -1.
</event>
<event>
 7    1  0.2856214E-009  0.6015340E+02  0.7561462E-02  0.1397189E+00
         -2   -1    0    0    0  501 -0.00000000000E+00  0.00000000000E+00  0.32889072644E+02  0.32889072644E+02  0.00000000000E+00 0.  1.
          2   -1    0    0  501    0  0.00000000000E+00 -0.00000000000E+00 -0.28054294202E+03  0.28054294202E+03  0.00000000000E+00 0. -1.
         25    2    1    2    0    0 -0.26264174942E+02  0.75713705529E+00 -0.14397783903E+03  0.19252937248E+03  0.12509021143E+03 0.  0.
          5    1    3    3  502    0 -0.21091615117E+02  0.25099950750E+02 -0.15950962523E+03  0.16289768782E+03  0.41800000000E+01 0.  1.
         -5    1    3    3    0  502 -0.51725598249E+01 -0.24342813695E+02  0.15531786195E+02  0.29631684666E+02  0.41800000000E+01 0.  1.
        -11    1    1    2    0    0 -0.17172957684E+02 -0.61712259988E+01 -0.34790088909E+02  0.39285427225E+02  0.00000000000E+00 0.  1.
         11    1    1    2    0    0  0.43437132626E+02  0.54140889435E+01 -0.68885941433E+02  0.81617214954E+02  0.00000000000E+00 0. -1.
</event>
<event>
 7    1  0.2856214E-009  0.1235080E+03  0.7561462E-02  0.1237420E+00
         -2   -1    0    0    0  501 -0.00000000000E+00  0.00000000000E+00  0.21003293969E+03  0.21003293969E+03  0.00000000000E+00 0.  1.
          2   -1    0    0  501    0  0.00000000000E+00 -0.00000000000E+00 -0.11590724221E+03  0.11590724221E+03  0.00000000000E+00 0. -1.
         25    2    1    2    0    0  0.28372998743E+02  0.96126334153E+02  0.23912998117E+01  0.16031161865E+03  0.12509515412E+03 0.  0.
          5    1    3    3  502    0 -0.30906439457E+02  0.50798573277E+02  0.44626966367E+02  0.74463021520E+02  0.41800000000E+01 0. -1.
         -5    1    3    3    0  502  0.59279438200E+02  0.45327760876E+02 -0.42235666555E+02  0.85848597127E+02  0.41800000000E+01 0. -1.
        -11    1    1    2    0    0 -0.26311301192E+02 -0.12701301674E+02  0.75036600699E+02  0.80523903774E+02  0.00000000000E+00 0.  1.
         11    1    1    2    0    0 -0.20616975515E+01 -0.83425032480E+02  0.16697796968E+02  0.85104659477E+02  0.00000000000E+00 0. -1.
</event>
<event>
 7    1  0.2856214E-009  0.1160082E+03  0.7561462E-02  0.1249831E+00
          2   -1    0    0  501    0  0.00000000000E+00  0.00000000000E+00  0.17144588893E+04  0.17144588893E+04  0.00000000000E+00 0. -1.
         -2   -1    0    0    0  501 -0.00000000000E+00 -0.00000000000E+00 -0.16183620859E+02  0.16183620859E+02  0.00000000000E+00 0.  1.
         25    2    1    2    0    0 -0.39380574620E+02 -0.66375188353E+02  0.14259607152E+04  0.14335159392E+04  0.12508993356E+03 0.  0.
          5    1    3    3  502    0 -0.76537808329E+02 -0.53604514217E+02  0.66689342066E+03  0.67342095822E+03  0.41800000000E+01 0.  1.
         -5    1    3    3    0  502  0.37157233709E+02 -0.12770674136E+02  0.75906729454E+03  0.76009498102E+03  0.41800000000E+01 0.  1.
        -11    1    1    2    0    0  0.53665403070E+02  0.65471225565E+02  0.26957329260E+03  0.28255303386E+03  0.00000000000E+00 0. -1.
         11    1    1    2    0    0 -0.14284828450E+02  0.90396278789E+00  0.27412606516E+01  0.14573537063E+02  0.00000000000E+00 0.  1.
</event>
<event>
 7    1  0.2856214E-009  0.6787461E+02  0.7561462E-02  0.1367473E+00
         -1   -1    0    0    0  501 -0.00000000000E+00  0.00000000000E+00  0.97793348126E+02  0.97793348126E+02  0.00000000000E+00 0.  1.
          1   -1    0    0  501    0  0.00000000000E+00 -0.00000000000E+00 -0.12774819142E+03  0.12774819142E+03  0.00000000000E+00 0. -1.
         25    2    1    2    0    0 -0.91972048871E+00 -0.28021676539E+02 -0.31666098965E+01  0.12823108455E+03  0.12508846224E+03 0.  0.
          5    1    3    3  502    0  0.40724791467E+02  0.17429030125E+02 -0.36928302621E+02  0.57822587849E+02  0.41800000000E+01 0.  1.
         -5    1    3    3    0  502 -0.41644511955E+02 -0.45450706663E+02  0.33761692724E+02  0.70408496702E+02  0.41800000000E+01 0.  1.
        -11    1    1    2    0    0 -0.40980888227E+01  0.12092676176E+02 -0.59354145158E+02  0.60711956784E+02  0.00000000000E+00 0. -1.
         11    1    1    2    0    0  0.50178093114E+01  0.15929000363E+02  0.32565911759E+02  0.36598498214E+02  0.00000000000E+00 0.  1.
</event>
<event>
 7    1  0.2856214E-009  0.1388840E+03  0.7561462E-02  0.1214839E+00
          2   -1    0    0  501    0  0.00000000000E+00  0.00000000000E+00  0.18112840963E+03  0.18112840963E+03  0.00000000000E+00 0.  1.
         -2   -1    0    0    0  501 -0.00000000000E+00 -0.00000000000E+00 -0.13350793893E+03  0.13350793893E+03  0.00000000000E+00 0. -1.
         25    2    1    2    0    0  0.53846468808E+02 -0.77066818646E+02  0.82757283226E+02  0.17701273265E+03  0.12508398321E+03 0.  0.
          5    1    3    3  502    0 -0.40998253398E+02 -0.22402104923E+02  0.23525292304E+02  0.52474973698E+02  0.41800000000E+01 0.  1.
         -5    1    3    3    0  502  0.94844722205E+02 -0.54664713723E+02  0.59231990922E+02  0.12453775895E+03  0.41800000000E+01 0.  1.
        -11    1    1    2    0    0  0.15470871174E+02 -0.26243304400E+01 -0.27582669243E+02  0.31733871616E+02  0.00000000000E+00 0. -1.
         11    1    1    2    0    0 -0.69317339982E+02  0.79691149086E+02 -0.75541432799E+01  0.10588974429E+03  0.00000000000E+00 0.  1.
</event>
<event>
 7    1  0.2856214E-009  0.1248242E+03  0.7561462E-02  0.1235344E+00
         -2   -1    0    0    0  501 -0.00000000000E+00  0.00000000000E+00  0.47456152655E+02  0.47456152655E+02  0.00000000000E+00 0.  1.
          2   -1    0    0  501    0  0.00000000000E+00 -0.00000000000E+00 -0.53426850124E+03  0.53426850124E+03  0.00000000000E+00 0. -1.
         25    2    1    2    0    0 -0.65587398158E+02  0.95607227127E+02 -0.30662821827E+03  0.35087017300E+03  0.12508623179E+03 0.  0.
          5    1    3    3  502    0 -0.35042821167E+02  0.54750905163E+02 -0.33999485365E+02  0.73478556985E+02  0.41800000000E+01 0. -1.
         -5    1    3    3    0  502 -0.30544576992E+02  0.40856321964E+02 -0.27262873291E+03  0.27739161602E+03  0.41800000000E+01 0. -1.
        -11    1    1    2    0    0 -0.75334052653E+01 -0.41973590946E+02 -0.20724480587E+02  0.47413485712E+02  0.00000000000E+00 0.  1.
         11    1    1    2    0    0  0.73120803424E+02 -0.53633636181E+02 -0.15945964972E+03  0.18344099518E+03  0.00000000000E+00 0. -1.
</event>
<event>
 7    1  0.2856214E-009  0.8294316E+02  0.7561462E-02  0.1320901E+00
          1   -1    0    0  501    0  0.00000000000E+00  0.00000000000E+00  0.43648678008E+02  0.43648678008E+02  0.00000000000E+00 0. -1.
         -1   -1    0    0    0  501 -0.00000000000E+00 -0.00000000000E+00 -0.25471682051E+03  0.25471682051E+03  0.00000000000E+00 0.  1.
         25    2    1    2    0    0 -0.15746270675E+02  0.12870525531E+02 -0.13143895231E+03  0.18258539331E+03  0.12509049603E+03 0.  0.
          5    1    3    3  502    0 -0.55680572234E+02  0.35694101545E+02 -0.11652364817E+03  0.13405084107E+03  0.41800000000E+01 0. -1.
         -5    1    3    3    0  502  0.39934301559E+02 -0.22823576014E+02 -0.14915304146E+02  0.48534552237E+02  0.41800000000E+01 0. -1.
        -11    1    1    2    0    0 -0.41505040926E+01  0.17021841700E+02 -0.77882542383E+02  0.79828943292E+02  0.00000000000E+00 0.  1.
         11    1    1    2    0    0  0.19896774768E+02 -0.29892367231E+02 -0.17466478065E+01  0.35951161920E+02  0.00000000000E+00 0. -1.
</event>
<event>
 7    1  0.2856214E-009  0.1274238E+03  0.7561462E-02  0.1231329E+00
          1   -1    0    0  501    0  0.00000000000E+00  0.00000000000E+00  0.10171259929E+03  0.10171259929E+03  0.00000000000E+00 0. -1.
         -1   -1    0    0    0  501 -0.00000000000E+00 -0.00000000000E+00 -0.27623045197E+03  0.27623045197E+03  0.00000000000E+00 0.  1.
         25    2    1    2    0    0 -0.46868064142E+02 -0.79955083284E+02  0.46396688844E+01  0.15575153903E+03  0.12509030580E+03 0.  0.
          5    1    3    3  502    0  0.17438058376E+02 -0.60491937755E+02  0.44785214654E+02  0.77372787625E+02  0.41800000000E+01 0.  1.
         -5    1    3    3    0  502 -0.64306122518E+02 -0.19463145529E+02 -0.40145545769E+02  0.78378751408E+02  0.41800000000E+01 0.  1.
        -11    1    1    2    0    0  0.62222727923E+02  0.24461665892E+02 -0.13121472007E+03  0.14726623419E+03  0.00000000000E+00 0.  1.
         11    1    1    2    0    0 -0.15354663781E+02  0.55493417392E+02 -0.47942801494E+02  0.74925278035E+02  0.00000000000E+00 0. -1.
</event>
<event>
 7    1  0.2856214E-009  0.1198446E+03  0.7561462E-02  0.1243354E+00
         -2   -1    0    0    0  501 -0.00000000000E+00  0.00000000000E+00  0.21120583072E+03  0.21120583072E+03  0.00000000000E+00 0.  1.
          2   -1    0    0  501    0  0.00000000000E+00 -0.00000000000E+00 -0.84351479901E+02  0.84351479901E+02  0.00000000000E+00 0. -1.
         25    2    1    2    0    0 -0.58481447031E+01  0.62100223521E+02  0.20251940267E+02  0.14125412712E+03  0.12510774870E+03 0.  0.
          5    1    3    3  502    0  0.49817099586E+02  0.53552002606E+02 -0.14865469559E+02  0.74753026557E+02  0.41800000000E+01 0. -1.
         -5    1    3    3    0  502 -0.55665244289E+02  0.85482209157E+01  0.35117409825E+02  0.66501100558E+02  0.41800000000E+01 0. -1.
        -11    1    1    2    0    0  0.30249944419E+02  0.11541646243E+02  0.43926763138E+02  0.54569490149E+02  0.00000000000E+00 0. -1.
         11    1    1    2    0    0 -0.24401799716E+02 -0.73641869765E+02  0.62675647415E+02  0.99733693357E+02  0.00000000000E+00 0.  1.
</event>
<event>
 7    1  0.2856214E-009  0.9892763E+02  0.7561462E-02  0.1282567E+00
          3   -1    0    0  501    0  0.00000000000E+00  0.00000000000E+00  0.28308399715E+03  0.28308399715E+03  0.00000000000E+00 0. -1.
         -3   -1    0    0    0  501 -0.00000000000E+00 -0.00000000000E+00 -0.44245406226E+02  0.44245406226E+02  0.00000000000E+00 0.  1.
         25    2    1    2    0    0 -0.27074998744E+01 -0.88503184495E+01  0.17859588619E+03  0.21824505380E+03  0.12509498091E+03 0.  0.
          5    1    3    3  502    0 -0.10308214663E+02 -0.64642415328E+02  0.70520617703E+02  0.96309558561E+02  0.41800000000E+01 0.  1.
         -5    1    3    3    0  502  0.76007147889E+01  0.55792096879E+02  0.10807526849E+03  0.12193549524E+03  0.41800000000E+01 0.  1.
        -11    1    1    2    0    0 -0.34658919199E+02 -0.67466687862E+01 -0.13945989820E+01  0.35336993733E+02  0.00000000000E+00 0.  1.
         11    1    1    2    0    0  0.37366419074E+02  0.15596987236E+02  0.61637303719E+02  0.73747355850E+02  0.00000000000E+00 0. -1.
</event>
<event>
 7    1  0.2856214E-009  0.1104205E+03  0.7561462E-02  0.1259793E+00
         -3   -1    0    0    0  501 -0.00000000000E+00  0.00000000000E+00  0.37052900357E+02  0.37052900357E+02  0.00000000000E+00 0.  1.
          3   -1    0    0  501    0  0.00000000000E+00 -0.00000000000E+00 -0.42143845423E+03  0.42143845423E+03  0.00000000000E+00 0. -1.
         25    2    1    2    0    0 -0.56843825335E+02  0.17491753893E+02 -0.24570710047E+03  0.28205797324E+03  0.12509012398E+03 0.  0.
          5    1    3    3  502    0 -0.76550919697E+02  0.47881829463E+02 -0.21882501279E+03  0.23675846663E+03  0.41800000000E+01 0.  1.
         -5    1    3    3    0  502  0.19707094362E+02 -0.30390075570E+02 -0.26882087676E+02  0.45299506611E+02  0.41800000000E+01 0.  1.
        -11    1    1    2    0    0  0.73920085865E+02 -0.20366544340E+02 -0.64304733610E+02  0.10007034519E+03  0.00000000000E+00 0.  1.
         11    1    1    2    0    0 -0.17076260530E+02  0.28747904470E+01 -0.74373719793E+02  0.76363036147E+02  0.00000000000E+00 0. -1.
</event>
<event>
 7    1  0.2856214E-009  0.1039684E+03  0.7561462E-02  0.1272166E+00
          3   -1    0    0  501    0  0.00000000000E+00  0.00000000000E+00  0.19134420726E+03  0.19134420726E+03  0.00000000000E+00 0. -1.
         -3   -1    0    0    0  501 -0.00000000000E+00 -0.00000000000E+00 -0.89504082962E+02  0.89504082962E+02  0.00000000000E+00 0.  1.
         25    2    1    2    0    0 -0.19839722753E+02 -0.30819075856E+02  0.12234723428E+03  0.17877460605E+03  0.12509230192E+03 0.  0.
          5    1    3    3  502    0  0.21037129854E+02  0.28809021439E+02 -0.78717511058E+00  0.35925096986E+02  0.41800000000E+01 0. -1.
         -5    1    3    3    0  502 -0.40876852607E+02 -0.59628097294E+02  0.12313440939E+03  0.14284950907E+03  0.41800000000E+01 0. -1.
        -11    1    1    2    0    0 -0.37219938898E+02  0.16875152297E+02 -0.40145617045E+01  0.41063503532E+02  0.00000000000E+00 0. -1.
         11    1    1    2    0    0  0.57059661651E+02  0.13943923558E+02 -0.16492548279E+02  0.61010180631E+02  0.00000000000E+00 0.  1.
</event>
<event>
 7    1  0.2856214E-009  0.2173382E+03  0.7561462E-02  0.1135883E+00
         -1   -1    0    0    0  501 -0.00000000000E+00  0.00000000000E+00  0.12425721610E+03  0.12425721610E+03  0.00000000000E+00 0.  1.
          1   -1    0    0  501    0  0.00000000000E+00 -0.00000000000E+00 -0.41929205445E+03  0.41929205445E+03  0.00000000000E+00 0. -1.
         25    2    1    2    0    0  0.19556804648E+03 -0.44460563751E+01 -0.12822291111E+03  0.26523986979E+03  0.12507775730E+03 0.  0.
          5    1    3    3  502    0  0.12228623589E+03 -0.44724108160E+02 -0.12636542125E+03  0.18149341979E+03  0.41800000000E+01 0.  1.
         -5    1    3    3    0  502  0.73281810586E+02  0.40278051784E+02 -0.18574898601E+01  0.83746449996E+02  0.41800000000E+01 0.  1.
        -11    1    1    2    0    0 -0.13720445048E+03  0.50631081660E+02 -0.12809595588E+03  0.19441486973E+03  0.00000000000E+00 0. -1.
         11    1    1    2    0    0 -0.58363596000E+02 -0.46185025285E+02 -0.38715971354E+02  0.83894531029E+02  0.00000000000E+00 0.  1.
</event>
<event>
 7    1  0.2856214E-009  0.1222401E+03  0.7561462E-02  0.1239447E+00
          2   -1    0    0  501    0  0.00000000000E+00  0.00000000000E+00  0.57455369631E+03  0.57455369631E+03  0.00000000000E+00 0. -1.
         -2   -1    0    0    0  501 -0.00000000000E+00 -0.00000000000E+00 -0.31393128940E+02  0.31393128940E+02  0.00000000000E+00 0.  1.
         25    2    1    2    0    0 -0.37330905113E+02  0.63628915447E+02  0.36438700585E+03  0.39226088827E+03  0.12509388103E+03 0.  0.
          5    1    3    3  502    0  0.20874782253E+02  0.67718285328E+02  0.28464296294E+03  0.29336088944E+03  0.41800000000E+01 0. -1.
         -5    1    3    3    0  502 -0.58205687366E+02 -0.40893698811E+01  0.79744042917E+02  0.98899998830E+02  0.41800000000E+01 0. -1.
        -11    1    1    2    0    0 -0.79261509284E+01  0.19109703450E+02  0.49667337758E+02  0.53803801673E+02  0.00000000000E+00 0.  1.
         11    1    1    2    0    0  0.45257056042E+02 -0.82738618896E+02  0.12910622376E+03  0.15988213531E+03  0.00000000000E+00 0. -1.
</event>
<event>
 7    1  0.2856214E-009  0.1985942E+03  0.7561462E-02  0.1150931E+00
         -2   -1    0    0    0  501 -0.00000000000E+00  0.00000000000E+00  0.45767430962E+03  0.45767430962E+03  0.00000000000E+00 0.  1.
          2   -1    0    0  501    0  0.00000000000E+00 -0.00000000000E+00 -0.10464706435E+03  0.10464706435E+03  0.00000000000E+00 0. -1.
         25    2    1    2    0    0  0.17896327645E+03  0.13878549497E+02  0.10199732638E+03  0.24139613664E+03  0.12509265263E+03 0.  0.
          5    1    3    3  502    0  0.19394971441E+03  0.28797100503E+02  0.84151094707E+02  0.21341191124E+03  0.41800000000E+01 0. -1.
         -5    1    3    3    0  502 -0.14986437957E+02 -0.14918551005E+02  0.17846231670E+02  0.27984225406E+02  0.41800000000E+01 0. -1.
        -11    1    1    2    0    0 -0.15133105164E+03 -0.10982292581E+02  0.13992587974E+03  0.20639997520E+03  0.00000000000E+00 0. -1.
         11    1    1    2    0    0 -0.27632224814E+02 -0.28962569159E+01  0.11110403914E+03  0.11452526213E+03  0.00000000000E+00 0.  1.
</event>
<event>
 7    1  0.2856214E-009  0.1181086E+03  0.7561462E-02  0.1246250E+00
          1   -1    0    0  501    0  0.00000000000E+00  0.00000000000E+00  0.10130445940E+03  0.10130445940E+03  0.00000000000E+00 0. -1.
         -1   -1    0    0    0  501 -0.00000000000E+00 -0.00000000000E+00 -0.24443837755E+03  0.24443837755E+03  0.00000000000E+00 0.  1.
         25    2    1    2    0    0 -0.39683607757E+02 -0.10601165405E+03 -0.69371880141E+02  0.18241032560E+03  0.12509120518E+03 0.  0.
          5    1    3    3  502    0 -0.26612527824E+02 -0.57062364740E+02 -0.10347269257E+03  0.12119575329E+03  0.41800000000E+01 0. -1.
         -5    1    3    3    0  502 -0.13071079933E+02 -0.48949289312E+02  0.34100812433E+02  0.61214572312E+02  0.41800000000E+01 0. -1.
        -11    1    1    2    0    0  0.87791192890E+01  0.83707289607E+02 -0.88809903683E+02  0.12235678265E+03  0.00000000000E+00 0.  1.
         11    1    1    2    0    0  0.30904488468E+02  0.22304364446E+02  0.15047865670E+02  0.40975728694E+02  0.00000000000E+00 0. -1.
</event>
<event>
 7    1  0.2856214E-009  0.7694898E+02  0.7561462E-02  0.1337940E+00
          3   -1    0    0  501    0  0.00000000000E+00  0.00000000000E+00  0.37824678624E+03  0.37824678624E+03  0.00000000000E+00 0. -1.
         -3   -1    0    0    0  501 -0.00000000000E+00 -0.00000000000E+00 -0.47962091088E+02  0.47962091088E+02  0.00000000000E+00 0.  1.
         25    2    1    2    0    0  0.42462928710E+01  0.34809184389E+02  0.29131068800E+03  0.31896535978E+03  0.12508906216E+03 0.  0.
          5    1    3    3  502    0 -0.19116593316E+02  0.21912886303E+00 -0.45943665726E+01  0.20101561175E+02  0.41800000000E+01 0. -1.
         -5    1    3    3    0  502  0.23362886187E+02  0.34590055526E+02  0.29590505458E+03  0.29886379861E+03  0.41800000000E+01 0. -1.
        -11    1    1    2    0    0  0.33647774916E+02  0.86272185657E+01  0.35237048329E+02  0.49479806305E+02  0.00000000000E+00 0. -1.
         11    1    1    2    0    0 -0.37894067787E+02 -0.43436402955E+02  0.37369588152E+01  0.57763711241E+02  0.00000000000E+00 0.  1.
</event>
<event>
 7    1  0.2856214E-009  0.6985772E+02  0.7561462E-02  0.1360578E+00
         -1   -1    0    0    0  501 -0.00000000000E+00  0.00000000000E+00  0.55041508617E+03  0.55041508617E+03  0.00000000000E+00 0.  1.
          1   -1    0    0  501    0  0.00000000000E+00 -0.00000000000E+00 -0.33481473683E+02  0.33481473683E+02  0.00000000000E+00 0. -1.
         25    2    1    2    0    0  0.43637723677E+02  0.25138982508E+02  0.15040156213E+03  0.20200080056E+03  0.12508986436E+03 0.  0.
          5    1    3    3  502    0  0.60762228079E+01  0.36191072287E+00  0.15625743505E+03  0.15643180582E+03  0.41800000000E+01 0. -1.
         -5    1    3    3    0  502  0.37561500869E+02  0.24777071785E+02 -0.58558729204E+01  0.45568994738E+02  0.41800000000E+01 0. -1.
        -11    1    1    2    0    0 -0.59283386444E+02 -0.34809138599E+02  0.35144760635E+03  0.35810838589E+03  0.00000000000E+00 0.  1.
         11    1    1    2    0    0  0.15645662768E+02  0.96701560909E+01  0.15084444000E+02  0.23787373395E+02  0.00000000000E+00 0. -1.
</event>
<event>
 7    1  0.2856214E-009  0.1234550E+03  0.7561462E-02  0.1237504E+00
         -1   -1    0    0    0  501 -0.00000000000E+00  0.00000000000E+00  0.57105885474E+02  0.57105885474E+02  0.00000000000E+00 0.  1.
          1   -1    0    0  501    0  0.00000000000E+00 -0.00000000000E+00 -0.39053176656E+03  0.39053176656E+03  0.00000000000E+00 0. -1.
         25    2    1    2    0    0 -0.19014018434E+02 -0.84981596005E+02 -0.97753160677E+02  0.18106968075E+03  0.12508854587E+03 0.  0.
          5    1    3    3  502    0 -0.42992834615E+02  0.99481190577E+01 -0.63120039776E+02  0.77129506172E+02  0.41800000000E+01 0.  1.
         -5    1    3    3    0  502  0.23978816181E+02 -0.94929715063E+02 -0.34633120901E+02  0.10394017458E+03  0.41800000000E+01 0.  1.
        -11    1    1    2    0    0  0.18429953332E+02 -0.11347235735E+01 -0.33089371471E+01  0.18758993641E+02  0.00000000000E+00 0.  1.
         11    1    1    2    0    0  0.58406510207E+00  0.86116319579E+02 -0.23236378326E+03  0.24780897764E+03  0.00000000000E+00 0. -1.
</event>
<event>
 7    1  0.2856214E-009  0.1243431E+03  0.7561462E-02  0.1236099E+00
         -1   -1    0    0    0  501 -0.00000000000E+00  0.00000000000E+00  0.10537963198E+03  0.10537963198E+03  0.00000000000E+00 0.  1.
          1   -1    0    0  501    0  0.00000000000E+00 -0.00000000000E+00 -0.19955608858E+03  0.19955608858E+03  0.00000000000E+00 0. -1.
         25    2    1    2    0    0 -0.73534373205E+02 -0.57944677117E+01  0.12513913736E+02  0.14575328682E+03  0.12508614106E+03 0.  0.
          5    1    3    3  502    0 -0.44609805730E+02 -0.64462417704E+02  0.15993765781E+02  0.80116858447E+02  0.41800000000E+01 0. -1.
         -5    1    3    3    0  502 -0.28924567474E+02  0.58667949992E+02 -0.34798520454E+01  0.65636428377E+02  0.41800000000E+01 0. -1.
        -11    1    1    2    0    0 -0.14339393102E+02  0.85977487091E+01  0.46130123863E+01  0.17344144853E+02  0.00000000000E+00 0.  1.
         11    1    1    2    0    0  0.87873766307E+02 -0.28032809974E+01 -0.11130338271E+03  0.14183828888E+03  0.00000000000E+00 0. -1.
</event>
<event>
 7    1  0.2856214E-009  0.9168103E+02  0.7561462E-02  0.1298831E+00
         -2   -1    0    0    0  501 -0.00000000000E+00  0.00000000000E+00  0.10694556877E+03  0.10694556877E+03  0.00000000000E+00 0.  1.
          2   -1    0    0  501    0  0.00000000000E+00 -0.00000000000E+00 -0.16756679293E+03  0.16756679293E+03  0.00000000000E+00 0. -1.
         25    2    1    2    0    0 -0.73583304225E+02  0.26264545225E+01 -0.31369205078E+01  0.14517594899E+03  0.12507923477E+03 0.  0.
          5    1    3    3  502    0 -0.47927849034E+02 -0.17353832464E+02 -0.60428760271E+02  0.79166543957E+02  0.41800000000E+01 0.  1.
         -5    1    3    3    0  502 -0.25655455191E+02  0.19980286987E+02  0.57291839763E+02  0.66009405031E+02  0.41800000000E+01 0.  1.
        -11    1    1    2    0    0  0.67998350371E+02 -0.27936707175E+02 -0.86117605352E+01  0.74016198771E+02  0.00000000000E+00 0.  1.
         11    1    1    2    0    0  0.55849538540E+01  0.25310252652E+02 -0.48872543119E+02  0.55320213935E+02  0.00000000000E+00 0. -1.
</event>
<event>
 7    1  0.2856214E-009  0.7593758E+02  0.7561462E-02  0.1340992E+00
         -2   -1    0    0    0  501 -0.00000000000E+00  0.00000000000E+00  0.35672999623E+02  0.35672999623E+02  0.00000000000E+00 0.  1.
          2   -1    0    0  501    0  0.00000000000E+00 -0.00000000000E+00 -0.51525539859E+03  0.51525539859E+03  0.00000000000E+00 0. -1.
         25    2    1    2    0    0  0.24361568902E+01  0.67189761000E+02 -0.35452044731E+03  0.38190657718E+03  0.12508991681E+03 0.  0.
          5    1    3    3  502    0  0.20596008622E+02  0.97023549504E+01 -0.29883580398E+03  0.29973094836E+03  0.41800000000E+01 0. -1.
         -5    1    3    3    0  502 -0.18159851732E+02  0.57487406050E+02 -0.55684643331E+02  0.82175628821E+02  0.41800000000E+01 0. -1.
        -11    1    1    2    0    0  0.46504887169E+01 -0.36673438563E+02 -0.13187743375E+03  0.13696067200E+03  0.00000000000E+00 0. -1.
         11    1    1    2    0    0 -0.70866456071E+01 -0.30516322437E+02  0.68154820992E+01  0.32061149033E+02  0.00000000000E+00 0.  1.
</event>
<event>
 7    1  0.2856214E-009  0.2716306E+03  0.7561462E-02  0.1100350E+00
         -1   -1    0    0    0  501 -0.00000000000E+00  0.00000000000E+00  0.25036177030E+02  0.25036177030E+02  0.00000000000E+00 0.  1.
          1   -1    0    0  501    0  0.00000000000E+00 -0.00000000000E+00 -0.42368810594E+04  0.42368810594E+04  0.00000000000E+00 0. -1.
         25    2    1    2    0    0 -0.13747084055E+03 -0.21798253435E+03 -0.32279465799E+04  0.32406327791E+04  0.12508824382E+03 0.  0.
          5    1    3    3  502    0 -0.15098025277E+03 -0.13884466024E+03 -0.21983091215E+04  0.22078617127E+04  0.41800000000E+01 0.  1.
         -5    1    3    3    0  502  0.13509412217E+02 -0.79137874112E+02 -0.10296374584E+04  0.10327710664E+04  0.41800000000E+01 0.  1.
        -11    1    1    2    0    0  0.84502078324E+02  0.13412455904E+03 -0.42393349925E+03  0.45260314887E+03  0.00000000000E+00 0.  1.
         11    1    1    2    0    0  0.52968762228E+02  0.83857975317E+02 -0.55996480323E+03  0.56868130851E+03  0.00000000000E+00 0. -1.
</event>
<event>
 7    1  0.2856214E-009  0.1136217E+03  0.7561462E-02  0.1254006E+00
          2   -1    0    0  501    0  0.00000000000E+00  0.00000000000E+00  0.11491007683E+04  0.11491007683E+04  0.00000000000E+00 0. -1.
         -2   -1    0    0    0  501 -0.00000000000E+00 -0.00000000000E+00 -0.23238908105E+02  0.23238908105E+02  0.00000000000E+00 0.  1.
         25    2    1    2    0    0 -0.25673872296E+02  0.21949924454E+02  0.10090451147E+04  0.10173278651E+04  0.12507195858E+03 0.  0.
          5    1    3    3  502    0 -0.21390399060E+01  0.72795876132E+02  0.52893992946E+03  0.53394637975E+03  0.41800000000E+01 0. -1.
         -5    1    3    3    0  502 -0.23534832390E+02 -0.50845951678E+02  0.48010518520E+03  0.48338148537E+03  0.41800000000E+01 0. -1.
        -11    1    1    2    0    0 -0.10615809126E+02 -0.50709010952E+02  0.82338191167E+02  0.97281431526E+02  0.00000000000E+00 0.  1.
         11    1    1    2    0    0  0.36289681422E+02  0.28759086499E+02  0.34478554323E+02  0.57730379716E+02  0.00000000000E+00 0. -1.
</event>
<event>
 7    1  0.2856214E-009  0.1294627E+03  0.7561462E-02  0.1228255E+00
         -1   -1    0    0    0  501 -0.00000000000E+00  0.00000000000E+00  0.49738490336E+02  0.49738490336E+02  0.00000000000E+00 0.  1.
          1   -1    0    0  501    0  0.00000000000E+00 -0.00000000000E+00 -0.39695529409E+03  0.39695529409E+03  0.00000000000E+00 0. -1.
         25    2    1    2    0    0  0.11387436614E+02 -0.84031157631E+02 -0.15795925013E+03  0.21860879743E+03  0.12509105661E+03 0.  0.
          5    1    3    3  502    0 -0.53314681427E+02 -0.50756696686E+02 -0.10593762571E+03  0.12906955666E+03  0.41800000000E+01 0.  1.
         -5    1    3    3    0  502  0.64702118041E+02 -0.33274460946E+02 -0.52021624418E+02  0.89539240768E+02  0.41800000000E+01 0.  1.
        -11    1    1    2    0    0  0.28554276585E+02  0.57985112135E+02 -0.15893938478E+03  0.17157898465E+03  0.00000000000E+00 0.  1.
         11    1    1    2    0    0 -0.39941713199E+02  0.26046045496E+02 -0.30318168842E+02  0.56506002346E+02  0.00000000000E+00 0. -1.
</event>
<event>
 7    1  0.2856214E-009  0.1344518E+03  0.7561462E-02  0.1220996E+00
         -3   -1    0    0    0  501 -0.00000000000E+00  0.00000000000E+00  0.39524502122E+03  0.39524502122E+03  0.00000000000E+00 0.  1.
          3   -1    0    0  501    0  0.00000000000E+00 -0.00000000000E+00 -0.55330675805E+02  0.55330675805E+02  0.00000000000E+00 0. -1.
         25    2    1    2    0    0  0.14554324241E+02  0.95085035765E+02  0.14531642729E+03  0.21451678538E+03  0.12509034651E+03 0.  0.
          5    1    3    3  502    0  0.24113870965E+02 -0.26037198201E+02  0.40380900760E+02  0.53921276035E+02  0.41800000000E+01 0. -1.
         -5    1    3    3    0  502 -0.95595467243E+01  0.12112223397E+03  0.10493552653E+03  0.16059550935E+03  0.41800000000E+01 0. -1.
        -11    1    1    2    0    0 -0.36422153820E+02 -0.55716091633E+02  0.46325370878E+02  0.81098064975E+02  0.00000000000E+00 0. -1.
         11    1    1    2    0    0  0.21867829579E+02 -0.39368944132E+02  0.14827254724E+03  0.15496084666E+03  0.00000000000E+00 0.  1.
</event>
<event>
 7    1  0.2856214E-009  0.9030296E+02  0.7561462E-02  0.1302120E+00
         -2   -1    0    0    0  501 -0.00000000000E+00  0.00000000000E+00  0.58443178672E+02  0.58443178672E+02  0.00000000000E+00 0.  1.
          2   -1    0    0  501    0  0.00000000000E+00 -0.00000000000E+00 -0.21538516955E+03  0.21538516955E+03  0.00000000000E+00 0. -1.
         25    2    1    2    0    0  0.26596260062E+02  0.94545581300E+01 -0.10604605574E+03  0.16640252045E+03  0.12508910087E+03 0.  0.
          5    1    3    3  502    0  0.37073395839E+02  0.39551567300E+02 -0.11970866085E+03  0.13147775111E+03  0.41800000000E+01 0. -1.
         -5    1    3    3    0  502 -0.10477135777E+02 -0.30097009170E+02  0.13662605111E+02  0.34924769340E+02  0.41800000000E+01 0. -1.
        -11    1    1    2    0    0  0.33416982798E+02 -0.53911783280E+00 -0.23495105732E+02  0.40853462285E+02  0.00000000000E+00 0. -1.
         11    1    1    2    0    0 -0.60013242860E+02 -0.89154402972E+01 -0.27400829409E+02  0.66572365487E+02  0.00000000000E+00 0.  1.
</event>
<event>
 7    1  0.2856214E-009  0.8262027E+02  0.7561462E-02  0.1321776E+00
         -1   -1    0    0    0  501 -0.00000000000E+00  0.00000000000E+00  0.21109044130E+03  0.21109044130E+03  0.00000000000E+00 0.  1.
          1   -1    0    0  501    0  0.00000000000E+00 -0.00000000000E+00 -0.72982059958E+02  0.72982059958E+02  0.00000000000E+00 0. -1.
         25    2    1    2    0    0 -0.22555430285E+02 -0.43254857779E+02  0.15369701736E+03  0.20408365487E+03  0.12509050677E+03 0.  0.
          5    1    3    3  502    0 -0.52463323936E+02 -0.56986420352E+02  0.15225677335E+03  0.17087846527E+03  0.41800000000E+01 0.  1.
         -5    1    3    3    0  502  0.29907893651E+02  0.13731562573E+02  0.14402440069E+01  0.33205189596E+02  0.41800000000E+01 0.  1.
        -11    1    1    2    0    0 -0.38578142897E+01  0.16323105350E+02 -0.34075642083E+02  0.37979940531E+02  0.00000000000E+00 0. -1.
         11    1    1    2    0    0  0.26413244575E+02  0.26931752429E+02  0.18487006064E+02  0.42008905854E+02  0.00000000000E+00 0.  1.
</event>
<event>
 7    1  0.2856214E-009  0.1696959E+03  0.7561462E-02  0.1178165E+00
          4   -1    0    0  501    0  0.00000000000E+00  0.00000000000E+00  0.97565422528E+02  0.97565422528E+02  0.00000000000E+00 0. -1.
         -4   -1    0    0    0  501 -0.00000000000E+00 -0.00000000000E+00 -0.56491079628E+03  0.56491079628E+03  0.00000000000E+00 0.  1.
         25    2    1    2    0    0  0.14009176971E+03  0.82262102890E+02 -0.58957405325E+02  0.21334538478E+03  0.12509004777E+03 0.  0.
          5    1    3    3  502    0  0.11113165910E+03  0.38637240420E+02  0.19088753524E+02  0.11926833156E+03  0.41800000000E+01 0. -1.
         -5    1    3    3    0  502  0.28960110610E+02  0.43624862470E+02 -0.78046158848E+02  0.94077053223E+02  0.41800000000E+01 0. -1.
        -11    1    1    2    0    0 -0.30244739518E+02 -0.42808131758E+02 -0.50863597843E+02  0.73036881085E+02  0.00000000000E+00 0. -1.
         11    1    1    2    0    0 -0.10984703019E+03 -0.39453971132E+02 -0.35752437058E+03  0.37609395294E+03  0.00000000000E+00 0.  1.
</event>
<event>
 7    1  0.2856214E-009  0.1424938E+03  0.7561462E-02  0.1210012E+00
         -2   -1    0    0    0  501 -0.00000000000E+00  0.00000000000E+00  0.36568394983E+03  0.36568394983E+03  0.00000000000E+00 0.  1.
          2   -1    0    0  501    0  0.00000000000E+00 -0.00000000000E+00 -0.12878399260E+03  0.12878399260E+03  0.00000000000E+00 0. -1.
         25    2    1    2    0    0 -0.10397002291E+03 -0.60167136855E+02 -0.40689013931E+02  0.17813789025E+03  0.12509061542E+03 0.  0.
          5    1    3    3  502    0 -0.11647814660E+01 -0.50770416404E+02  0.23910337591E+02  0.56286486313E+02  0.41800000000E+01 0. -1.
         -5    1    3    3    0  502 -0.10280524144E+03 -0.93967204508E+01 -0.64599351522E+02  0.12185140393E+03  0.41800000000E+01 0. -1.
        -11    1    1    2    0    0  0.58814658177E+02  0.62081544395E+02  0.24794813835E+03  0.26228145470E+03  0.00000000000E+00 0.  1.
         11    1    1    2    0    0  0.45155364732E+02 -0.19144075404E+01  0.29640832802E+02  0.54048597480E+02  0.00000000000E+00 0. -1.
</event>
<event>
 7    1  0.2856214E-009  0.2002225E+03  0.7561462E-02  0.1149551E+00
         -1   -1    0    0    0  501 -0.00000000000E+00  0.00000000000E+00  0.39649692506E+02  0.39649692506E+02  0.00000000000E+00 0.  1.
          1   -1    0    0  501    0  0.00000000000E+00 -0.00000000000E+00 -0.10664087989E+04  0.10664087989E+04  0.00000000000E+00 0. -1.
         25    2    1    2    0    0 -0.17110729725E+03 -0.19392805996E+02 -0.54242514718E+03  0.58268894412E+03  0.12509027621E+03 0.  0.
          5    1    3    3  502    0 -0.49851075031E+02 -0.65361418400E+02 -0.23540691568E+03  0.24938150101E+03  0.41800000000E+01 0. -1.
         -5    1    3    3    0  502 -0.12125622222E+03  0.45968612404E+02 -0.30701823150E+03  0.33330744311E+03  0.41800000000E+01 0. -1.
        -11    1    1    2    0    0  0.14267216603E+03  0.45538409012E+02 -0.30329948640E+03  0.33825977015E+03  0.00000000000E+00 0.  1.
         11    1    1    2    0    0  0.28435131228E+02 -0.26145603017E+02 -0.18103447280E+03  0.18510977713E+03  0.00000000000E+00 0. -1.
</event>
<event>
 7    1  0.2856214E-009  0.5043257E+02  0.7561462E-02  0.1443022E+00
         -2   -1    0    0    0  501 -0.00000000000E+00  0.00000000000E+00  0.55345300194E+02  0.55345300194E+02  0.00000000000E+00 0.  1.
          2   -1    0    0  501    0  0.00000000000E+00 -0.00000000000E+00 -0.24766698033E+03  0.24766698033E+03  0.00000000000E+00 0. -1.
         25    2    1    2    0    0 -0.13162052456E+02 -0.40151891436E+02 -0.12000421400E+03  0.17842227511E+03  0.12509229739E+03 0.  0.
          5    1    3    3  502    0 -0.20457138111E+02 -0.18077880291E+02 -0.14288896065E+03  0.14553361032E+03  0.41800000000E+01 0. -1.
         -5    1    3    3    0  502  0.72950856549E+01 -0.22074011144E+02  0.22884746649E+02  0.32888664794E+02  0.41800000000E+01 0. -1.
        -11    1    1    2    0    0  0.20532107795E+01  0.38310269112E+02 -0.93242872757E+02  0.10082720721E+03  0.00000000000E+00 0. -1.
         11    1    1    2    0    0  0.11108841676E+02  0.18416223239E+01  0.20925406623E+02  0.23762798205E+02  0.00000000000E+00 0.  1.
</event>
<event>
 7    1  0.2856214E-009  0.1113273E+03  0.7561462E-02  0.1258132E+00
         -2   -1    0    0    0  501 -0.00000000000E+00  0.00000000000E+00  0.12283565090E+03  0.12283565090E+03  0.00000000000E+00 0. -1.
          2   -1    0    0  501    0  0.00000000000E+00 -0.00000000000E+00 -0.16436556485E+03  0.16436556485E+03  0.00000000000E+00 0.  1.
         25    2    1    2    0    0 -0.46734701768E+02  0.46532138762E+02  0.39907622096E+02  0.14693388100E+03  0.12509026660E+03 0.  0.
          5    1    3    3  502    0  0.10568363834E+02  0.75505983741E+02  0.14331324550E+02  0.77689787991E+02  0.41800000000E+01 0.  1.
         -5    1    3    3    0  502 -0.57303065603E+02 -0.28973844979E+02  0.25576297546E+02  0.69244093008E+02  0.41800000000E+01 0.  1.
        -11    1    1    2    0    0  0.41283349502E+02 -0.67920495859E+01  0.76810094669E+01  0.42537569161E+02  0.00000000000E+00 0. -1.
         11    1    1    2    0    0  0.54513522663E+01 -0.39740089176E+02 -0.89118545507E+02  0.97729765591E+02  0.00000000000E+00 0.  1.
</event>
<event>
 7    1  0.2856214E-009  0.1363953E+03  0.7561462E-02  0.1218263E+00
         -3   -1    0    0    0  501 -0.00000000000E+00  0.00000000000E+00  0.18325447769E+03  0.18325447769E+03  0.00000000000E+00 0.  1.
          3   -1    0    0  501    0  0.00000000000E+00 -0.00000000000E+00 -0.11540484971E+03  0.11540484971E+03  0.00000000000E+00 0. -1.
         25    2    1    2    0    0 -0.44270808920E+02  0.74259478930E+02  0.60879549313E+02  0.16378777497E+03  0.12508293637E+03 0.  0.
          5    1    3    3  502    0 -0.57760248997E+02 -0.78566701843E+01  0.55010629202E+02  0.80259674531E+02  0.41800000000E+01 0.  1.
         -5    1    3    3    0  502  0.13489440078E+02  0.82116149114E+02  0.58689201111E+01  0.83528100435E+02  0.41800000000E+01 0.  1.
        -11    1    1    2    0    0 -0.15777418240E+02  0.16095246845E+02  0.13350047677E+02  0.26195565852E+02  0.00000000000E+00 0.  1.
         11    1    1    2    0    0  0.60048227159E+02 -0.90354725775E+02 -0.63799690181E+01  0.10867598658E+03  0.00000000000E+00 0. -1.
</event>
<event>
 7    1  0.2856214E-009  0.1331315E+03  0.7561462E-02  0.1222882E+00
         -1   -1    0    0    0  501 -0.00000000000E+00  0.00000000000E+00  0.14831926322E+03  0.14831926322E+03  0.00000000000E+00 0.  1.
          1   -1    0    0  501    0  0.00000000000E+00 -0.00000000000E+00 -0.12599626787E+03  0.12599626787E+03  0.00000000000E+00 0. -1.
         25    2    1    2    0    0  0.59483685272E+02 -0.52044891746E+02 -0.13624619479E+02  0.14860339340E+03  0.12510139369E+03 0.  0.
          5    1    3    3  502    0 -0.38199345311E+02 -0.16410983602E+02 -0.15378512912E+02  0.44525065125E+02  0.41800000000E+01 0. -1.
         -5    1    3    3    0  502  0.97683030583E+02 -0.35633908144E+02  0.17538934330E+01  0.10407832827E+03  0.41800000000E+01 0. -1.
        -11    1    1    2    0    0 -0.49954595803E+02 -0.15419721116E+02  0.13844163306E+02  0.54082254935E+02  0.00000000000E+00 0.  1.
         11    1    1    2    0    0 -0.95290894691E+01  0.67464612862E+02  0.22103451530E+02  0.71629882760E+02  0.00000000000E+00 0. -1.
</event>
<event>
 7    1  0.2856214E-009  0.9231713E+02  0.7561462E-02  0.1297336E+00
          2   -1    0    0  501    0  0.00000000000E+00  0.00000000000E+00  0.13577173312E+03  0.13577173312E+03  0.00000000000E+00 0.  1.
         -2   -1    0    0    0  501 -0.00000000000E+00 -0.00000000000E+00 -0.13968334325E+03  0.13968334325E+03  0.00000000000E+00 0. -1.
         25    2    1    2    0    0  0.50037417836E+02 -0.65170620977E+02  0.99177316633E+01  0.14998704473E+03  0.12508716626E+03 0.  0.
          5    1    3    3  502    0  0.54086099301E+02 -0.74002052212E+02  0.52770757732E+02  0.10584817023E+03  0.41800000000E+01 0. -1.
         -5    1    3    3    0  502 -0.40486814656E+01  0.88314312353E+01 -0.42853026068E+02  0.44138874504E+02  0.41800000000E+01 0. -1.
        -11    1    1    2    0    0 -0.41378433360E+02  0.56664114914E+02  0.32679566559E+02  0.77401232140E+02  0.00000000000E+00 0.  1.
         11    1    1    2    0    0 -0.86589844756E+01  0.85065060623E+01 -0.46508908358E+02  0.48066799500E+02  0.00000000000E+00 0. -1.
</event>
<event>
 7    1  0.2856214E-009  0.9326108E+02  0.7561462E-02  0.1295141E+00
         -2   -1    0    0    0  501 -0.00000000000E+00  0.00000000000E+00  0.23919812205E+03  0.23919812205E+03  0.00000000000E+00 0.  1.
          2   -1    0    0  501    0  0.00000000000E+00 -0.00000000000E+00 -0.83920174261E+02  0.83920174261E+02  0.00000000000E+00 0. -1.
         25    2    1    2    0    0  0.35119555425E+02  0.55442223826E+02  0.15999806242E+03  0.21343314840E+03  0.12508839074E+03 0.  0.
          5    1    3    3  502    0 -0.29905215801E+02  0.36079363452E+02  0.90842304938E+01  0.47916991171E+02  0.41800000000E+01 0. -1.
         -5    1    3    3    0  502  0.65024771226E+02  0.19362860374E+02  0.15091383193E+03  0.16551615722E+03  0.41800000000E+01 0. -1.
        -11    1    1    2    0    0 -0.36188774136E+02 -0.32829464721E+02 -0.43081937807E+02  0.65141802957E+02  0.00000000000E+00 0. -1.
         11    1    1    2    0    0  0.10692187110E+01 -0.22612759105E+02  0.38361823177E+02  0.44543344962E+02  0.00000000000E+00 0.  1.
</event>
<event>
 7    1  0.2856214E-009  0.1009396E+03  0.7561462E-02  0.1278332E+00
          2   -1    0    0  501    0  0.00000000000E+00  0.00000000000E+00  0.29087384669E+03  0.29087384669E+03  0.00000000000E+00 0. -1.
         -2   -1    0    0    0  501 -0.00000000000E+00 -0.00000000000E+00 -0.10085102345E+03  0.10085102345E+03  0.00000000000E+00 0.  1.
         25    2    1    2    0    0  0.61677986719E+02  0.72058541159E+02 -0.36205078896E+01  0.15702565989E+03  0.12508933762E+03 0.  0.
          5    1    3    3  502    0  0.51790190953E+02  0.63094057292E+02 -0.58422211668E+02  0.10046746319E+03  0.41800000000E+01 0.  1.
         -5    1    3    3    0  502  0.98877957661E+01  0.89644838665E+01  0.54801703779E+02  0.56558196693E+02  0.41800000000E+01 0.  1.
        -11    1    1    2    0    0 -0.15633258944E+02  0.49813001217E+01 -0.46383385933E+01  0.17050698549E+02  0.00000000000E+00 0.  1.
         11    1    1    2    0    0 -0.46044727775E+02 -0.77039841280E+02  0.19828166972E+03  0.21764851170E+03  0.00000000000E+00 0. -1.
</event>
<event>
 7    1  0.2856214E-009  0.1178551E+03  0.7561462E-02  0.1246678E+00
         -1   -1    0    0    0  501 -0.00000000000E+00  0.00000000000E+00  0.18384279742E+02  0.18384279742E+02  0.00000000000E+00 0.  1.
          1   -1    0    0  501    0  0.00000000000E+00 -0.00000000000E+00 -0.11076686604E+04  0.11076686604E+04  0.00000000000E+00 0. -1.
         25    2    1    2    0    0 -0.52399035000E+02  0.26236483982E+02 -0.79644216144E+03  0.80833341401E+03  0.12509508276E+03 0.  0.
          5    1    3    3  502    0 -0.56270505356E+02 -0.34227743041E+02 -0.57288622666E+03  0.57667495981E+03  0.41800000000E+01 0. -1.
         -5    1    3    3    0  502  0.38714703560E+01  0.60464227023E+02 -0.22355593478E+03  0.23165845421E+03  0.41800000000E+01 0. -1.
        -11    1    1    2    0    0 -0.11651811572E+02  0.24593281989E+02 -0.22590605544E+02  0.35368484429E+02  0.00000000000E+00 0.  1.
         11    1    1    2    0    0  0.64050846572E+02 -0.50829765971E+02 -0.27025161367E+03  0.28235104170E+03  0.00000000000E+00 0. -1.
</event>
<event>
 7    1  0.2856214E-009  0.4644660E+03  0.7561462E-02  0.1023494E+00
          1   -1    0    0  501    0  0.00000000000E+00  0.00000000000E+00  0.94048075179E+03  0.94048075179E+03  0.00000000000E+00 0. -1.
         -1   -1    0    0    0  501 -0.00000000000E+00 -0.00000000000E+00 -0.57414043932E+03  0.57414043932E+03  0.00000000000E+00 0.  1.
         25    2    1    2    0    0 -0.38484040787E+02 -0.45367994857E+03  0.76729490721E+03  0.90094152680E+03  0.12509053904E+03 0.  0.
          5    1    3    3  502    0  0.68446086243E+01 -0.39817183521E+03  0.61674122753E+03  0.73414908101E+03  0.41800000000E+01 0. -1.
         -5    1    3    3    0  502 -0.45328649411E+02 -0.55508113360E+02  0.15055367969E+03  0.16679244579E+03  0.41800000000E+01 0. -1.
        -11    1    1    2    0    0  0.50180915065E+02  0.25627537519E+03 -0.27492885186E+03  0.37918473828E+03  0.00000000000E+00 0.  1.
         11    1    1    2    0    0 -0.11696874279E+02  0.19740457338E+03 -0.12602574289E+03  0.23449492602E+03  0.00000000000E+00 0. -1.
</event>
<event>
 7    1  0.4750335E-009  0.9676108E+02  0.7561462E-02  0.1287258E+00
         -2   -1    0    0    0  501 -0.00000000000E+00  0.00000000000E+00  0.17449596933E+02  0.17449596933E+02  0.00000000000E+00 0.  1.
          2   -1    0    0  501    0  0.00000000000E+00 -0.00000000000E+00 -0.10608928710E+04  0.10608928710E+04  0.00000000000E+00 0. -1.
         25    2    1    2    0    0 -0.73024793566E+02 -0.21643602511E+02 -0.69767991495E+03  0.71288463638E+03  0.12508467157E+03 0.  0.
          5    1    3    3  502    0 -0.47374368524E+02  0.33095100379E+01 -0.65625294911E+03  0.65798228644E+03  0.41800000000E+01 0. -1.
         -5    1    3    3    0  502 -0.25650425042E+02 -0.24953112549E+02 -0.41426965834E+02  0.54902349940E+02  0.41800000000E+01 0. -1.
        -11    1    1    2    0    0  0.11971225112E+02  0.43388432993E+02 -0.78881787440E+02  0.90819616483E+02  0.00000000000E+00 0.  1.
         11    1    1    2    0    0  0.61053568453E+02 -0.21744830482E+02 -0.26688157163E+03  0.27463821502E+03  0.00000000000E+00 0. -1.
</event>
<event>
 7    1  0.3303685E-009  0.1015994E+03  0.7561462E-02  0.1276968E+00
         -1   -1    0    0    0  501 -0.00000000000E+00  0.00000000000E+00  0.65662265231E+02  0.65662265231E+02  0.00000000000E+00 0.  1.
          1   -1    0    0  501    0  0.00000000000E+00 -0.00000000000E+00 -0.34431075553E+03  0.34431075553E+03  0.00000000000E+00 0. -1.
         25    2    1    2    0    0  0.74808128521E+02  0.50013362552E+02 -0.79971330729E+02  0.17360958906E+03  0.12508910084E+03 0.  0.
          5    1    3    3  502    0  0.54095564693E+02  0.66633400671E+02 -0.10582045694E+03  0.13631500912E+03  0.41800000000E+01 0.  1.
         -5    1    3    3    0  502  0.20712563828E+02 -0.16620038119E+02  0.25849126208E+02  0.37294579943E+02  0.41800000000E+01 0.  1.
        -11    1    1    2    0    0 -0.39559563838E+02 -0.21340734231E+02 -0.15362564738E+02  0.47501520227E+02  0.00000000000E+00 0.  1.
         11    1    1    2    0    0 -0.35248564684E+02 -0.28672628321E+02 -0.18331459483E+03  0.18886191148E+03  0.00000000000E+00 0. -1.
</event>
<event>
 7    1  0.2856214E-009  0.1528708E+03  0.7561462E-02  0.1196989E+00
          1   -1    0    0  501    0  0.00000000000E+00  0.00000000000E+00  0.91790394354E+03  0.91790394354E+03  0.00000000000E+00 0. -1.
         -1   -1    0    0    0  501 -0.00000000000E+00 -0.00000000000E+00 -0.33568560532E+02  0.33568560532E+02  0.00000000000E+00 0.  1.
         25    2    1    2    0    0 -0.12591923353E+03  0.54371776141E+02  0.43567747461E+03  0.47357682763E+03  0.12509279105E+03 0.  0.
          5    1    3    3  502    0 -0.13322751292E+03  0.69481327385E+02  0.42977035411E+03  0.45529908272E+03  0.41800000000E+01 0.  1.
         -5    1    3    3    0  502  0.73082793877E+01 -0.15109551245E+02  0.59071204979E+01  0.18277744910E+02  0.41800000000E+01 0.  1.
        -11    1    1    2    0    0  0.72457075035E+02 -0.40019026220E+02  0.38381143767E+03  0.39263567065E+03  0.00000000000E+00 0. -1.
         11    1    1    2    0    0  0.53462158493E+02 -0.14352749920E+02  0.64846470723E+02  0.85260005783E+02  0.00000000000E+00 0.  1.
</event>
<event>
 7    1  0.2856214E-009  0.1194953E+03  0.7561462E-02  0.1243932E+00
          1   -1    0    0  501    0  0.00000000000E+00  0.00000000000E+00  0.38156307788E+03  0.38156307788E+03  0.00000000000E+00 0. -1.
         -1   -1    0    0    0  501 -0.00000000000E+00 -0.00000000000E+00 -0.45769169125E+02  0.45769169125E+02  0.00000000000E+00 0.  1.
         25    2    1    2    0    0 -0.29226823391E+02  0.66248568216E+02  0.22299121897E+03  0.26573759190E+03  0.12509318133E+03 0.  0.
          5    1    3    3  502    0 -0.55675342903E+02  0.83638949710E+02  0.11328649013E+03  0.15148108450E+03  0.41800000000E+01 0. -1.
         -5    1    3    3    0  502  0.26448519511E+02 -0.17390381494E+02  0.10970472884E+03  0.11425650740E+03  0.41800000000E+01 0. -1.
        -11    1    1    2    0    0  0.35637644156E+02 -0.82046012294E+02  0.64247157797E+02  0.11013304272E+03  0.00000000000E+00 0.  1.
         11    1    1    2    0    0 -0.64108207643E+01  0.15797444077E+02  0.48555531986E+02  0.51461612380E+02  0.00000000000E+00 0. -1.
</event>
<event>
 7    1  0.2856214E-009  0.1088350E+03  0.7561462E-02  0.1262743E+00
         -3   -1    0    0    0  501 -0.00000000000E+00  0.00000000000E+00  0.14271171183E+03  0.14271171183E+03  0.00000000000E+00 0.  1.
          3   -1    0    0  501    0  0.00000000000E+00 -0.00000000000E+00 -0.84282684069E+02  0.84282684069E+02  0.00000000000E+00 0. -1.
         25    2    1    2    0    0  0.20823308510E+02  0.39035958535E+01  0.27746091010E+02  0.12987072003E+03  0.12509080748E+03 0.  0.
          5    1    3    3  502    0  0.73331890653E+02 -0.42313377834E+01  0.15940226148E+02  0.75279702549E+02  0.41800000000E+01 0. -1.
         -5    1    3    3    0  502 -0.52508582144E+02  0.81349336369E+01  0.11805864862E+02  0.54591017477E+02  0.41800000000E+01 0. -1.
        -11    1    1    2    0    0  0.42853312519E+01 -0.43609431080E+02  0.23104970490E+02  0.49537725063E+02  0.00000000000E+00 0.  1.
         11    1    1    2    0    0 -0.25108639762E+02  0.39705835227E+02  0.75779662586E+01  0.47585950808E+02  0.00000000000E+00 0. -1.
</event>
<event>
 7    1  0.2856214E-009  0.1513171E+03  0.7561462E-02  0.1198864E+00
          2   -1    0    0  501    0  0.00000000000E+00  0.00000000000E+00  0.15719448745E+03  0.15719448745E+03  0.00000000000E+00 0. -1.
         -2   -1    0    0    0  501 -0.00000000000E+00 -0.00000000000E+00 -0.27453205798E+03  0.27453205798E+03  0.00000000000E+00 0.  1.
         25    2    1    2    0    0  0.11809031657E+03 -0.59677912261E+02 -0.18314629877E+03  0.25825973185E+03  0.12509494898E+03 0.  0.
          5    1    3    3  502    0  0.38537815136E+02 -0.62242481044E+02 -0.15881417379E+03  0.17492485198E+03  0.41800000000E+01 0. -1.
         -5    1    3    3    0  502  0.79552501430E+02  0.25645687827E+01 -0.24332124980E+02  0.83334879869E+02  0.41800000000E+01 0. -1.
        -11    1    1    2    0    0 -0.29718864246E+02  0.53271890487E+02 -0.33130864027E+01  0.61090766484E+02  0.00000000000E+00 0.  1.
         11    1    1    2    0    0 -0.88371452320E+02  0.64060217749E+01  0.69121814654E+02  0.11237604710E+03  0.00000000000E+00 0. -1.
</event>
<event>
 7    1  0.2856214E-009  0.1387343E+03  0.7561462E-02  0.1215042E+00
          1   -1    0    0  501    0  0.00000000000E+00  0.00000000000E+00  0.82054161966E+03  0.82054161966E+03  0.00000000000E+00 0. -1.
         -1   -1    0    0    0  501 -0.00000000000E+00 -0.00000000000E+00 -0.24049829738E+02  0.24049829738E+02  0.00000000000E+00 0.  1.
         25    2    1    2    0    0 -0.67597971047E+02 -0.58087112883E+02  0.46875115170E+03  0.49327287296E+03  0.12508751577E+03 0.  0.
          5    1    3    3  502    0 -0.80322775491E+02  0.12668497167E+02  0.25984073645E+03  0.27229932024E+03  0.41800000000E+01 0. -1.
         -5    1    3    3    0  502  0.12724804444E+02 -0.70755610049E+02  0.20891041525E+03  0.22097355272E+03  0.41800000000E+01 0. -1.
        -11    1    1    2    0    0  0.88544513455E+02  0.44857159544E+02  0.28651594462E+03  0.30322216632E+03  0.00000000000E+00 0. -1.
         11    1    1    2    0    0 -0.20946542408E+02  0.13229953339E+02  0.41224693604E+02  0.48096410125E+02  0.00000000000E+00 0.  1.
</event>
<event>
 7    1  0.2856214E-009  0.6955145E+02  0.7561462E-02  0.1361625E+00
          2   -1    0    0  501    0  0.00000000000E+00  0.00000000000E+00  0.52587381879E+03  0.52587381879E+03  0.00000000000E+00 0. -1.
         -2   -1    0    0    0  501 -0.00000000000E+00 -0.00000000000E+00 -0.23316575612E+02  0.23316575612E+02  0.00000000000E+00 0.  1.
         25    2    1    2    0    0 -0.20614040594E+02  0.22289475177E+02  0.25294926117E+03  0.28381723097E+03  0.12508849864E+03 0.  0.
          5    1    3    3  502    0 -0.30770052993E+02  0.27000935102E+02  0.12408950877E+02  0.42980241035E+02  0.41800000000E+01 0.  1.
         -5    1    3    3    0  502  0.10156012399E+02 -0.47114599253E+01  0.24054031029E+03  0.24083698993E+03  0.41800000000E+01 0.  1.
        -11    1    1    2    0    0 -0.31099027834E+02 -0.51468947688E+01  0.13272392471E+03  0.13641583577E+03  0.00000000000E+00 0.  1.
         11    1    1    2    0    0  0.51713068428E+02 -0.17142580408E+02  0.11688405730E+03  0.12895732767E+03  0.00000000000E+00 0. -1.
</event>
<event>
 7    1  0.2856214E-009  0.9274680E+02  0.7561462E-02  0.1296333E+00
          2   -1    0    0  501    0  0.00000000000E+00  0.00000000000E+00  0.14874954271E+03  0.14874954271E+03  0.00000000000E+00 0. -1.
         -2   -1    0    0    0  501 -0.00000000000E+00 -0.00000000000E+00 -0.17849845997E+03  0.17849845997E+03  0.00000000000E+00 0.  1.
         25    2    1    2    0    0 -0.27446102736E+02 -0.47963851892E+02  0.92236844639E+02  0.16495015798E+03  0.12508836662E+03 0.  0.
          5    1    3    3  502    0 -0.65341652199E+01 -0.86060487697E+02  0.84021499672E+02  0.12052463510E+03  0.41800000000E+01 0. -1.
         -5    1    3    3    0  502 -0.20911937516E+02  0.38096635805E+02  0.82153449665E+01  0.44425522881E+02  0.41800000000E+01 0. -1.
        -11    1    1    2    0    0  0.94657453348E+01  0.12675574208E+02  0.13713998789E+02  0.20936673065E+02  0.00000000000E+00 0. -1.
         11    1    1    2    0    0  0.17980357402E+02  0.35288277685E+02 -0.13569976069E+03  0.14136117163E+03  0.00000000000E+00 0.  1.
</event>
<event>
 7    1  0.2856214E-009  0.1368369E+03  0.7561462E-02  0.1217650E+00
         -2   -1    0    0    0  501 -0.00000000000E+00  0.00000000000E+00  0.14674939549E+03  0.14674939549E+03  0.00000000000E+00 0.  1.
          2   -1    0    0  501    0  0.00000000000E+00 -0.00000000000E+00 -0.13377684922E+03  0.13377684922E+03  0.00000000000E+00 0. -1.
         25    2    1    2    0    0 -0.40476995927E+02 -0.77975145951E+02 -0.18736000400E+01  0.15287785054E+03  0.12509842614E+03 0.  0.
          5    1    3    3  502    0  0.59983208530E+01  0.29374292518E+02 -0.17216389465E+02  0.34823919656E+02  0.41800000000E+01 0. -1.
         -5    1    3    3    0  502 -0.46475316780E+02 -0.10734943847E+03  0.15342789425E+02  0.11805393088E+03  0.41800000000E+01 0. -1.
        -11    1    1    2    0    0 -0.24752794394E+02  0.82997090402E-01 -0.12450042658E+01  0.24784223903E+02  0.00000000000E+00 0. -1.
         11    1    1    2    0    0  0.65229790321E+02  0.77892148861E+02  0.16091150576E+02  0.10286417027E+03  0.00000000000E+00 0.  1.
</event>
<event>
 7    1  0.2856214E-009  0.1506666E+03  0.7561462E-02  0.1199656E+00
         -1   -1    0    0    0  501 -0.00000000000E+00  0.00000000000E+00  0.57549357428E+02  0.57549357428E+02  0.00000000000E+00 0.  1.
          1   -1    0    0  501    0  0.00000000000E+00 -0.00000000000E+00 -0.63595629711E+03  0.63595629711E+03  0.00000000000E+00 0. -1.
         25    2    1    2    0    0  0.29941578684E+02  0.10680909095E+03 -0.49852060137E+03  0.52580894232E+03  0.12509026255E+03 0.  0.
          5    1    3    3  502    0 -0.16439427784E+02 -0.22527315606E+02 -0.61028183867E+02  0.67228315169E+02  0.41800000000E+01 0.  1.
         -5    1    3    3    0  502  0.46381006468E+02  0.12933640655E+03 -0.43749241750E+03  0.45858062715E+03  0.41800000000E+01 0.  1.
        -11    1    1    2    0    0  0.24989997155E+02 -0.53850034567E+02 -0.68341022871E+02  0.90525253867E+02  0.00000000000E+00 0. -1.
         11    1    1    2    0    0 -0.54931575838E+02 -0.52959056380E+02 -0.11545315444E+02  0.77171458360E+02  0.00000000000E+00 0.  1.
</event>
<event>
 7    1  0.2856214E-009  0.1721214E+03  0.7561462E-02  0.1175653E+00
          2   -1    0    0  501    0  0.00000000000E+00  0.00000000000E+00  0.15017889663E+04  0.15017889663E+04  0.00000000000E+00 0. -1.
         -2   -1    0    0    0  501 -0.00000000000E+00 -0.00000000000E+00 -0.22604328606E+02  0.22604328606E+02  0.00000000000E+00 0.  1.
         25    2    1    2    0    0  0.15915218128E+02 -0.13326203852E+03  0.10247903598E+04  0.10410833407E+04  0.12508867120E+03 0.  0.
          5    1    3    3  502    0  0.46644997246E+02 -0.38600453780E+01  0.18827543935E+03  0.19405094481E+03  0.41800000000E+01 0.  1.
         -5    1    3    3    0  502 -0.30729779117E+02 -0.12940199315E+03  0.83651492045E+03  0.84703239590E+03  0.41800000000E+01 0.  1.
        -11    1    1    2    0    0  0.36077585466E+02  0.88528159172E+02  0.28251865028E+03  0.29825427893E+03  0.00000000000E+00 0. -1.
         11    1    1    2    0    0 -0.51992803594E+02  0.44733879352E+02  0.17187562763E+03  0.18505567530E+03  0.00000000000E+00 0.  1.
</event>
<event>
 7    1  0.2856214E-009  0.1007829E+03  0.7561462E-02  0.1278658E+00
         -2   -1    0    0    0  501 -0.00000000000E+00  0.00000000000E+00  0.19534026798E+02  0.19534026798E+02  0.00000000000E+00 0.  1.
          2   -1    0    0  501    0  0.00000000000E+00 -0.00000000000E+00 -0.68833202148E+03  0.68833202148E+03  0.00000000000E+00 0. -1.
         25    2    1    2    0    0  0.48376870410E+01 -0.38257660355E+02 -0.42088910900E+03  0.44077395728E+03  0.12508791928E+03 0.  0.
          5    1    3    3  502    0  0.28416903658E+02  0.28917651481E+02 -0.27909631815E+03  0.28205669321E+03  0.41800000000E+01 0. -1.
         -5    1    3    3    0  502 -0.23579216617E+02 -0.67175311836E+02 -0.14179279085E+03  0.15871726407E+03  0.41800000000E+01 0. -1.
        -11    1    1    2    0    0 -0.23643200557E+02  0.57752588862E+02 -0.10929203982E+03  0.12585353559E+03  0.00000000000E+00 0.  1.
         11    1    1    2    0    0  0.18805513516E+02 -0.19494928507E+02 -0.13861684587E+03  0.14123855541E+03  0.00000000000E+00 0. -1.
</event>
<event>
 7    1  0.2856214E-009  0.6908254E+02  0.7561462E-02  0.1363241E+00
          1   -1    0    0  501    0  0.00000000000E+00  0.00000000000E+00  0.21457644148E+02  0.21457644148E+02  0.00000000000E+00 0. -1.
         -1   -1    0    0    0  501 -0.00000000000E+00 -0.00000000000E+00 -0.57703220304E+03  0.57703220304E+03  0.00000000000E+00 0.  1.
         25    2    1    2    0    0  0.18988952938E+02 -0.16525577978E+02 -0.29815906630E+03  0.32431499224E+03  0.12509080829E+03 0.  0.
          5    1    3    3  502    0  0.17099532762E+02 -0.35322889179E+02 -0.30201741521E+03  0.30458511456E+03  0.41800000000E+01 0.  1.
         -5    1    3    3    0  502  0.18894201764E+01  0.18797311201E+02  0.38583489161E+01  0.19729877682E+02  0.41800000000E+01 0.  1.
        -11    1    1    2    0    0 -0.41071207800E+02  0.32267969243E+02 -0.22905663801E+03  0.23493618147E+03  0.00000000000E+00 0.  1.
         11    1    1    2    0    0  0.22082254862E+02 -0.15742391265E+02 -0.28358854594E+02  0.39238673479E+02  0.00000000000E+00 0. -1.
</event>
<event>
 7    1  0.2856214E-009  0.7892174E+02  0.7561462E-02  0.1332140E+00
          1   -1    0    0  501    0  0.00000000000E+00  0.00000000000E+00  0.66521052247E+03  0.66521052247E+03  0.00000000000E+00 0. -1.
         -1   -1    0    0    0  501 -0.00000000000E+00 -0.00000000000E+00 -0.51024862636E+02  0.51024862636E+02  0.00000000000E+00 0.  1.
         25    2    1    2    0    0 -0.47232071996E+02 -0.35238007537E+02  0.58851728265E+03  0.60454301801E+03  0.12508830019E+03 0.  0.
          5    1    3    3  502    0 -0.26808750349E+02 -0.31073940720E+02  0.58027986938E+03  0.58174435803E+03  0.41800000000E+01 0.  1.
         -5    1    3    3    0  502 -0.20423321647E+02 -0.41640668162E+01  0.82374132665E+01  0.22798659980E+02  0.41800000000E+01 0.  1.
        -11    1    1    2    0    0  0.39408047656E+02 -0.16705743615E+02 -0.14898879876E+02  0.45321658303E+02  0.00000000000E+00 0.  1.
         11    1    1    2    0    0  0.78240243403E+01  0.51943751151E+02  0.40567257062E+02  0.66370708796E+02  0.00000000000E+00 0. -1.
</event>
<event>
 7    1  0.2856214E-009  0.9766526E+02  0.7561462E-02  0.1285284E+00
         -2   -1    0    0    0  501 -0.00000000000E+00  0.00000000000E+00  0.85898860135E+02  0.85898860135E+02  0.00000000000E+00 0.  1.
          2   -1    0    0  501    0  0.00000000000E+00 -0.00000000000E+00 -0.14576022804E+03  0.14576022804E+03  0.00000000000E+00 0. -1.
         25    2    1    2    0    0  0.65654892935E+00  0.60767972082E+01 -0.62737179548E+02  0.14007280971E+03  0.12508828802E+03 0.  0.
          5    1    3    3  502    0 -0.35266859706E+02  0.50294979026E+02 -0.10095592259E+02  0.62391743779E+02  0.41800000000E+01 0. -1.
         -5    1    3    3    0  502  0.35923408635E+02 -0.44218181817E+02 -0.52641587289E+02  0.77681065927E+02  0.41800000000E+01 0. -1.
        -11    1    1    2    0    0  0.28612442567E+02  0.21988898281E+02  0.26394860946E+02  0.44708748602E+02  0.00000000000E+00 0.  1.
         11    1    1    2    0    0 -0.29268991496E+02 -0.28065695489E+02 -0.23519049306E+02  0.46877529870E+02  0.00000000000E+00 0. -1.
</event>
<event>
 7    1  0.2856214E-009  0.4325846E+03  0.7561462E-02  0.1033047E+00
         -1   -1    0    0    0  501 -0.00000000000E+00  0.00000000000E+00  0.88946013047E+02  0.88946013047E+02  0.00000000000E+00 0. -1.
          1   -1    0    0  501    0  0.00000000000E+00 -0.00000000000E+00 -0.27264840153E+04  0.27264840153E+04  0.00000000000E+00 0.  1.
         25    2    1    2    0    0  0.29248184982E+03 -0.31175921375E+03 -0.19528986671E+04  0.20030477198E+04  0.12509006412E+03 0.  0.
          5    1    3    3  502    0  0.23392412033E+03 -0.19788223717E+03 -0.15592735633E+04  0.15890970365E+04  0.41800000000E+01 0.  1.
         -5    1    3    3    0  502  0.58557729487E+02 -0.11387697658E+03 -0.39362510379E+03  0.41395068331E+03  0.41800000000E+01 0.  1.
        -11    1    1    2    0    0 -0.18253223282E+03  0.22990034051E+03 -0.52896257837E+03  0.60495751247E+03  0.00000000000E+00 0. -1.
         11    1    1    2    0    0 -0.10994961700E+03  0.81858873241E+02 -0.15567675676E+03  0.20742479602E+03  0.00000000000E+00 0.  1.
</event>
<event>
 7    1  0.2856214E-009  0.6019504E+02  0.7561462E-02  0.1397015E+00
          1   -1    0    0  501    0  0.00000000000E+00  0.00000000000E+00  0.25657212032E+03  0.25657212032E+03  0.00000000000E+00 0.  1.
         -1   -1    0    0    0  501 -0.00000000000E+00 -0.00000000000E+00 -0.56058744491E+02  0.56058744491E+02  0.00000000000E+00 0. -1.
         25    2    1    2    0    0 -0.36833440197E+02  0.18771778131E+01  0.66086351715E+02  0.14620227778E+03  0.12508986383E+03 0.  0.
          5    1    3    3  502    0  0.11606658896E+02  0.24038580510E+02  0.85256005840E+02  0.89435042436E+02  0.41800000000E+01 0. -1.
         -5    1    3    3    0  502 -0.48440099093E+02 -0.22161402697E+02 -0.19169654125E+02  0.56767235347E+02  0.41800000000E+01 0. -1.
        -11    1    1    2    0    0  0.13181275627E+02  0.66905692474E+01 -0.11262168572E+02  0.18583492270E+02  0.00000000000E+00 0. -1.
         11    1    1    2    0    0  0.23652164570E+02 -0.85677470604E+01  0.14568919269E+03  0.14784509476E+03  0.00000000000E+00 0.  1.
</event>
<event>
 7    1  0.2856214E-009  0.3754404E+03  0.7561462E-02  0.1052632E+00
         -2   -1    0    0    0  501 -0.00000000000E+00  0.00000000000E+00  0.22092234262E+03  0.22092234262E+03  0.00000000000E+00 0.  1.
          2   -1    0    0  501    0  0.00000000000E+00 -0.00000000000E+00 -0.70950705977E+03  0.70950705977E+03  0.00000000000E+00 0. -1.
         25    2    1    2    0    0  0.15048913699E+03 -0.33754208088E+03 -0.35356259120E+03  0.52653166848E+03  0.12508978899E+03 0.  0.
          5    1    3    3  502    0  0.81411990771E+02 -0.15540630583E+03 -0.25123256344E+03  0.30645441009E+03  0.41800000000E+01 0.  1.
         -5    1    3    3    0  502  0.69077146218E+02 -0.18213577504E+03 -0.10233002776E+03  0.22007725839E+03  0.41800000000E+01 0.  1.
        -11    1    1    2    0    0 -0.11160200475E+03  0.13910460071E+03 -0.68096444577E+02  0.19089846297E+03  0.00000000000E+00 0. -1.
         11    1    1    2    0    0 -0.38887132239E+02  0.19843748017E+03 -0.66925681383E+02  0.21299927093E+03  0.00000000000E+00 0.  1.
</event>
<event>
 7    1  0.2856214E-009  0.1207247E+03  0.7561462E-02  0.1241906E+00
         -2   -1    0    0    0  501 -0.00000000000E+00  0.00000000000E+00  0.24430815627E+02  0.24430815627E+02  0.00000000000E+00 0.  1.
          2   -1    0    0  501    0  0.00000000000E+00 -0.00000000000E+00 -0.71283111858E+03  0.71283111858E+03  0.00000000000E+00 0. -1.
         25    2    1    2    0    0 -0.67901058102E+02  0.30670922794E+02 -0.31360358518E+03  0.34575327814E+03  0.12508741549E+03 0.  0.
          5    1    3    3  502    0  0.26528779162E+01  0.59894036531E+02 -0.80739430955E+02  0.10065118720E+03  0.41800000000E+01 0. -1.
         -5    1    3    3    0  502 -0.70553936018E+02 -0.29223113737E+02 -0.23286415422E+03  0.24510209094E+03  0.41800000000E+01 0. -1.
        -11    1    1    2    0    0  0.40709317217E+02  0.21500191741E+02 -0.24085961385E+03  0.24522002434E+03  0.00000000000E+00 0. -1.
         11    1    1    2    0    0  0.27191740885E+02 -0.52171114535E+02 -0.13393710392E+03  0.14628863172E+03  0.00000000000E+00 0.  1.
</event>
<event>
 7    1  0.2856214E-009  0.1521481E+03  0.7561462E-02  0.1197858E+00
          2   -1    0    0  501    0  0.00000000000E+00  0.00000000000E+00  0.16118400782E+03  0.16118400782E+03  0.00000000000E+00 0. -1.
         -2   -1    0    0    0  501 -0.00000000000E+00 -0.00000000000E+00 -0.16749189308E+03  0.16749189308E+03  0.00000000000E+00 0.  1.
         25    2    1    2    0    0 -0.88168108916E+02 -0.74394987022E+02 -0.47487905077E+02  0.17666606223E+03  0.12509023500E+03 0.  0.
          5    1    3    3  502    0 -0.40097969424E+02  0.31981981592E+02 -0.26865102027E+02  0.58050843279E+02  0.41800000000E+01 0.  1.
         -5    1    3    3    0  502 -0.48070139492E+02 -0.10637696861E+03 -0.20622803051E+02  0.11861521896E+03  0.41800000000E+01 0.  1.
        -11    1    1    2    0    0  0.67682747879E+02  0.99569204117E+01 -0.73149798912E+01  0.68801188619E+02  0.00000000000E+00 0.  1.
         11    1    1    2    0    0  0.20485361036E+02  0.64438066610E+02  0.48494999710E+02  0.83208650044E+02  0.00000000000E+00 0. -1.
</event>
<event>
 7    1  0.2856214E-009  0.1455610E+03  0.7561462E-02  0.1206036E+00
         -1   -1    0    0    0  501 -0.00000000000E+00  0.00000000000E+00  0.22390331681E+03  0.22390331681E+03  0.00000000000E+00 0.  1.
          1   -1    0    0  501    0  0.00000000000E+00 -0.00000000000E+00 -0.27822858661E+03  0.27822858661E+03  0.00000000000E+00 0. -1.
         25    2    1    2    0    0 -0.35525332778E+02 -0.94324408419E+02  0.17387204671E+03  0.23672407888E+03  0.12509059758E+03 0.  0.
          5    1    3    3  502    0 -0.77457067177E+02 -0.29251437272E+02  0.95993797592E+02  0.12683660912E+03  0.41800000000E+01 0.  1.
         -5    1    3    3    0  502  0.41931734400E+02 -0.65072971147E+02  0.77878249120E+02  0.10988746976E+03  0.41800000000E+01 0.  1.
        -11    1    1    2    0    0  0.62893139188E+02  0.61604024442E+02 -0.18403240328E+03  0.20400619658E+03  0.00000000000E+00 0.  1.
         11    1    1    2    0    0 -0.27367806411E+02  0.32720383977E+02 -0.44164913236E+02  0.61401627963E+02  0.00000000000E+00 0. -1.
</event>
<event>
 7    1  0.2856214E-009  0.9192985E+02  0.7561462E-02  0.1298244E+00
          1   -1    0    0  501    0  0.00000000000E+00  0.00000000000E+00  0.33202198454E+02  0.33202198454E+02  0.00000000000E+00 0. -1.
         -1   -1    0    0    0  501 -0.00000000000E+00 -0.00000000000E+00 -0.64693379854E+03  0.64693379854E+03  0.00000000000E+00 0.  1.
         25    2    1    2    0    0 -0.91286577688E+02  0.57894301494E+01 -0.40687747922E+03  0.43538781992E+03  0.12508602591E+03 0.  0.
          5    1    3    3  502    0 -0.10633769792E+02  0.18298219413E+00  0.71765074127E+01  0.13493894958E+02  0.41800000000E+01 0.  1.
         -5    1    3    3    0  502 -0.80652807896E+02  0.56064479552E+01 -0.41405398663E+03  0.42189392497E+03  0.41800000000E+01 0.  1.
        -11    1    1    2    0    0  0.46842578254E+02 -0.35378902651E+01 -0.19225915234E+03  0.19791494502E+03  0.00000000000E+00 0.  1.
         11    1    1    2    0    0  0.44443999435E+02 -0.22515398842E+01 -0.14594968530E+02  0.46833232047E+02  0.00000000000E+00 0. -1.
</event>
<event>
 7    1  0.2856214E-009  0.4566736E+02  0.7561462E-02  0.1470218E+00
         -4   -1    0    0    0  501 -0.00000000000E+00  0.00000000000E+00  0.37668688417E+03  0.37668688417E+03  0.00000000000E+00 0.  1.
          4   -1    0    0  501    0  0.00000000000E+00 -0.00000000000E+00 -0.39987805666E+02  0.39987805666E+02  0.00000000000E+00 0. -1.
         25    2    1    2    0    0  0.43728447070E+02  0.46880645859E+01  0.25072006355E+03  0.28362218082E+03  0.12508731411E+03 0.  0.
          5    1    3    3  502    0  0.25046353021E+02  0.94348251619E+01  0.26029251250E+03  0.26169829994E+03  0.41800000000E+01 0. -1.
         -5    1    3    3    0  502  0.18682094049E+02 -0.47467605760E+01 -0.95724489470E+01  0.21923880880E+02  0.41800000000E+01 0. -1.
        -11    1    1    2    0    0 -0.21506260385E+02  0.11786990227E+01 -0.17063064126E+02  0.27478295516E+02  0.00000000000E+00 0. -1.
         11    1    1    2    0    0 -0.22222186686E+02 -0.58667636087E+01  0.10304207907E+03  0.10557421350E+03  0.00000000000E+00 0.  1.
</event>
<event>
 7    1  0.2856214E-009  0.1124200E+03  0.7561462E-02  0.1256153E+00
         -4   -1    0    0    0  501 -0.00000000000E+00  0.00000000000E+00  0.38952841627E+03  0.38952841627E+03  0.00000000000E+00 0.  1.
          4   -1    0    0  501    0  0.00000000000E+00 -0.00000000000E+00 -0.45504674838E+02  0.45504674838E+02  0.00000000000E+00 0. -1.
         25    2    1    2    0    0 -0.67486350575E+01  0.51165095017E+02  0.28619010751E+03  0.31656881778E+03  0.12509047818E+03 0.  0.
          5    1    3    3  502    0 -0.17185734078E+02 -0.32723488280E+02  0.33422664238E+02  0.50007229735E+02  0.41800000000E+01 0.  1.
         -5    1    3    3    0  502  0.10437099021E+02  0.83888583297E+02  0.25276744327E+03  0.26656158805E+03  0.41800000000E+01 0.  1.
        -11    1    1    2    0    0 -0.22061843636E+02  0.17745602126E+02  0.20551316715E+02  0.34985539272E+02  0.00000000000E+00 0.  1.
         11    1    1    2    0    0  0.28810478693E+02 -0.68910697143E+02  0.37282317210E+02  0.83478734057E+02  0.00000000000E+00 0. -1.
</event>
<event>
 7    1  0.2856214E-009  0.1423358E+03  0.7561462E-02  0.1210220E+00
         -1   -1    0    0    0  501 -0.00000000000E+00  0.00000000000E+00  0.27373404215E+03  0.27373404215E+03  0.00000000000E+00 0.  1.
          1   -1    0    0  501    0  0.00000000000E+00 -0.00000000000E+00 -0.97318669008E+02  0.97318669008E+02  0.00000000000E+00 0. -1.
         25    2    1    2    0    0  0.63476673595E+02 -0.14250389446E+02  0.16938868715E+03  0.22038910499E+03  0.12508584482E+03 0.  0.
          5    1    3    3  502    0 -0.34753208062E+02 -0.14441431159E+01  0.17908453046E+02  0.39345344203E+02  0.41800000000E+01 0. -1.
         -5    1    3    3    0  502  0.98229881657E+02 -0.12806246330E+02  0.15148023411E+03  0.18104376079E+03  0.41800000000E+01 0. -1.
        -11    1    1    2    0    0 -0.54100048915E+02 -0.57022008433E+02  0.27688529842E+01  0.78651073008E+02  0.00000000000E+00 0.  1.
         11    1    1    2    0    0 -0.93766246798E+01  0.71272397880E+02  0.42578330037E+01  0.72012533158E+02  0.00000000000E+00 0. -1.
</event>
<event>
 7    1  0.2856214E-009  0.7694545E+02  0.7561462E-02  0.1337950E+00
         -1   -1    0    0    0  501 -0.00000000000E+00  0.00000000000E+00  0.15502468359E+03  0.15502468359E+03  0.00000000000E+00 0.  1.
          1   -1    0    0  501    0  0.00000000000E+00 -0.00000000000E+00 -0.93387139996E+02  0.93387139996E+02  0.00000000000E+00 0. -1.
         25    2    1    2    0    0  0.28028881429E+02 -0.11165030355E+02 -0.10363981122E+02  0.12909043421E+03  0.12508657803E+03 0.  0.
          5    1    3    3  502    0 -0.95924490272E+01 -0.23098777651E+02 -0.60234153481E+02  0.65354374398E+02  0.41800000000E+01 0.  1.
         -5    1    3    3    0  502  0.37621330456E+02  0.11933747296E+02  0.49870172359E+02  0.63736059817E+02  0.41800000000E+01 0.  1.
        -11    1    1    2    0    0 -0.31648639653E+02  0.44889787138E+02  0.64252955527E+02  0.84529117321E+02  0.00000000000E+00 0.  1.
         11    1    1    2    0    0  0.36197582238E+01 -0.33724756783E+02  0.77485691850E+01  0.34792272046E+02  0.00000000000E+00 0. -1.
</event>
<event>
 7    1  0.2856214E-009  0.1879992E+03  0.7561462E-02  0.1160278E+00
         -1   -1    0    0    0  501 -0.00000000000E+00  0.00000000000E+00  0.48442254841E+03  0.48442254841E+03  0.00000000000E+00 0.  1.
          1   -1    0    0  501    0  0.00000000000E+00 -0.00000000000E+00 -0.82023363266E+02  0.82023363266E+02  0.00000000000E+00 0. -1.
         25    2    1    2    0    0  0.15420408223E+03  0.38156646954E+02  0.13701479799E+03  0.24424680204E+03  0.12509443136E+03 0.  0.
          5    1    3    3  502    0  0.56702313014E+02 -0.46152941149E+02  0.49467025658E+02  0.88372537054E+02  0.41800000000E+01 0. -1.
         -5    1    3    3    0  502  0.97501769215E+02  0.84309588103E+02  0.87547772328E+02  0.15587426499E+03  0.41800000000E+01 0. -1.
        -11    1    1    2    0    0 -0.67754082704E+02 -0.53083858065E+02  0.18123787878E+03  0.20063818285E+03  0.00000000000E+00 0.  1.
         11    1    1    2    0    0 -0.86449999526E+02  0.14927211111E+02  0.84146508372E+02  0.12156092678E+03  0.00000000000E+00 0. -1.
</event>
<event>
 7    1  0.3057249E-009  0.9706529E+02  0.7561462E-02  0.1286591E+00
          2   -1    0    0  501    0  0.00000000000E+00  0.00000000000E+00  0.97146525691E+03  0.97146525691E+03  0.00000000000E+00 0. -1.
         -2   -1    0    0    0  501 -0.00000000000E+00 -0.00000000000E+00 -0.15011472723E+02  0.15011472723E+02  0.00000000000E+00 0.  1.
         25    2    1    2    0    0 -0.44088957494E+02 -0.10288194404E+02  0.64976839377E+03  0.66324535777E+03  0.12508299621E+03 0.  0.
          5    1    3    3  502    0 -0.13686460838E+02  0.49891750256E+02  0.14566681319E+03  0.15463763713E+03  0.41800000000E+01 0. -1.
         -5    1    3    3    0  502 -0.30402496656E+02 -0.60179944660E+02  0.50410158059E+03  0.50860772064E+03  0.41800000000E+01 0. -1.
        -11    1    1    2    0    0 -0.57708445732E+00  0.26983558792E+02  0.22688861899E+02  0.35259465762E+02  0.00000000000E+00 0.  1.
         11    1    1    2    0    0  0.44666041951E+02 -0.16695364388E+02  0.28399652852E+03  0.28797190610E+03  0.00000000000E+00 0. -1.
</event>
<event>
 7    1  0.2856214E-009  0.6989057E+02  0.7561462E-02  0.1360466E+00
         -1   -1    0    0    0  501 -0.00000000000E+00  0.00000000000E+00  0.34960630912E+03  0.34960630912E+03  0.00000000000E+00 0.  1.
          1   -1    0    0  501    0  0.00000000000E+00 -0.00000000000E+00 -0.41027139682E+02  0.41027139682E+02  0.00000000000E+00 0. -1.
         25    2    1    2    0    0  0.34680207968E+02  0.26902217738E+02  0.20040204610E+03  0.24028028472E+03  0.12508872451E+03 0.  0.
          5    1    3    3  502    0  0.32195696608E+02  0.48658152602E+02  0.20850943259E+03  0.21655907872E+03  0.41800000000E+01 0. -1.
         -5    1    3    3    0  502  0.24845113600E+01 -0.21755934864E+02 -0.81073864924E+01  0.23721206003E+02  0.41800000000E+01 0. -1.
        -11    1    1    2    0    0 -0.27835575771E+02  0.32953632603E+01  0.11523528780E+03  0.11859532137E+03  0.00000000000E+00 0. -1.
         11    1    1    2    0    0 -0.68446321966E+01 -0.30197580999E+02 -0.70581644589E+01  0.31757842710E+02  0.00000000000E+00 0.  1.
</event>
<event>
 7    1  0.2856214E-009  0.1052091E+03  0.7561462E-02  0.1269708E+00
         -2   -1    0    0    0  501 -0.00000000000E+00  0.00000000000E+00  0.92447033467E+02  0.92447033467E+02  0.00000000000E+00 0.  1.
          2   -1    0    0  501    0  0.00000000000E+00 -0.00000000000E+00 -0.28204328060E+03  0.28204328060E+03  0.00000000000E+00 0. -1.
         25    2    1    2    0    0 -0.61721759495E+02 -0.80259436511E+02 -0.28351816565E+02  0.16340731332E+03  0.12508785633E+03 0.  0.
          5    1    3    3  502    0 -0.11078050754E+02 -0.13371296391E+02 -0.68152360563E+02  0.70453753810E+02  0.41800000000E+01 0. -1.
         -5    1    3    3    0  502 -0.50643708741E+02 -0.66888140120E+02  0.39800543998E+02  0.92953559514E+02  0.41800000000E+01 0. -1.
        -11    1    1    2    0    0 -0.23951192781E+01  0.21355812608E+02 -0.10557607567E+03  0.10774096288E+03  0.00000000000E+00 0. -1.
         11    1    1    2    0    0  0.64116878773E+02  0.58903623903E+02 -0.55668354899E+02  0.10334203786E+03  0.00000000000E+00 0.  1.
</event>
<event>
 7    1  0.2856214E-009  0.1448760E+03  0.7561462E-02  0.1206915E+00
          1   -1    0    0  501    0  0.00000000000E+00  0.00000000000E+00  0.51604080178E+02  0.51604080178E+02  0.00000000000E+00 0. -1.
         -1   -1    0    0    0  501 -0.00000000000E+00 -0.00000000000E+00 -0.49769128599E+03  0.49769128599E+03  0.00000000000E+00 0.  1.
         25    2    1    2    0    0 -0.24143871657E+02  0.11379010572E+03 -0.26660097021E+03  0.31662903084E+03  0.12508697437E+03 0.  0.
          5    1    3    3  502    0  0.31682743718E+02  0.17928018354E+02 -0.15479197789E+03  0.15906991831E+03  0.41800000000E+01 0.  1.
         -5    1    3    3    0  502 -0.55826615375E+02  0.95862087370E+02 -0.11180899232E+03  0.15755911254E+03  0.41800000000E+01 0.  1.
        -11    1    1    2    0    0 -0.28815323905E+02 -0.60270472266E+02 -0.11740181502E+03  0.13507789933E+03  0.00000000000E+00 0. -1.
         11    1    1    2    0    0  0.52959195562E+02 -0.53519633458E+02 -0.62084420583E+02  0.97588435991E+02  0.00000000000E+00 0.  1.
</event>
<event>
 7    1  0.2856214E-009  0.1316818E+03  0.7561462E-02  0.1224981E+00
         -1   -1    0    0    0  501 -0.00000000000E+00  0.00000000000E+00  0.46470130623E+02  0.46470130623E+02  0.00000000000E+00 0.  1.
          1   -1    0    0  501    0  0.00000000000E+00 -0.00000000000E+00 -0.59988737984E+03  0.59988737984E+03  0.00000000000E+00 0. -1.
         25    2    1    2    0    0  0.47738692058E+02 -0.11828796143E+03 -0.28895487075E+03  0.33972543934E+03  0.12508969687E+03 0.  0.
          5    1    3    3  502    0  0.71606653890E+01 -0.77045771529E+02 -0.46377781537E+02  0.90308898009E+02  0.41800000000E+01 0. -1.
         -5    1    3    3    0  502  0.40578026669E+02 -0.41242189899E+02 -0.24257708922E+03  0.24941654133E+03  0.41800000000E+01 0. -1.
        -11    1    1    2    0    0 -0.28124770989E+02  0.57864861156E+02 -0.45921190790E+02  0.79044928132E+02  0.00000000000E+00 0. -1.
         11    1    1    2    0    0 -0.19613921068E+02  0.60423100272E+02 -0.21854118768E+03  0.22758714300E+03  0.00000000000E+00 0.  1.
</event>
<event>
 7    1  0.2856214E-009  0.9741834E+02  0.7561462E-02  0.1285820E+00
         -1   -1    0    0    0  501 -0.00000000000E+00  0.00000000000E+00  0.56481530314E+03  0.56481530314E+03  0.00000000000E+00 0.  1.
          1   -1    0    0  501    0  0.00000000000E+00 -0.00000000000E+00 -0.27743888640E+02  0.27743888640E+02  0.00000000000E+00 0. -1.
         25    2    1    2    0    0  0.23917696973E+02 -0.48812098642E+02  0.30573001904E+03  0.33477322906E+03  0.12509033996E+03 0.  0.
          5    1    3    3  502    0  0.47066513288E+02 -0.24824629115E+02  0.39425537976E+02  0.66357850541E+02  0.41800000000E+01 0.  1.
         -5    1    3    3    0  502 -0.23148816314E+02 -0.23987469527E+02  0.26630448107E+03  0.26841537852E+03  0.41800000000E+01 0.  1.
        -11    1    1    2    0    0 -0.25086869959E+02 -0.24191643212E+02  0.40365113010E+02  0.53328500766E+02  0.00000000000E+00 0.  1.
         11    1    1    2    0    0  0.11691729854E+01  0.73003741854E+02  0.19097628245E+03  0.20445746195E+03  0.00000000000E+00 0. -1.
</event>
<event>
 7    1  0.2856214E-009  0.8672203E+02  0.7561462E-02  0.1310990E+00
          1   -1    0    0  501    0  0.00000000000E+00  0.00000000000E+00  0.57434737935E+02  0.57434737935E+02  0.00000000000E+00 0. -1.
         -1   -1    0    0    0  501 -0.00000000000E+00 -0.00000000000E+00 -0.24935762722E+03  0.24935762722E+03  0.00000000000E+00 0.  1.
         25    2    1    2    0    0 -0.12045728095E+01 -0.20891380961E+02 -0.17372205556E+03  0.21508442856E+03  0.12507620886E+03 0.  0.
          5    1    3    3  502    0  0.42923434898E+02 -0.30016882814E+02 -0.22363973053E+02  0.57105640772E+02  0.41800000000E+01 0.  1.
         -5    1    3    3    0  502 -0.44128007707E+02  0.91255018531E+01 -0.15135808251E+03  0.15797878779E+03  0.41800000000E+01 0.  1.
        -11    1    1    2    0    0 -0.18768911445E+02 -0.21646786696E+02  0.16708345417E+02  0.33166612997E+02  0.00000000000E+00 0. -1.
         11    1    1    2    0    0  0.19973484255E+02  0.42538167656E+02 -0.34909179133E+02  0.58541323598E+02  0.00000000000E+00 0.  1.
</event>
<event>
 7    1  0.2856214E-009  0.1402834E+03  0.7561462E-02  0.1212948E+00
         -2   -1    0    0    0  501 -0.00000000000E+00  0.00000000000E+00  0.43780812237E+02  0.43780812237E+02  0.00000000000E+00 0.  1.
          2   -1    0    0  501    0  0.00000000000E+00 -0.00000000000E+00 -0.86623886756E+03  0.86623886756E+03  0.00000000000E+00 0. -1.
         25    2    1    2    0    0 -0.95698884267E+02  0.58917934106E+02 -0.69586716754E+03  0.71589714255E+03  0.12509198393E+03 0.  0.
          5    1    3    3  502    0 -0.73654669878E+02 -0.68896528093E+01 -0.54211925459E+03  0.54715924218E+03  0.41800000000E+01 0. -1.
         -5    1    3    3    0  502 -0.22044214389E+02  0.65807586915E+02 -0.15374791295E+03  0.16873790037E+03  0.41800000000E+01 0. -1.
        -11    1    1    2    0    0 -0.70754747808E+00 -0.38366012651E+02 -0.71635656446E+02  0.81265729706E+02  0.00000000000E+00 0.  1.
         11    1    1    2    0    0  0.96406431745E+02 -0.20551921455E+02 -0.54955231340E+02  0.11285680754E+03  0.00000000000E+00 0. -1.
</event>
<event>
 7    1  0.2856214E-009  0.1046867E+03  0.7561462E-02  0.1270738E+00
          1   -1    0    0  501    0  0.00000000000E+00  0.00000000000E+00  0.37082452057E+03  0.37082452057E+03  0.00000000000E+00 0. -1.
         -1   -1    0    0    0  501 -0.00000000000E+00 -0.00000000000E+00 -0.50717291258E+02  0.50717291258E+02  0.00000000000E+00 0.  1.
         25    2    1    2    0    0 -0.59250441497E+02 -0.52195819756E+02  0.13210389455E+03  0.19833047137E+03  0.12509403864E+03 0.  0.
          5    1    3    3  502    0 -0.67945222773E+01 -0.43185356225E+02 -0.11270080785E+02  0.45339030053E+02  0.41800000000E+01 0. -1.
         -5    1    3    3    0  502 -0.52455919219E+02 -0.90104635316E+01  0.14337397533E+03  0.15299144132E+03  0.41800000000E+01 0. -1.
        -11    1    1    2    0    0  0.41361831950E+02 -0.13869350054E+02  0.36189512926E+02  0.56681927093E+02  0.00000000000E+00 0.  1.
         11    1    1    2    0    0  0.17888609547E+02  0.66065169810E+02  0.15181382184E+03  0.16652941336E+03  0.00000000000E+00 0. -1.
</event>
<event>
 7    1  0.2856214E-009  0.2351417E+03  0.7561462E-02  0.1123072E+00
         -2   -1    0    0    0  501 -0.00000000000E+00  0.00000000000E+00  0.52072903323E+02  0.52072903323E+02  0.00000000000E+00 0.  1.
          2   -1    0    0  501    0  0.00000000000E+00 -0.00000000000E+00 -0.11504940747E+04  0.11504940747E+04  0.00000000000E+00 0. -1.
         25    2    1    2    0    0 -0.37693410964E+02  0.21330302570E+03 -0.56655559730E+03  0.61931932199E+03  0.12510876767E+03 0.  0.
          5    1    3    3  502    0 -0.74913403028E+02  0.72566053752E+02 -0.22688252967E+03  0.24974187630E+03  0.41800000000E+01 0. -1.
         -5    1    3    3    0  502  0.37219992063E+02  0.14073697195E+03 -0.33967306764E+03  0.36957744569E+03  0.41800000000E+01 0. -1.
        -11    1    1    2    0    0  0.46309331535E+02 -0.17736433760E+03 -0.50588371335E+03  0.53807155088E+03  0.00000000000E+00 0. -1.
         11    1    1    2    0    0 -0.86159205706E+01 -0.35938688100E+02 -0.25981860716E+02  0.45176105144E+02  0.00000000000E+00 0.  1.
</event>
<event>
 7    1  0.2856214E-009  0.1165725E+03  0.7561462E-02  0.1248861E+00
          2   -1    0    0  501    0  0.00000000000E+00  0.00000000000E+00  0.18311999786E+03  0.18311999786E+03  0.00000000000E+00 0. -1.
         -2   -1    0    0    0  501 -0.00000000000E+00 -0.00000000000E+00 -0.10366737332E+03  0.10366737332E+03  0.00000000000E+00 0.  1.
         25    2    1    2    0    0  0.38380181224E+02  0.74050935691E+02  0.70235058142E+02  0.16594506875E+03  0.12509285776E+03 0.  0.
          5    1    3    3  502    0 -0.40810614775E+02  0.16900362452E+01  0.79180153587E+01  0.41815426197E+02  0.41800000000E+01 0. -1.
         -5    1    3    3    0  502  0.79190795999E+02  0.72360899445E+02  0.62317042783E+02  0.12412964255E+03  0.41800000000E+01 0. -1.
        -11    1    1    2    0    0 -0.57874582547E+00 -0.12412559271E+02  0.40274709457E+02  0.42148058036E+02  0.00000000000E+00 0. -1.
         11    1    1    2    0    0 -0.37801435399E+02 -0.61638376420E+02 -0.31057143064E+02  0.78694244397E+02  0.00000000000E+00 0.  1.
</event>
<event>
 7    1  0.3250625E-009  0.1027716E+03  0.7561462E-02  0.1274573E+00
         -1   -1    0    0    0  501 -0.00000000000E+00  0.00000000000E+00  0.65903074380E+02  0.65903074380E+02  0.00000000000E+00 0.  1.
          1   -1    0    0  501    0  0.00000000000E+00 -0.00000000000E+00 -0.32475407574E+03  0.32475407574E+03  0.00000000000E+00 0. -1.
         25    2    1    2    0    0  0.34635160588E+02  0.73025310523E+02 -0.66534197936E+02  0.16312191047E+03  0.12509863250E+03 0.  0.
          5    1    3    3  502    0  0.64812958324E+02  0.59963378644E+02 -0.87112097726E+02  0.12410606881E+03  0.41800000000E+01 0.  1.
         -5    1    3    3    0  502 -0.30177797737E+02  0.13061931879E+02  0.20577899791E+02  0.39015841660E+02  0.41800000000E+01 0.  1.
        -11    1    1    2    0    0 -0.14073342997E+02 -0.54618711589E+02 -0.31974582283E+02  0.64835457513E+02  0.00000000000E+00 0.  1.
         11    1    1    2    0    0 -0.20561817590E+02 -0.18406598935E+02 -0.16034222114E+03  0.16269978214E+03  0.00000000000E+00 0. -1.
</event>
<event>
 7    1  0.2856214E-009  0.6446150E+02  0.7561462E-02  0.1380009E+00
          2   -1    0    0  501    0  0.00000000000E+00  0.00000000000E+00  0.33029549705E+03  0.33029549705E+03  0.00000000000E+00 0. -1.
         -2   -1    0    0    0  501 -0.00000000000E+00 -0.00000000000E+00 -0.36872579566E+02  0.36872579566E+02  0.00000000000E+00 0.  1.
         25    2    1    2    0    0 -0.26697637665E+02  0.53106193977E+01  0.18071367271E+03  0.22146409581E+03  0.12509175709E+03 0.  0.
          5    1    3    3  502    0  0.11588623672E+01 -0.12209023324E+02  0.18721331567E+03  0.18766113390E+03  0.41800000000E+01 0.  1.
         -5    1    3    3    0  502 -0.27856500032E+02  0.17519642722E+02 -0.64996429600E+01  0.33802961908E+02  0.41800000000E+01 0.  1.
        -11    1    1    2    0    0  0.48666379032E+01  0.35862579187E+02  0.82706862652E+02  0.90278645759E+02  0.00000000000E+00 0. -1.
         11    1    1    2    0    0  0.21830999762E+02 -0.41173198585E+02  0.30002382125E+02  0.55425335051E+02  0.00000000000E+00 0.  1.
</event>
<event>
 7    1  0.2856214E-009  0.1111418E+03  0.7561462E-02  0.1258470E+00
          2   -1    0    0  501    0  0.00000000000E+00  0.00000000000E+00  0.25795126432E+03  0.25795126432E+03  0.00000000000E+00 0.  1.
         -2   -1    0    0    0  501 -0.00000000000E+00 -0.00000000000E+00 -0.56530711518E+02  0.56530711518E+02  0.00000000000E+00 0. -1.
         25    2    1    2    0    0  0.25995939989E+02  0.26633780469E+02  0.64838249640E+02  0.14573442537E+03  0.12509746985E+03 0.  0.
          5    1    3    3  502    0  0.43073773393E+02  0.66658679357E+02  0.63950378841E+02  0.10200908215E+03  0.41800000000E+01 0.  1.
         -5    1    3    3    0  502 -0.17077833404E+02 -0.40024898888E+02  0.88787079819E+00  0.43725343215E+02  0.41800000000E+01 0.  1.
        -11    1    1    2    0    0 -0.60553531811E+02 -0.20923972172E+02  0.89338308891E+02  0.10993578245E+03  0.00000000000E+00 0.  1.
         11    1    1    2    0    0  0.34557591822E+02 -0.57098082973E+01  0.47243994273E+02  0.58811768025E+02  0.00000000000E+00 0. -1.
</event>
<event>
 7    1  0.2856214E-009  0.1751468E+03  0.7561462E-02  0.1172584E+00
          1   -1    0    0  501    0  0.00000000000E+00  0.00000000000E+00  0.69164678885E+03  0.69164678885E+03  0.00000000000E+00 0. -1.
         -1   -1    0    0    0  501 -0.00000000000E+00 -0.00000000000E+00 -0.46346584087E+02  0.46346584087E+02  0.00000000000E+00 0.  1.
         25    2    1    2    0    0  0.60793205032E+01 -0.15434012933E+03  0.32961346377E+03  0.38490351396E+03  0.12509135022E+03 0.  0.
          5    1    3    3  502    0 -0.49461708623E+02 -0.28198702082E+02  0.13321392059E+03  0.14493118525E+03  0.41800000000E+01 0.  1.
         -5    1    3    3    0  502  0.55541029127E+02 -0.12614142724E+03  0.19639954317E+03  0.23997232870E+03  0.41800000000E+01 0.  1.
        -11    1    1    2    0    0 -0.11721075183E+02  0.10564956175E+03  0.24505460771E+03  0.26711603146E+03  0.00000000000E+00 0.  1.
         11    1    1    2    0    0  0.56417546796E+01  0.48690567575E+02  0.70632133284E+02  0.85973827522E+02  0.00000000000E+00 0. -1.
</event>
<event>
 7    1  0.2856214E-009  0.1053432E+03  0.7561462E-02  0.1269445E+00
         -1   -1    0    0    0  501 -0.00000000000E+00  0.00000000000E+00  0.31021772907E+02  0.31021772907E+02  0.00000000000E+00 0.  1.
          1   -1    0    0  501    0  0.00000000000E+00 -0.00000000000E+00 -0.70321562138E+03  0.70321562138E+03  0.00000000000E+00 0. -1.
         25    2    1    2    0    0  0.24176639934E+02 -0.94788461820E+02 -0.40871549535E+03  0.43848172341E+03  0.12509397752E+03 0.  0.
          5    1    3    3  502    0  0.31318089044E+02 -0.74346974884E+02 -0.98081532027E+02  0.12706594627E+03  0.41800000000E+01 0.  1.
         -5    1    3    3    0  502 -0.71414491105E+01 -0.20441486936E+02 -0.31063396332E+03  0.31141577714E+03  0.41800000000E+01 0.  1.
        -11    1    1    2    0    0  0.60772372292E+01  0.65372219100E+02 -0.63375346987E+02  0.91251818876E+02  0.00000000000E+00 0. -1.
         11    1    1    2    0    0 -0.30253877163E+02  0.29416242720E+02 -0.20010300613E+03  0.20450385200E+03  0.00000000000E+00 0.  1.
</event>
<event>
 7    1  0.2856214E-009  0.1514249E+03  0.7561462E-02  0.1198733E+00
          2   -1    0    0  501    0  0.00000000000E+00  0.00000000000E+00  0.43920906907E+03  0.43920906907E+03  0.00000000000E+00 0. -1.
         -2   -1    0    0    0  501 -0.00000000000E+00 -0.00000000000E+00 -0.93472808438E+02  0.93472808438E+02  0.00000000000E+00 0.  1.
         25    2    1    2    0    0 -0.11250031856E+03 -0.76402569918E+02  0.31237348818E+03  0.36292953687E+03  0.12508788211E+03 0.  0.
          5    1    3    3  502    0 -0.69783253973E+02 -0.19239591993E+02  0.43145561239E+02  0.84373433555E+02  0.41800000000E+01 0.  1.
         -5    1    3    3    0  502 -0.42717064592E+02 -0.57162977925E+02  0.26922792694E+03  0.27855610332E+03  0.41800000000E+01 0.  1.
        -11    1    1    2    0    0 -0.92538152002E+01  0.25075551802E+02 -0.13001708515E+02  0.29723068789E+02  0.00000000000E+00 0.  1.
         11    1    1    2    0    0  0.12175413377E+03  0.51327018116E+02  0.46364480968E+02  0.14002927184E+03  0.00000000000E+00 0. -1.
</event>
<event>
 7    1  0.2991418E-009  0.1577944E+03  0.7561462E-02  0.1191210E+00
          2   -1    0    0  501    0  0.00000000000E+00  0.00000000000E+00  0.94724504288E+03  0.94724504288E+03  0.00000000000E+00 0. -1.
         -2   -1    0    0    0  501 -0.00000000000E+00 -0.00000000000E+00 -0.28886929524E+02  0.28886929524E+02  0.00000000000E+00 0.  1.
         25    2    1    2    0    0 -0.65269172624E+02  0.10405536418E+03  0.43237780901E+03  0.46656922026E+03  0.12509469958E+03 0.  0.
          5    1    3    3  502    0  0.13622560239E+02  0.93544392127E+02  0.20975235500E+03  0.23010791006E+03  0.41800000000E+01 0.  1.
         -5    1    3    3    0  502 -0.78891732863E+02  0.10510972055E+02  0.22262545401E+03  0.23646131020E+03  0.41800000000E+01 0.  1.
        -11    1    1    2    0    0 -0.16945508479E+00 -0.65121818965E+02  0.32528614771E+03  0.33174079929E+03  0.00000000000E+00 0. -1.
         11    1    1    2    0    0  0.65438627709E+02 -0.38933545217E+02  0.16069415663E+03  0.17782195285E+03  0.00000000000E+00 0.  1.
</event>
<event>
 7    1  0.2856214E-009  0.2024874E+03  0.7561462E-02  0.1147657E+00
         -3   -1    0    0    0  501 -0.00000000000E+00  0.00000000000E+00  0.11273095505E+03  0.11273095505E+03  0.00000000000E+00 0.  1.
          3   -1    0    0  501    0  0.00000000000E+00 -0.00000000000E+00 -0.46128548294E+03  0.46128548294E+03  0.00000000000E+00 0. -1.
         25    2    1    2    0    0  0.16826763997E+03 -0.10470991635E+03 -0.13994889485E+03  0.27296690998E+03  0.12508827097E+03 0.  0.
          5    1    3    3  502    0  0.13730811532E+03 -0.10878562210E+03 -0.57048750028E+02  0.18428201863E+03  0.41800000000E+01 0. -1.
         -5    1    3    3    0  502  0.30959524648E+02  0.40757057569E+01 -0.82900144818E+02  0.88684891355E+02  0.41800000000E+01 0. -1.
        -11    1    1    2    0    0 -0.11975365538E+03  0.76954321219E+02 -0.86012197333E+02  0.16631597525E+03  0.00000000000E+00 0.  1.
         11    1    1    2    0    0 -0.48513984588E+02  0.27755595128E+02 -0.12259343571E+03  0.13473355277E+03  0.00000000000E+00 0. -1.
</event>
<event>
 7    1  0.2856214E-009  0.1002337E+03  0.7561462E-02  0.1279805E+00
         -3   -1    0    0    0  501 -0.00000000000E+00  0.00000000000E+00  0.73663939381E+02  0.73663939381E+02  0.00000000000E+00 0.  1.
          3   -1    0    0  501    0  0.00000000000E+00 -0.00000000000E+00 -0.25418385728E+03  0.25418385728E+03  0.00000000000E+00 0. -1.
         25    2    1    2    0    0  0.83107012998E+01  0.56938029865E+02 -0.27588445590E+02  0.14042617315E+03  0.12508949106E+03 0.  0.
          5    1    3    3  502    0 -0.38153104813E+02  0.38478169113E+02  0.31574667510E+02  0.62854283335E+02  0.41800000000E+01 0.  1.
         -5    1    3    3    0  502  0.46463806112E+02  0.18459860752E+02 -0.59163113100E+02  0.77571889813E+02  0.41800000000E+01 0.  1.
        -11    1    1    2    0    0 -0.20627076979E+02 -0.72914306175E+02 -0.73858739275E+02  0.10581628285E+03  0.00000000000E+00 0.  1.
         11    1    1    2    0    0  0.12316375679E+02  0.15976276310E+02 -0.79072733032E+02  0.81605340657E+02  0.00000000000E+00 0. -1.
</event>
<event>
 7    1  0.2856214E-009  0.1000449E+03  0.7561462E-02  0.1280202E+00
          1   -1    0    0  501    0  0.00000000000E+00  0.00000000000E+00  0.89394551797E+02  0.89394551797E+02  0.00000000000E+00 0. -1.
         -1   -1    0    0    0  501 -0.00000000000E+00 -0.00000000000E+00 -0.14455061650E+03  0.14455061650E+03  0.00000000000E+00 0.  1.
         25    2    1    2    0    0  0.37408751389E+01  0.28522220895E+02 -0.53237918142E+02  0.13895792982E+03  0.12509004397E+03 0.  0.
          5    1    3    3  502    0  0.78311490351E+01  0.68033757081E+02  0.44921405861E+01  0.68757332154E+02  0.41800000000E+01 0. -1.
         -5    1    3    3    0  502 -0.40902738962E+01 -0.39511536187E+02 -0.57730058728E+02  0.70200597669E+02  0.41800000000E+01 0. -1.
        -11    1    1    2    0    0  0.76280380419E+01 -0.58749554096E+02  0.10908477187E+02  0.60238625029E+02  0.00000000000E+00 0.  1.
         11    1    1    2    0    0 -0.11368913181E+02  0.30227333201E+02 -0.12826623743E+02  0.34748613440E+02  0.00000000000E+00 0. -1.
</event>
<event>
 7    1  0.3697957E-009  0.1383838E+03  0.7561462E-02  0.1215520E+00
          1   -1    0    0  501    0  0.00000000000E+00  0.00000000000E+00  0.10508590440E+04  0.10508590440E+04  0.00000000000E+00 0. -1.
         -1   -1    0    0    0  501 -0.00000000000E+00 -0.00000000000E+00 -0.24346528619E+02  0.24346528619E+02  0.00000000000E+00 0.  1.
         25    2    1    2    0    0  0.82567807812E+02  0.79299769124E+02  0.63748449961E+03  0.65965118343E+03  0.12508916933E+03 0.  0.
          5    1    3    3  502    0  0.53036220056E+02  0.10798822049E+03  0.54791349472E+03  0.56098214455E+03  0.41800000000E+01 0. -1.
         -5    1    3    3    0  502  0.29531587756E+02 -0.28688451362E+02  0.89571004886E+02  0.98669038878E+02  0.41800000000E+01 0. -1.
        -11    1    1    2    0    0 -0.38099179315E+02 -0.29116297712E+02  0.47457525268E+02  0.67464975813E+02  0.00000000000E+00 0.  1.
         11    1    1    2    0    0 -0.44468628498E+02 -0.50183471413E+02  0.34157049049E+03  0.34808941337E+03  0.00000000000E+00 0. -1.
</event>
<event>
 7    1  0.2856214E-009  0.8303074E+02  0.7561462E-02  0.1320664E+00
          1   -1    0    0  501    0  0.00000000000E+00  0.00000000000E+00  0.35517998997E+03  0.35517998997E+03  0.00000000000E+00 0. -1.
         -1   -1    0    0    0  501 -0.00000000000E+00 -0.00000000000E+00 -0.37231238243E+02  0.37231238243E+02  0.00000000000E+00 0.  1.
         25    2    1    2    0    0  0.28554908833E+02 -0.91409336414E+01  0.23707217428E+03  0.26972225505E+03  0.12509172461E+03 0.  0.
          5    1    3    3  502    0  0.52234389409E+02  0.10093880488E+02  0.23255628196E+03  0.23860053340E+03  0.41800000000E+01 0. -1.
         -5    1    3    3    0  502 -0.23679480576E+02 -0.19234814129E+02  0.45158923168E+01  0.31121721648E+02  0.41800000000E+01 0. -1.
        -11    1    1    2    0    0  0.26393482364E+02  0.16119942945E+01  0.23438045893E+01  0.26546334152E+02  0.00000000000E+00 0.  1.
         11    1    1    2    0    0 -0.54948391197E+02  0.75289393468E+01  0.78532772858E+02  0.96142639009E+02  0.00000000000E+00 0. -1.
</event>
<event>
 7    1  0.2856214E-009  0.1542519E+03  0.7561462E-02  0.1195344E+00
          1   -1    0    0  501    0  0.00000000000E+00  0.00000000000E+00  0.29191682012E+03  0.29191682012E+03  0.00000000000E+00 0. -1.
         -1   -1    0    0    0  501 -0.00000000000E+00 -0.00000000000E+00 -0.10090986211E+03  0.10090986211E+03  0.00000000000E+00 0.  1.
         25    2    1    2    0    0  0.10295322890E+03 -0.84106743971E+02  0.10303806319E+03  0.20961135119E+03  0.12508702715E+03 0.  0.
          5    1    3    3  502    0  0.11284780825E+03 -0.50415442648E+02  0.28204927851E+02  0.12684374261E+03  0.41800000000E+01 0. -1.
         -5    1    3    3    0  502 -0.98945793548E+01 -0.33691301323E+02  0.74833135339E+02  0.82767608580E+02  0.41800000000E+01 0. -1.
        -11    1    1    2    0    0 -0.75123013194E+02  0.93645458215E+02  0.94850341980E+02  0.15300172002E+03  0.00000000000E+00 0. -1.
         11    1    1    2    0    0 -0.27830215703E+02 -0.95387142439E+01 -0.68814471559E+01  0.30213611013E+02  0.00000000000E+00 0.  1.
</event>
<event>
 7    1  0.2856214E-009  0.1007160E+03  0.7561462E-02  0.1278798E+00
          2   -1    0    0  501    0  0.00000000000E+00  0.00000000000E+00  0.33677927598E+03  0.33677927598E+03  0.00000000000E+00 0. -1.
         -2   -1    0    0    0  501 -0.00000000000E+00 -0.00000000000E+00 -0.54576326248E+02  0.54576326248E+02  0.00000000000E+00 0.  1.
         25    2    1    2    0    0 -0.78780614216E+02  0.82863342943E+01  0.15339333186E+03  0.21319528020E+03  0.12509062607E+03 0.  0.
          5    1    3    3  502    0 -0.33382661740E+02  0.92782115074E+01  0.16291494415E+03  0.16661104027E+03  0.41800000000E+01 0. -1.
         -5    1    3    3    0  502 -0.45397952475E+02 -0.99187721312E+00 -0.95216122909E+01  0.46584239931E+02  0.41800000000E+01 0. -1.
        -11    1    1    2    0    0  0.17724100346E+02 -0.45911111122E+02  0.36536263965E+02  0.61293331138E+02  0.00000000000E+00 0.  1.
         11    1    1    2    0    0  0.61056513870E+02  0.37624776828E+02  0.92273353913E+02  0.11686699089E+03  0.00000000000E+00 0. -1.
</event>
<event>
 7    1  0.2856214E-009  0.1378813E+03  0.7561462E-02  0.1216209E+00
          1   -1    0    0  501    0  0.00000000000E+00  0.00000000000E+00  0.15880791283E+03  0.15880791283E+03  0.00000000000E+00 0. -1.
         -1   -1    0    0    0  501 -0.00000000000E+00 -0.00000000000E+00 -0.17199583893E+03  0.17199583893E+03  0.00000000000E+00 0.  1.
         25    2    1    2    0    0 -0.76771307031E+02 -0.88505203552E+02 -0.45719055372E+02  0.17737083961E+03  0.12507269119E+03 0.  0.
          5    1    3    3  502    0 -0.90621969286E+02 -0.48636631377E+02  0.14254328302E+02  0.10391593479E+03  0.41800000000E+01 0. -1.
         -5    1    3    3    0  502  0.13850662255E+02 -0.39868572174E+02 -0.59973383674E+02  0.73454904815E+02  0.41800000000E+01 0. -1.
        -11    1    1    2    0    0  0.68994663804E+02  0.36926484834E+02 -0.18551908750E+02  0.80423890940E+02  0.00000000000E+00 0.  1.
         11    1    1    2    0    0  0.77766432272E+01  0.51578718718E+02  0.51083038025E+02  0.73009021212E+02  0.00000000000E+00 0. -1.
</event>
<event>
 7    1  0.2856214E-009  0.2017269E+03  0.7561462E-02  0.1148290E+00
          2   -1    0    0  501    0  0.00000000000E+00  0.00000000000E+00  0.11407508894E+04  0.11407508894E+04  0.00000000000E+00 0. -1.
         -2   -1    0    0    0  501 -0.00000000000E+00 -0.00000000000E+00 -0.42409128386E+02  0.42409128386E+02  0.00000000000E+00 0.  1.
         25    2    1    2    0    0  0.92970481000E+02 -0.16491652538E+03  0.49916411398E+03  0.54831708886E+03  0.12508335850E+03 0.  0.
          5    1    3    3  502    0  0.29444272369E+02  0.58410255147E+01  0.21754047108E+02  0.37306751667E+02  0.41800000000E+01 0.  1.
         -5    1    3    3    0  502  0.63526208631E+02 -0.17075755090E+03  0.47741006687E+03  0.51101033720E+03  0.41800000000E+01 0.  1.
        -11    1    1    2    0    0 -0.70488217541E+02  0.10110948336E+03  0.49875001623E+03  0.51375411932E+03  0.00000000000E+00 0. -1.
         11    1    1    2    0    0 -0.22482263459E+02  0.63807042026E+02  0.10042763086E+03  0.12108880965E+03  0.00000000000E+00 0.  1.
</event>
<event>
 7    1  0.2856214E-009  0.1986514E+03  0.7561462E-02  0.1150882E+00
         -1   -1    0    0    0  501 -0.00000000000E+00  0.00000000000E+00  0.28856084792E+03  0.28856084792E+03  0.00000000000E+00 0.  1.
          1   -1    0    0  501    0  0.00000000000E+00 -0.00000000000E+00 -0.40121751812E+03  0.40121751812E+03  0.00000000000E+00 0. -1.
         25    2    1    2    0    0 -0.15716519359E+03  0.11081224063E+03  0.20463385164E+03  0.30741337934E+03  0.12509085422E+03 0.  0.
          5    1    3    3  502    0 -0.14642479365E+03  0.11837749009E+03  0.21808460789E+03  0.28815242313E+03  0.41800000000E+01 0.  1.
         -5    1    3    3    0  502 -0.10740399937E+02 -0.75652494577E+01 -0.13450756255E+02  0.19260956206E+02  0.41800000000E+01 0.  1.
        -11    1    1    2    0    0  0.11543513900E+03 -0.62248676858E+02 -0.13095783580E+03  0.18533786403E+03  0.00000000000E+00 0.  1.
         11    1    1    2    0    0  0.41730054585E+02 -0.48563563775E+02 -0.18633268604E+03  0.19702712267E+03  0.00000000000E+00 0. -1.
</event>
<event>
 7    1  0.2856214E-009  0.8489961E+02  0.7561462E-02  0.1315695E+00
          2   -1    0    0  501    0  0.00000000000E+00  0.00000000000E+00  0.17518237600E+03  0.17518237600E+03  0.00000000000E+00 0. -1.
         -2   -1    0    0    0  501 -0.00000000000E+00 -0.00000000000E+00 -0.87826613427E+02  0.87826613427E+02  0.00000000000E+00 0.  1.
         25    2    1    2    0    0  0.60548461048E+02  0.77703739347E+01  0.58595984173E+02  0.15102269940E+03  0.12509145265E+03 0.  0.
          5    1    3    3  502    0  0.47001550305E+02 -0.72067747349E+01 -0.32417872657E+02  0.57701596172E+02  0.41800000000E+01 0. -1.
         -5    1    3    3    0  502  0.13546910743E+02  0.14977148670E+02  0.91013856831E+02  0.93321103230E+02  0.41800000000E+01 0. -1.
        -11    1    1    2    0    0 -0.78487450641E+02 -0.18365955551E+02  0.55520557217E+01  0.80798598714E+02  0.00000000000E+00 0.  1.
         11    1    1    2    0    0  0.17938989593E+02  0.10595581616E+02  0.23207722680E+02  0.31187691312E+02  0.00000000000E+00 0. -1.
</event>
<event>
 7    1  0.2856214E-009  0.1074457E+03  0.7561462E-02  0.1265375E+00
          2   -1    0    0  501    0  0.00000000000E+00  0.00000000000E+00  0.19556062104E+03  0.19556062104E+03  0.00000000000E+00 0. -1.
         -2   -1    0    0    0  501 -0.00000000000E+00 -0.00000000000E+00 -0.61988749466E+02  0.61988749466E+02  0.00000000000E+00 0.  1.
         25    2    1    2    0    0 -0.89893565780E+01  0.19808898951E+02  0.85758846238E+02  0.15321698212E+03  0.12509061872E+03 0.  0.
          5    1    3    3  502    0  0.33203352443E+02 -0.38060794994E+02  0.56059343992E+02  0.75572542486E+02  0.41800000000E+01 0. -1.
         -5    1    3    3    0  502 -0.42192709021E+02  0.57869693945E+02  0.29699502245E+02  0.77644439630E+02  0.41800000000E+01 0. -1.
        -11    1    1    2    0    0  0.43071294405E+02 -0.34668146634E+02  0.32398434661E+02  0.64083346989E+02  0.00000000000E+00 0.  1.
         11    1    1    2    0    0 -0.34081937827E+02  0.14859247683E+02  0.15414590672E+02  0.40249041397E+02  0.00000000000E+00 0. -1.
</event>
<event>
 7    1  0.2856214E-009  0.9413982E+02  0.7561462E-02  0.1293125E+00
          1   -1    0    0  501    0  0.00000000000E+00  0.00000000000E+00  0.19388309675E+03  0.19388309675E+03  0.00000000000E+00 0. -1.
         -1   -1    0    0    0  501 -0.00000000000E+00 -0.00000000000E+00 -0.75194923003E+02  0.75194923003E+02  0.00000000000E+00 0.  1.
         25    2    1    2    0    0  0.46937900006E+02 -0.29670595131E+02  0.73542596461E+02  0.15537177885E+03  0.12509342708E+03 0.  0.
          5    1    3    3  502    0  0.70678397439E+02 -0.34128870753E+02  0.94644855363E+02  0.12302575637E+03  0.41800000000E+01 0. -1.
         -5    1    3    3    0  502 -0.23740497433E+02  0.44582756223E+01 -0.21102258902E+02  0.32346022486E+02  0.41800000000E+01 0. -1.
        -11    1    1    2    0    0  0.92533438766E+01  0.27410453793E+02  0.49464962295E+02  0.57303925214E+02  0.00000000000E+00 0. -1.
         11    1    1    2    0    0 -0.56191243882E+02  0.22601413376E+01 -0.43193850071E+01  0.56402315686E+02  0.00000000000E+00 0.  1.
</event>
<event>
 7    1  0.2856214E-009  0.1290642E+03  0.7561462E-02  0.1228851E+00
         -1   -1    0    0    0  501 -0.00000000000E+00  0.00000000000E+00  0.10089518987E+03  0.10089518987E+03  0.00000000000E+00 0.  1.
          1   -1    0    0  501    0  0.00000000000E+00 -0.00000000000E+00 -0.19434043635E+03  0.19434043635E+03  0.00000000000E+00 0. -1.
         25    2    1    2    0    0  0.19093401009E+02  0.79094555059E+02 -0.86771648060E+02  0.17261557688E+03  0.12508521844E+03 0.  0.
          5    1    3    3  502    0  0.43057877015E+02 -0.16428318377E+02 -0.91976030606E+01  0.47179855021E+02  0.41800000000E+01 0.  1.
         -5    1    3    3    0  502 -0.23964476007E+02  0.95522873436E+02 -0.77574045000E+02  0.12543572186E+03  0.41800000000E+01 0.  1.
        -11    1    1    2    0    0  0.19899557427E+02 -0.70631622819E+02 -0.26557629411E+02  0.78039260682E+02  0.00000000000E+00 0. -1.
         11    1    1    2    0    0 -0.38992958435E+02 -0.84629322399E+01  0.19884030988E+02  0.44580788665E+02  0.00000000000E+00 0.  1.
</event>
<event>
 7    1  0.2856214E-009  0.9611674E+02  0.7561462E-02  0.1288681E+00
         -1   -1    0    0    0  501 -0.00000000000E+00  0.00000000000E+00  0.17322303004E+03  0.17322303004E+03  0.00000000000E+00 0.  1.
          1   -1    0    0  501    0  0.00000000000E+00 -0.00000000000E+00 -0.88942966242E+02  0.88942966242E+02  0.00000000000E+00 0. -1.
         25    2    1    2    0    0  0.18974419873E+01 -0.60005984842E+02  0.58123758503E+02  0.15043287913E+03  0.12508941329E+03 0.  0.
          5    1    3    3  502    0  0.59785228803E+00 -0.95904745292E+02  0.20335923048E+02  0.98127976455E+02  0.41800000000E+01 0.  1.
         -5    1    3    3    0  502  0.12995896993E+01  0.35898760450E+02  0.37787835455E+02  0.52304902673E+02  0.41800000000E+01 0.  1.
        -11    1    1    2    0    0 -0.53778390884E+00  0.45123582923E+02 -0.29626662867E+02  0.53983016774E+02  0.00000000000E+00 0. -1.
         11    1    1    2    0    0 -0.13596580785E+01  0.14882401918E+02  0.55782968160E+02  0.57750100378E+02  0.00000000000E+00 0.  1.
</event>
<event>
 7    1  0.2856214E-009  0.1832715E+03  0.7561462E-02  0.1164674E+00
         -2   -1    0    0    0  501 -0.00000000000E+00  0.00000000000E+00  0.99227470748E+02  0.99227470748E+02  0.00000000000E+00 0.  1.
          2   -1    0    0  501    0  0.00000000000E+00 -0.00000000000E+00 -0.41871551874E+03  0.41871551874E+03  0.00000000000E+00 0. -1.
         25    2    1    2    0    0 -0.11024502344E+03 -0.12609487921E+03 -0.19720516198E+03  0.28738823518E+03  0.12509291767E+03 0.  0.
          5    1    3    3  502    0 -0.27617120890E+01 -0.68259793889E+02 -0.13260859707E+03  0.14922981918E+03  0.41800000000E+01 0. -1.
         -5    1    3    3    0  502 -0.10748331135E+03 -0.57835085324E+02 -0.64596564911E+02  0.13815841600E+03  0.41800000000E+01 0. -1.
        -11    1    1    2    0    0  0.53990278126E+02  0.23324674813E+02  0.31741341037E+01  0.58898775153E+02  0.00000000000E+00 0.  1.
         11    1    1    2    0    0  0.56254745316E+02  0.10277020440E+03 -0.12545702012E+03  0.17165597915E+03  0.00000000000E+00 0. -1.
</event>
<event>
 7    1  0.2856214E-009  0.8421684E+02  0.7561462E-02  0.1317493E+00
          1   -1    0    0  501    0  0.00000000000E+00  0.00000000000E+00  0.23821391123E+03  0.23821391123E+03  0.00000000000E+00 0. -1.
         -1   -1    0    0    0  501 -0.00000000000E+00 -0.00000000000E+00 -0.71667873303E+02  0.71667873303E+02  0.00000000000E+00 0.  1.
         25    2    1    2    0    0 -0.27704272685E+02  0.65499455176E+02  0.67863984798E+02  0.15908933011E+03  0.12508472796E+03 0.  0.
          5    1    3    3  502    0 -0.10672861034E+02  0.35892652379E+02 -0.34505542934E+02  0.51091069187E+02  0.41800000000E+01 0.  1.
         -5    1    3    3    0  502 -0.17031411651E+02  0.29606802796E+02  0.10236952773E+03  0.10799826092E+03  0.41800000000E+01 0.  1.
        -11    1    1    2    0    0  0.49028402918E+02 -0.49629454952E+02  0.27813861746E+02  0.75103115759E+02  0.00000000000E+00 0.  1.
         11    1    1    2    0    0 -0.21324130232E+02 -0.15870000223E+02  0.70868191385E+02  0.75689338664E+02  0.00000000000E+00 0. -1.
</event>
<event>
 7    1  0.2856214E-009  0.1146974E+03  0.7561462E-02  0.1252110E+00
         -1   -1    0    0    0  501 -0.00000000000E+00  0.00000000000E+00  0.12897614279E+03  0.12897614279E+03  0.00000000000E+00 0.  1.
          1   -1    0    0  501    0  0.00000000000E+00 -0.00000000000E+00 -0.13131481417E+03  0.13131481417E+03  0.00000000000E+00 0. -1.
         25    2    1    2    0    0 -0.23910015701E+02 -0.58652023298E+02  0.36627090266E+02  0.14492011472E+03  0.12509415342E+03 0.  0.
          5    1    3    3  502    0  0.38786687316E+02  0.16411508281E+02  0.10941984583E+02  0.43714347115E+02  0.41800000000E+01 0. -1.
         -5    1    3    3    0  502 -0.62696703017E+02 -0.75063531580E+02  0.25685105683E+02  0.10120576760E+03  0.41800000000E+01 0. -1.
        -11    1    1    2    0    0 -0.16422027263E+02  0.42803701881E+02 -0.52758264236E+02  0.69894737422E+02  0.00000000000E+00 0. -1.
         11    1    1    2    0    0  0.40332042964E+02  0.15848321418E+02  0.13792502586E+02  0.45476104813E+02  0.00000000000E+00 0.  1.
</event>
<event>
 7    1  0.2856214E-009  0.1131318E+03  0.7561462E-02  0.1254878E+00
          2   -1    0    0  501    0  0.00000000000E+00  0.00000000000E+00  0.52381246155E+03  0.52381246155E+03  0.00000000000E+00 0. -1.
         -2   -1    0    0    0  501 -0.00000000000E+00 -0.00000000000E+00 -0.32616624306E+02  0.32616624306E+02  0.00000000000E+00 0.  1.
         25    2    1    2    0    0  0.22700338812E+02 -0.52365159998E+02  0.17447924542E+03  0.22214721860E+03  0.12509582042E+03 0.  0.
          5    1    3    3  502    0  0.40520008573E+02 -0.80493028231E+02  0.75514481396E+02  0.11764738836E+03  0.41800000000E+01 0.  1.
         -5    1    3    3    0  502 -0.17819669760E+02  0.28127868233E+02  0.98964764020E+02  0.10449983024E+03  0.41800000000E+01 0.  1.
        -11    1    1    2    0    0  0.54885450019E+01 -0.22151376430E+02  0.11805189667E+03  0.12023750626E+03  0.00000000000E+00 0. -1.
         11    1    1    2    0    0 -0.28188883814E+02  0.74516536428E+02  0.19866469515E+03  0.21404436099E+03  0.00000000000E+00 0.  1.
</event>
<event>
 7    1  0.2856214E-009  0.6814664E+02  0.7561462E-02  0.1366511E+00
         -1   -1    0    0    0  501 -0.00000000000E+00  0.00000000000E+00  0.14731964631E+03  0.14731964631E+03  0.00000000000E+00 0.  1.
          1   -1    0    0  501    0  0.00000000000E+00 -0.00000000000E+00 -0.85972779337E+02  0.85972779337E+02  0.00000000000E+00 0. -1.
         25    2    1    2    0    0 -0.81535591875E-01  0.18854772739E+02  0.57537009745E+02  0.13897444685E+03  0.12509148765E+03 0.  0.
          5    1    3    3  502    0 -0.88684093767E+01  0.27916355199E+02  0.94852848368E+02  0.99360489210E+02  0.41800000000E+01 0.  1.
         -5    1    3    3    0  502  0.87868737848E+01 -0.90615824609E+01 -0.37315838623E+02  0.39613957638E+02  0.41800000000E+01 0.  1.
        -11    1    1    2    0    0  0.44361271486E+02 -0.20992765893E+02  0.82446836587E+01  0.49765383917E+02  0.00000000000E+00 0.  1.
         11    1    1    2    0    0 -0.44279735894E+02  0.21379931549E+01 -0.44348264272E+01  0.44552594886E+02  0.00000000000E+00 0. -1.
</event>
<event>
 7    1  0.2856214E-009  0.1113634E+03  0.7561462E-02  0.1258066E+00
          1   -1    0    0  501    0  0.00000000000E+00  0.00000000000E+00  0.25356767162E+02  0.25356767162E+02  0.00000000000E+00 0. -1.
         -1   -1    0    0    0  501 -0.00000000000E+00 -0.00000000000E+00 -0.57022740010E+03  0.57022740010E+03  0.00000000000E+00 0.  1.
         25    2    1    2    0    0 -0.50406742799E+02  0.10449030128E+02 -0.32582140302E+03  0.35278480125E+03  0.12508999712E+03 0.  0.
          5    1    3    3  502    0 -0.78781747704E+02  0.34669604954E+02 -0.28304280540E+03  0.29587032188E+03  0.41800000000E+01 0.  1.
         -5    1    3    3    0  502  0.28375004905E+02 -0.24220574827E+02 -0.42778597617E+02  0.56914479373E+02  0.41800000000E+01 0.  1.
        -11    1    1    2    0    0  0.10379316365E+02  0.36133630109E+02 -0.47437774328E+02  0.60528603704E+02  0.00000000000E+00 0.  1.
         11    1    1    2    0    0  0.40027426434E+02 -0.46582660237E+02 -0.17161145559E+03  0.18227076231E+03  0.00000000000E+00 0. -1.
</event>
<event>
 7    1  0.2856214E-009  0.2331860E+03  0.7561462E-02  0.1124417E+00
          2   -1    0    0  501    0  0.00000000000E+00  0.00000000000E+00  0.41585783953E+03  0.41585783953E+03  0.00000000000E+00 0. -1.
         -2   -1    0    0    0  501 -0.00000000000E+00 -0.00000000000E+00 -0.18637361138E+03  0.18637361138E+03  0.00000000000E+00 0.  1.
         25    2    1    2    0    0  0.56486231666E+02 -0.21045002639E+03 -0.28278736222E+02  0.25283649763E+03  0.12508676842E+03 0.  0.
          5    1    3    3  502    0 -0.27806091528E+02 -0.41326283448E+02  0.25785844764E+02  0.56244311889E+02  0.41800000000E+01 0. -1.
         -5    1    3    3    0  502  0.84292323194E+02 -0.16912374294E+03 -0.54064580986E+02  0.19659218574E+03  0.41800000000E+01 0. -1.
        -11    1    1    2    0    0 -0.17681739596E+02  0.17144767768E+03  0.23099427615E+03  0.28821052325E+03  0.00000000000E+00 0.  1.
         11    1    1    2    0    0 -0.38804492070E+02  0.39002348707E+02  0.26768688224E+02  0.61184430035E+02  0.00000000000E+00 0. -1.
</event>
<event>
 7    1  0.2856214E-009  0.1368831E+03  0.7561462E-02  0.1217586E+00
          3   -1    0    0  501    0  0.00000000000E+00  0.00000000000E+00  0.30214363804E+03  0.30214363804E+03  0.00000000000E+00 0. -1.
         -3   -1    0    0    0  501 -0.00000000000E+00 -0.00000000000E+00 -0.72194598789E+02  0.72194598789E+02  0.00000000000E+00 0.  1.
         25    2    1    2    0    0  0.66391902014E+02  0.65758260124E+02  0.16817615303E+03  0.22948288501E+03  0.12508853919E+03 0.  0.
          5    1    3    3  502    0 -0.30601902123E+02  0.59897266211E+01  0.78057560591E+02  0.84159422550E+02  0.41800000000E+01 0.  1.
         -5    1    3    3    0  502  0.96993804136E+02  0.59768533503E+02  0.90118592436E+02  0.14532346246E+03  0.41800000000E+01 0.  1.
        -11    1    1    2    0    0 -0.63950438096E+02 -0.14741882442E+01  0.45499221584E+02  0.78498477236E+02  0.00000000000E+00 0. -1.
         11    1    1    2    0    0 -0.24414639175E+01 -0.64284071880E+02  0.16273664637E+02  0.66356874582E+02  0.00000000000E+00 0.  1.
</event>
<event>
 7    1  0.2856214E-009  0.1057980E+03  0.7561462E-02  0.1268555E+00
         -2   -1    0    0    0  501 -0.00000000000E+00  0.00000000000E+00  0.40351730530E+02  0.40351730530E+02  0.00000000000E+00 0.  1.
          2   -1    0    0  501    0  0.00000000000E+00 -0.00000000000E+00 -0.29391798003E+03  0.29391798003E+03  0.00000000000E+00 0. -1.
         25    2    1    2    0    0  0.89713042065E+00 -0.13400596868E+02 -0.16778426112E+03  0.20970668172E+03  0.12507978750E+03 0.  0.
          5    1    3    3  502    0  0.61610189400E+02  0.56984796934E+01 -0.83167141614E+02  0.10374263325E+03  0.41800000000E+01 0.  1.
         -5    1    3    3    0  502 -0.60713058980E+02 -0.19099076561E+02 -0.84617119504E+02  0.10596404848E+03  0.41800000000E+01 0.  1.
        -11    1    1    2    0    0  0.41580417337E+02  0.12082546679E+02 -0.62708124716E+02  0.76205170071E+02  0.00000000000E+00 0. -1.
         11    1    1    2    0    0 -0.42477547758E+02  0.13180501887E+01 -0.23073863662E+02  0.48357858762E+02  0.00000000000E+00 0.  1.
</event>
<event>
 7    1  0.2856214E-009  0.1789210E+03  0.7561462E-02  0.1168851E+00
          2   -1    0    0  501    0  0.00000000000E+00  0.00000000000E+00  0.89041363662E+03  0.89041363662E+03  0.00000000000E+00 0. -1.
         -2   -1    0    0    0  501 -0.00000000000E+00 -0.00000000000E+00 -0.42116009975E+02  0.42116009975E+02  0.00000000000E+00 0.  1.
         25    2    1    2    0    0 -0.12314790985E+03 -0.10278173600E+03  0.44586234721E+03  0.49007074487E+03  0.12508640758E+03 0.  0.
          5    1    3    3  502    0 -0.67760970411E+01 -0.41966870882E+02  0.25384834190E+03  0.25741714556E+03  0.41800000000E+01 0.  1.
         -5    1    3    3    0  502 -0.11637181281E+03 -0.60814865115E+02  0.19201400531E+03  0.23265359931E+03  0.41800000000E+01 0.  1.
        -11    1    1    2    0    0  0.99604141996E+02  0.25287783036E+02  0.23343859255E+03  0.25505692221E+03  0.00000000000E+00 0.  1.
         11    1    1    2    0    0  0.23543767856E+02  0.77493952960E+02  0.16899668688E+03  0.18740197952E+03  0.00000000000E+00 0. -1.
</event>
<event>
 7    1  0.2856214E-009  0.1211527E+03  0.7561462E-02  0.1241207E+00
          1   -1    0    0  501    0  0.00000000000E+00  0.00000000000E+00  0.13183871442E+02  0.13183871442E+02  0.00000000000E+00 0. -1.
         -1   -1    0    0    0  501 -0.00000000000E+00 -0.00000000000E+00 -0.19058717538E+04  0.19058717538E+04  0.00000000000E+00 0.  1.
         25    2    1    2    0    0  0.38709426422E+02  0.64980147635E+02 -0.15328687600E+04  0.15398231231E+04  0.12509106994E+03 0.  0.
          5    1    3    3  502    0  0.44119298839E+02 -0.12394494628E+02 -0.22542412890E+03  0.23007313255E+03  0.41800000000E+01 0. -1.
         -5    1    3    3    0  502 -0.54098724168E+01  0.77374642264E+02 -0.13074446311E+04  0.13097499905E+04  0.41800000000E+01 0. -1.
        -11    1    1    2    0    0  0.22693611231E+02  0.72366070730E+01 -0.95639083917E+02  0.98560655665E+02  0.00000000000E+00 0.  1.
         11    1    1    2    0    0 -0.61403037653E+02 -0.72216754708E+02 -0.26418003849E+03  0.28067184652E+03  0.00000000000E+00 0. -1.
</event>
<event>
 7    1  0.2856214E-009  0.9799024E+02  0.7561462E-02  0.1284580E+00
         -1   -1    0    0    0  501 -0.00000000000E+00  0.00000000000E+00  0.11423635470E+03  0.11423635470E+03  0.00000000000E+00 0.  1.
          1   -1    0    0  501    0  0.00000000000E+00 -0.00000000000E+00 -0.12695186533E+03  0.12695186533E+03  0.00000000000E+00 0. -1.
         25    2    1    2    0    0 -0.48459662226E+02  0.11649152639E+02  0.49407728610E+01  0.13475260939E+03  0.12509921215E+03 0.  0.
          5    1    3    3  502    0  0.16671252305E+01  0.51937329182E+02  0.35858600297E+02  0.63273826219E+02  0.41800000000E+01 0.  1.
         -5    1    3    3    0  502 -0.50126787457E+02 -0.40288176544E+02 -0.30917827436E+02  0.71478783169E+02  0.41800000000E+01 0.  1.
        -11    1    1    2    0    0 -0.15039708634E+02 -0.19090203257E+01  0.25059497947E+02  0.29288489749E+02  0.00000000000E+00 0.  1.
         11    1    1    2    0    0  0.63499370860E+02 -0.97401323129E+01 -0.42715781438E+02  0.77147120886E+02  0.00000000000E+00 0. -1.
</event>
<event>
 7    1  0.2856214E-009  0.7924646E+02  0.7561462E-02  0.1331204E+00
         -1   -1    0    0    0  501 -0.00000000000E+00  0.00000000000E+00  0.15872804222E+03  0.15872804222E+03  0.00000000000E+00 0.  1.
          1   -1    0    0  501    0  0.00000000000E+00 -0.00000000000E+00 -0.83195361404E+02  0.83195361404E+02  0.00000000000E+00 0. -1.
         25    2    1    2    0    0  0.17376585217E+00  0.29552284562E+02  0.72398340386E+02  0.14752175797E+03  0.12509109347E+03 0.  0.
          5    1    3    3  502    0 -0.24078893897E+02  0.59254027189E+02 -0.15533298270E+01  0.64114882071E+02  0.41800000000E+01 0. -1.
         -5    1    3    3    0  502  0.24252659749E+02 -0.29701742628E+02  0.73951670213E+02  0.83406875900E+02  0.41800000000E+01 0. -1.
        -11    1    1    2    0    0 -0.23110959489E+02 -0.21353410680E+02 -0.36307138839E+02  0.48044697178E+02  0.00000000000E+00 0. -1.
         11    1    1    2    0    0  0.22937193637E+02 -0.81988738817E+01  0.39441479265E+02  0.46356948470E+02  0.00000000000E+00 0.  1.
</event>
<event>
 7    1  0.2856214E-009  0.2018639E+03  0.7561462E-02  0.1148176E+00
          2   -1    0    0  501    0  0.00000000000E+00  0.00000000000E+00  0.14711921940E+03  0.14711921940E+03  0.00000000000E+00 0. -1.
         -2   -1    0    0    0  501 -0.00000000000E+00 -0.00000000000E+00 -0.37796283065E+03  0.37796283065E+03  0.00000000000E+00 0.  1.
         25    2    1    2    0    0  0.11257919197E+03  0.14934220249E+03 -0.40124210798E+01  0.22503687192E+03  0.12509327037E+03 0.  0.
          5    1    3    3  502    0 -0.15475907293E+02  0.80800816960E+00 -0.22907239265E+02  0.27970888340E+02  0.41800000000E+01 0. -1.
         -5    1    3    3    0  502  0.12805509927E+03  0.14853419432E+03  0.18894818186E+02  0.19706598358E+03  0.41800000000E+01 0. -1.
        -11    1    1    2    0    0 -0.71744802289E+02 -0.60907576949E+02 -0.78311492742E+02  0.12243259158E+03  0.00000000000E+00 0.  1.
         11    1    1    2    0    0 -0.40834389684E+02 -0.88434625544E+02 -0.14851969743E+03  0.17761258655E+03  0.00000000000E+00 0. -1.
</event>
<event>
 7    1  0.2856214E-009  0.1345961E+03  0.7561462E-02  0.1220791E+00
         -1   -1    0    0    0  501 -0.00000000000E+00  0.00000000000E+00  0.47989405995E+02  0.47989405995E+02  0.00000000000E+00 0.  1.
          1   -1    0    0  501    0  0.00000000000E+00 -0.00000000000E+00 -0.47869590129E+03  0.47869590129E+03  0.00000000000E+00 0. -1.
         25    2    1    2    0    0 -0.84418363840E+02 -0.49176030847E+01 -0.34521926519E+03  0.37679465614E+03  0.12508888385E+03 0.  0.
          5    1    3    3  502    0 -0.65755945605E+01  0.53191826215E+02 -0.12317364854E+03  0.13439430388E+03  0.41800000000E+01 0.  1.
         -5    1    3    3    0  502 -0.77842769280E+02 -0.58109429299E+02 -0.22204561665E+03  0.24240035226E+03  0.41800000000E+01 0.  1.
        -11    1    1    2    0    0  0.88887825063E+02 -0.21466047273E+02 -0.46455582899E+02  0.10256684558E+03  0.00000000000E+00 0.  1.
         11    1    1    2    0    0 -0.44694612233E+01  0.26383650357E+02 -0.39031647212E+02  0.47323805572E+02  0.00000000000E+00 0. -1.
</event>
<event>
 7    1  0.2856214E-009  0.9567772E+02  0.7561462E-02  0.1289657E+00
          2   -1    0    0  501    0  0.00000000000E+00  0.00000000000E+00  0.45313915256E+03  0.45313915256E+03  0.00000000000E+00 0. -1.
         -2   -1    0    0    0  501 -0.00000000000E+00 -0.00000000000E+00 -0.47936516813E+02  0.47936516813E+02  0.00000000000E+00 0.  1.
         25    2    1    2    0    0 -0.90173951457E+02  0.57051309216E+01  0.15037289799E+03  0.21546152825E+03  0.12509105350E+03 0.  0.
          5    1    3    3  502    0 -0.38401108703E+02 -0.11285417942E+02 -0.13712417727E+02  0.42514804571E+02  0.41800000000E+01 0. -1.
         -5    1    3    3    0  502 -0.51772842754E+02  0.16990548863E+02  0.16408531572E+03  0.17294672368E+03  0.41800000000E+01 0. -1.
        -11    1    1    2    0    0  0.76990651643E+02  0.80501365879E+01  0.25507213711E+03  0.26655986245E+03  0.00000000000E+00 0. -1.
         11    1    1    2    0    0  0.13183299815E+02 -0.13755267510E+02 -0.24239935348E+00  0.19054278672E+02  0.00000000000E+00 0.  1.
</event>
<event>
 7    1  0.2856214E-009  0.9983791E+02  0.7561462E-02  0.1280637E+00
         -1   -1    0    0    0  501 -0.00000000000E+00  0.00000000000E+00  0.33416079959E+02  0.33416079959E+02  0.00000000000E+00 0.  1.
          1   -1    0    0  501    0  0.00000000000E+00 -0.00000000000E+00 -0.41105978138E+03  0.41105978138E+03  0.00000000000E+00 0. -1.
         25    2    1    2    0    0  0.34224108499E+02 -0.17098214438E+02 -0.15419942974E+03  0.20220928910E+03  0.12508994334E+03 0.  0.
          5    1    3    3  502    0  0.81051448369E+02 -0.31435940888E+01 -0.10495296596E+03  0.13270952088E+03  0.41800000000E+01 0.  1.
         -5    1    3    3    0  502 -0.46827339870E+02 -0.13954620349E+02 -0.49246463777E+02  0.69499768222E+02  0.41800000000E+01 0.  1.
        -11    1    1    2    0    0 -0.18121721059E+02  0.38547155876E+02 -0.20580223301E+03  0.21016383873E+03  0.00000000000E+00 0. -1.
         11    1    1    2    0    0 -0.16102387440E+02 -0.21448941439E+02 -0.17642038673E+02  0.32102733508E+02  0.00000000000E+00 0.  1.
</event>
<event>
 7    1  0.2856214E-009  0.1050456E+03  0.7561462E-02  0.1270030E+00
         -2   -1    0    0    0  501 -0.00000000000E+00  0.00000000000E+00  0.36719748919E+03  0.36719748919E+03  0.00000000000E+00 0.  1.
          2   -1    0    0  501    0  0.00000000000E+00 -0.00000000000E+00 -0.34895819270E+02  0.34895819270E+02  0.00000000000E+00 0. -1.
         25    2    1    2    0    0  0.34855082024E-01 -0.31840185788E+02  0.22505832156E+03  0.25944583579E+03  0.12508834861E+03 0.  0.
          5    1    3    3  502    0  0.30065883159E+02  0.33810670277E+02  0.39183240731E+02  0.59999312570E+02  0.41800000000E+01 0.  1.
         -5    1    3    3    0  502 -0.30031028077E+02 -0.65650856065E+02  0.18587508083E+03  0.19944652322E+03  0.41800000000E+01 0.  1.
        -11    1    1    2    0    0 -0.14848253420E+02  0.59304164660E+02  0.57499368527E+02  0.83926348405E+02  0.00000000000E+00 0. -1.
         11    1    1    2    0    0  0.14813398338E+02 -0.27463978872E+02  0.49743979829E+02  0.58721124266E+02  0.00000000000E+00 0.  1.
</event>
<event>
 7    1  0.2856214E-009  0.9317306E+02  0.7561462E-02  0.1295345E+00
         -2   -1    0    0    0  501 -0.00000000000E+00  0.00000000000E+00  0.31208812352E+02  0.31208812352E+02  0.00000000000E+00 0.  1.
          2   -1    0    0  501    0  0.00000000000E+00 -0.00000000000E+00 -0.71306210859E+03  0.71306210859E+03  0.00000000000E+00 0. -1.
         25    2    1    2    0    0 -0.58062429819E+01  0.32675083448E+02 -0.62621360076E+03  0.63944746329E+03  0.12509280955E+03 0.  0.
          5    1    3    3  502    0 -0.32992730511E+02 -0.19758207462E+02 -0.48203133047E+03  0.48358099941E+03  0.41800000000E+01 0. -1.
         -5    1    3    3    0  502  0.27186487529E+02  0.52433290910E+02 -0.14418227028E+03  0.15586646389E+03  0.41800000000E+01 0. -1.
        -11    1    1    2    0    0 -0.20284952339E+02 -0.52109983421E+02 -0.30409322330E+02  0.63652624047E+02  0.00000000000E+00 0.  1.
         11    1    1    2    0    0  0.26091195321E+02  0.19434899972E+02 -0.25230373147E+02  0.41170833600E+02  0.00000000000E+00 0. -1.
</event>
<event>
 7    1  0.2856214E-009  0.2144557E+03  0.7561462E-02  0.1138085E+00
         -1   -1    0    0    0  501 -0.00000000000E+00  0.00000000000E+00  0.63785078324E+02  0.63785078324E+02  0.00000000000E+00 0.  1.
          1   -1    0    0  501    0  0.00000000000E+00 -0.00000000000E+00 -0.99137136215E+03  0.99137136215E+03  0.00000000000E+00 0. -1.
         25    2    1    2    0    0 -0.11891307789E+03 -0.17130742613E+03 -0.28766198376E+03  0.37667409548E+03  0.12508957975E+03 0.  0.
          5    1    3    3  502    0 -0.11377419543E+03 -0.15221480394E+03 -0.29839238130E+03  0.35379287684E+03  0.41800000000E+01 0.  1.
         -5    1    3    3    0  502 -0.51388824639E+01 -0.19092622192E+02  0.10730397539E+02  0.22881218641E+02  0.41800000000E+01 0.  1.
        -11    1    1    2    0    0  0.95707633758E+02  0.81014939741E+02 -0.28210414213E+03  0.30871689074E+03  0.00000000000E+00 0.  1.
         11    1    1    2    0    0  0.23205444133E+02  0.90292486391E+02 -0.35782015794E+03  0.36976545426E+03  0.00000000000E+00 0. -1.
</event>
<event>
 7    1  0.2856214E-009  0.1000284E+03  0.7561462E-02  0.1280236E+00
         -1   -1    0    0    0  501 -0.00000000000E+00  0.00000000000E+00  0.16703026315E+03  0.16703026315E+03  0.00000000000E+00 0.  1.
          1   -1    0    0  501    0  0.00000000000E+00 -0.00000000000E+00 -0.74424362792E+02  0.74424362792E+02  0.00000000000E+00 0. -1.
         25    2    1    2    0    0  0.41646633151E+01  0.43547427085E+02  0.64357044703E+02  0.14732144707E+03  0.12509219295E+03 0.  0.
          5    1    3    3  502    0  0.59831612398E+02 -0.26161621658E+01  0.27199455045E+02  0.65908640567E+02  0.41800000000E+01 0.  1.
         -5    1    3    3    0  502 -0.55666949083E+02  0.46163589251E+02  0.37157589658E+02  0.81412806499E+02  0.41800000000E+01 0.  1.
        -11    1    1    2    0    0  0.15638147747E+02 -0.45086027577E+02 -0.12038032140E+02  0.49216011271E+02  0.00000000000E+00 0. -1.
         11    1    1    2    0    0 -0.19802811062E+02  0.15386004921E+01  0.40286887792E+02  0.44917167602E+02  0.00000000000E+00 0.  1.
</event>
<event>
 7    1  0.2856214E-009  0.9434661E+02  0.7561462E-02  0.1292654E+00
          2   -1    0    0  501    0  0.00000000000E+00  0.00000000000E+00  0.26703038404E+03  0.26703038404E+03  0.00000000000E+00 0. -1.
         -2   -1    0    0    0  501 -0.00000000000E+00 -0.00000000000E+00 -0.62716001172E+02  0.62716001172E+02  0.00000000000E+00 0.  1.
         25    2    1    2    0    0 -0.67599803022E+02 -0.90341105737E+01  0.14028117419E+03  0.19994422932E+03  0.12509012144E+03 0.  0.
          5    1    3    3  502    0  0.57567919371E+01  0.53224510935E+01 -0.20634300735E+02  0.22465883153E+02  0.41800000000E+01 0.  1.
         -5    1    3    3    0  502 -0.73356594959E+02 -0.14356561667E+02  0.16091547493E+03  0.17747834617E+03  0.41800000000E+01 0.  1.
        -11    1    1    2    0    0 -0.18434663926E+02 -0.10841712725E-01  0.33178320896E+02  0.37955736445E+02  0.00000000000E+00 0. -1.
         11    1    1    2    0    0  0.86034466947E+02  0.90449522864E+01  0.30854887775E+02  0.91846419442E+02  0.00000000000E+00 0.  1.
</event>
<event>
 7    1  0.2856214E-009  0.1023414E+03  0.7561462E-02  0.1275448E+00
         -1   -1    0    0    0  501 -0.00000000000E+00  0.00000000000E+00  0.50190147217E+02  0.50190147217E+02  0.00000000000E+00 0.  1.
          1   -1    0    0  501    0  0.00000000000E+00 -0.00000000000E+00 -0.28149293130E+03  0.28149293130E+03  0.00000000000E+00 0. -1.
         25    2    1    2    0    0  0.44401189891E+02  0.16028085192E+02 -0.13183240097E+03  0.18776621213E+03  0.12509197934E+03 0.  0.
          5    1    3    3  502    0 -0.36803738648E+02  0.24511494530E+02 -0.78376566400E+02  0.90087108419E+02  0.41800000000E+01 0. -1.
         -5    1    3    3    0  502  0.81204928539E+02 -0.84834093379E+01 -0.53455834569E+02  0.97679103715E+02  0.41800000000E+01 0. -1.
        -11    1    1    2    0    0 -0.90762659822E+01 -0.36549511037E+02 -0.14090313993E+01  0.37685948717E+02  0.00000000000E+00 0.  1.
         11    1    1    2    0    0 -0.35324923909E+02  0.20521425845E+02 -0.98061351710E+02  0.10623091766E+03  0.00000000000E+00 0. -1.
</event>
<event>
 7    1  0.2856214E-009  0.1137276E+03  0.7561462E-02  0.1253819E+00
         -2   -1    0    0    0  501 -0.00000000000E+00  0.00000000000E+00  0.28334462448E+02  0.28334462448E+02  0.00000000000E+00 0. -1.
          2   -1    0    0  501    0  0.00000000000E+00 -0.00000000000E+00 -0.48936744875E+03  0.48936744875E+03  0.00000000000E+00 0.  1.
         25    2    1    2    0    0 -0.21528366594E+01  0.44180962718E+02 -0.24082612864E+03  0.27495579833E+03  0.12508746791E+03 0.  0.
          5    1    3    3  502    0  0.11736801270E+02  0.83274378229E+02 -0.19811319830E+03  0.21526422442E+03  0.41800000000E+01 0. -1.
         -5    1    3    3    0  502 -0.13889637929E+02 -0.39093415511E+02 -0.42712930340E+02  0.59691573914E+02  0.41800000000E+01 0. -1.
        -11    1    1    2    0    0 -0.40817010042E+02 -0.41946947603E+02 -0.11379852567E+03  0.12796749262E+03  0.00000000000E+00 0. -1.
         11    1    1    2    0    0  0.42969846702E+02 -0.22340151148E+01 -0.10640833200E+03  0.11477862025E+03  0.00000000000E+00 0.  1.
</event>
<event>
 7    1  0.2856214E-009  0.1470181E+03  0.7561462E-02  0.1204186E+00
         -3   -1    0    0    0  501 -0.00000000000E+00  0.00000000000E+00  0.87676639431E+02  0.87676639431E+02  0.00000000000E+00 0.  1.
          3   -1    0    0  501    0  0.00000000000E+00 -0.00000000000E+00 -0.59886467134E+03  0.59886467134E+03  0.00000000000E+00 0. -1.
         25    2    1    2    0    0  0.71392422733E+02 -0.10071651715E+03 -0.50334933876E+03  0.53314883314E+03  0.12508567702E+03 0.  0.
          5    1    3    3  502    0  0.35141243321E+02  0.22512053248E+02 -0.18789791209E+03  0.19252219948E+03  0.41800000000E+01 0. -1.
         -5    1    3    3    0  502  0.36251179413E+02 -0.12322857040E+03 -0.31545142667E+03  0.34062663366E+03  0.41800000000E+01 0. -1.
        -11    1    1    2    0    0 -0.12992043546E+02  0.14849594655E+02 -0.40066937860E+02  0.44661652079E+02  0.00000000000E+00 0. -1.
         11    1    1    2    0    0 -0.58400379187E+02  0.85866922498E+02  0.32228244711E+02  0.10873082555E+03  0.00000000000E+00 0.  1.
</event>
<event>
 7    1  0.2856214E-009  0.1114271E+03  0.7561462E-02  0.1257950E+00
          2   -1    0    0  501    0  0.00000000000E+00  0.00000000000E+00  0.71745734742E+03  0.71745734742E+03  0.00000000000E+00 0. -1.
         -2   -1    0    0    0  501 -0.00000000000E+00 -0.00000000000E+00 -0.21668185095E+02  0.21668185095E+02  0.00000000000E+00 0.  1.
         25    2    1    2    0    0  0.81487343722E+01  0.26441178877E+02  0.55131186389E+03  0.56600194373E+03  0.12509153140E+03 0.  0.
          5    1    3    3  502    0  0.64877928955E+02  0.34174370046E+00  0.25547148884E+03  0.26361414314E+03  0.41800000000E+01 0. -1.
         -5    1    3    3    0  502 -0.56729194583E+02  0.26099435177E+02  0.29584037505E+03  0.30238780059E+03  0.41800000000E+01 0. -1.
        -11    1    1    2    0    0  0.33639236651E+02 -0.39113093617E+02  0.82693659999E+02  0.97466269749E+02  0.00000000000E+00 0. -1.
         11    1    1    2    0    0 -0.41787971023E+02  0.12671914739E+02  0.61783638435E+02  0.75657319035E+02  0.00000000000E+00 0.  1.
</event>
<event>
 7    1  0.2856214E-009  0.1963620E+03  0.7561462E-02  0.1152845E+00
         -2   -1    0    0    0  501 -0.00000000000E+00  0.00000000000E+00  0.46384639234E+02  0.46384639234E+02  0.00000000000E+00 0.  1.
          2   -1    0    0  501    0  0.00000000000E+00 -0.00000000000E+00 -0.10582065406E+04  0.10582065406E+04  0.00000000000E+00 0. -1.
         25    2    1    2    0    0 -0.14726771824E+03  0.11207506046E+03 -0.65885956294E+03  0.69569567347E+03  0.12509175188E+03 0.  0.
          5    1    3    3  502    0 -0.54129383945E+02  0.29595429521E+02 -0.68182031648E+02  0.92044236617E+02  0.41800000000E+01 0.  1.
         -5    1    3    3    0  502 -0.93138334297E+02  0.82479630937E+02 -0.59067753130E+03  0.60365143685E+03  0.41800000000E+01 0.  1.
        -11    1    1    2    0    0  0.21973487676E+02 -0.71362233227E+02 -0.12509720432E+03  0.14568703793E+03  0.00000000000E+00 0.  1.
         11    1    1    2    0    0  0.12529423057E+03 -0.40712827231E+02 -0.22786513406E+03  0.26320846839E+03  0.00000000000E+00 0. -1.
</event>
<event>
 7    1  0.2856214E-009  0.1136197E+03  0.7561462E-02  0.1254010E+00
         -1   -1    0    0    0  501 -0.00000000000E+00  0.00000000000E+00  0.14666320420E+03  0.14666320420E+03  0.00000000000E+00 0.  1.
          1   -1    0    0  501    0  0.00000000000E+00 -0.00000000000E+00 -0.98092496028E+02  0.98092496028E+02  0.00000000000E+00 0. -1.
         25    2    1    2    0    0 -0.12191268457E+02 -0.48513749611E+02  0.53613728799E+01  0.13482886359E+03  0.12509143540E+03 0.  0.
          5    1    3    3  502    0 -0.64101012645E+02 -0.12249573492E+01  0.55067082535E+01  0.64484390192E+02  0.41800000000E+01 0. -1.
         -5    1    3    3    0  502  0.51909744188E+02 -0.47288792261E+02 -0.14533537365E+00  0.70344473398E+02  0.41800000000E+01 0. -1.
        -11    1    1    2    0    0 -0.33366960792E+02  0.20077958614E+02  0.40454492067E+02  0.56151976127E+02  0.00000000000E+00 0. -1.
         11    1    1    2    0    0  0.45558229249E+02  0.28435790996E+02  0.27548432254E+01  0.53774860512E+02  0.00000000000E+00 0.  1.
</event>
<event>
 7    1  0.2856214E-009  0.1156963E+03  0.7561462E-02  0.1250371E+00
         -1   -1    0    0    0  501 -0.00000000000E+00  0.00000000000E+00  0.31302683211E+02  0.31302683211E+02  0.00000000000E+00 0.  1.
          1   -1    0    0  501    0  0.00000000000E+00 -0.00000000000E+00 -0.57557040264E+03  0.57557040264E+03  0.00000000000E+00 0. -1.
         25    2    1    2    0    0 -0.58633548692E+02 -0.54109128230E+01 -0.18461613797E+03  0.23064684570E+03  0.12509067920E+03 0.  0.
          5    1    3    3  502    0  0.30711338589E+02 -0.13705286137E+02 -0.11809291691E+02  0.35888061473E+02  0.41800000000E+01 0. -1.
         -5    1    3    3    0  502 -0.89344887281E+02  0.82943733140E+01 -0.17280684628E+03  0.19475878423E+03  0.41800000000E+01 0. -1.
        -11    1    1    2    0    0  0.72628890879E+02  0.30638673040E+02 -0.29645438554E+03  0.30675541851E+03  0.00000000000E+00 0. -1.
         11    1    1    2    0    0 -0.13995342187E+02 -0.25227760217E+02 -0.63197195913E+02  0.69470821643E+02  0.00000000000E+00 0.  1.
</event>
<event>
 7    1  0.2856214E-009  0.1628152E+03  0.7561462E-02  0.1185555E+00
         -1   -1    0    0    0  501 -0.00000000000E+00  0.00000000000E+00  0.11221872933E+03  0.11221872933E+03  0.00000000000E+00 0.  1.
          1   -1    0    0  501    0  0.00000000000E+00 -0.00000000000E+00 -0.26437112170E+03  0.26437112170E+03  0.00000000000E+00 0. -1.
         25    2    1    2    0    0  0.79460156357E+02 -0.10095675115E+03 -0.41261947823E+02  0.18400835115E+03  0.12510133055E+03 0.  0.
          5    1    3    3  502    0 -0.25719288553E+02  0.26892270269E+01  0.94104336778E+01  0.27834194935E+02  0.41800000000E+01 0. -1.
         -5    1    3    3    0  502  0.10517944491E+03 -0.10364597818E+03 -0.50672381501E+02  0.15617415622E+03  0.41800000000E+01 0. -1.
        -11    1    1    2    0    0 -0.32613136995E+02  0.99643384510E+02 -0.51162973199E+02  0.11666220728E+03  0.00000000000E+00 0.  1.
         11    1    1    2    0    0 -0.46847019361E+02  0.13133666415E+01 -0.59727471351E+02  0.75919292601E+02  0.00000000000E+00 0. -1.
</event>
<event>
 7    1  0.2856214E-009  0.8924819E+02  0.7561462E-02  0.1304683E+00
         -1   -1    0    0    0  501 -0.00000000000E+00  0.00000000000E+00  0.47810217326E+02  0.47810217326E+02  0.00000000000E+00 0.  1.
          1   -1    0    0  501    0  0.00000000000E+00 -0.00000000000E+00 -0.29430613807E+03  0.29430613807E+03  0.00000000000E+00 0. -1.
         25    2    1    2    0    0 -0.17846541753E+02 -0.42635222599E+02 -0.15666412765E+03  0.20573661683E+03  0.12509054861E+03 0.  0.
          5    1    3    3  502    0 -0.42391376625E+02 -0.46335976833E+02 -0.16704429637E+03  0.17850860178E+03  0.41800000000E+01 0. -1.
         -5    1    3    3    0  502  0.24544834872E+02  0.37007542345E+01  0.10380168712E+02  0.27228015045E+02  0.41800000000E+01 0. -1.
        -11    1    1    2    0    0  0.34378133788E+02  0.58253682595E+02 -0.33195504626E+02  0.75347787930E+02  0.00000000000E+00 0.  1.
         11    1    1    2    0    0 -0.16531592035E+02 -0.15618459996E+02 -0.56636288461E+02  0.61031950636E+02  0.00000000000E+00 0. -1.
</event>
<event>
 7    1  0.2856214E-009  0.1193128E+03  0.7561462E-02  0.1244235E+00
          2   -1    0    0  501    0  0.00000000000E+00  0.00000000000E+00  0.31129863996E+03  0.31129863996E+03  0.00000000000E+00 0. -1.
         -2   -1    0    0    0  501 -0.00000000000E+00 -0.00000000000E+00 -0.52405273502E+02  0.52405273502E+02  0.00000000000E+00 0.  1.
         25    2    1    2    0    0 -0.48451760725E+02  0.46817673650E+02  0.16018655361E+03  0.21412034542E+03  0.12509325594E+03 0.  0.
          5    1    3    3  502    0 -0.29794831195E+02  0.81760622492E+02  0.14924657784E+03  0.17281361276E+03  0.41800000000E+01 0. -1.
         -5    1    3    3    0  502 -0.18656929531E+02 -0.34942948842E+02  0.10939975765E+02  0.41306732660E+02  0.41800000000E+01 0. -1.
        -11    1    1    2    0    0 -0.13056450809E+02  0.18052099078E+02  0.13291698707E+02  0.25942599010E+02  0.00000000000E+00 0. -1.
         11    1    1    2    0    0  0.61508211535E+02 -0.64869772728E+02  0.85415114142E+02  0.12364096904E+03  0.00000000000E+00 0.  1.
</event>
<event>
 7    1  0.2856214E-009  0.2556361E+03  0.7561462E-02  0.1109794E+00
          2   -1    0    0  501    0  0.00000000000E+00  0.00000000000E+00  0.13568443469E+04  0.13568443469E+04  0.00000000000E+00 0. -1.
         -2   -1    0    0    0  501 -0.00000000000E+00 -0.00000000000E+00 -0.58809922581E+02  0.58809922581E+02  0.00000000000E+00 0.  1.
         25    2    1    2    0    0  0.14381821867E+03 -0.19494746977E+03  0.90386661744E+03  0.94409239786E+03  0.12508955826E+03 0.  0.
          5    1    3    3  502    0  0.11593305020E+03 -0.20591008517E+03  0.72120329403E+03  0.75894077439E+03  0.41800000000E+01 0. -1.
         -5    1    3    3    0  502  0.27885168466E+02  0.10962615402E+02  0.18266332340E+03  0.18515162347E+03  0.41800000000E+01 0. -1.
        -11    1    1    2    0    0 -0.86826928331E+02  0.14443467631E+03  0.19168838865E+03  0.25523465585E+03  0.00000000000E+00 0.  1.
         11    1    1    2    0    0 -0.56991290334E+02  0.50512793461E+02  0.20247941824E+03  0.21632721578E+03  0.00000000000E+00 0. -1.
</event>
<event>
 7    1  0.2856214E-009  0.8836533E+02  0.7561462E-02  0.1306859E+00
         -1   -1    0    0    0  501 -0.00000000000E+00  0.00000000000E+00  0.16404393888E+03  0.16404393888E+03  0.00000000000E+00 0.  1.
          1   -1    0    0  501    0  0.00000000000E+00 -0.00000000000E+00 -0.10852611189E+03  0.10852611189E+03  0.00000000000E+00 0. -1.
         25    2    1    2    0    0 -0.67681270135E+02 -0.37255973854E+02  0.34488890899E+02  0.15101818236E+03  0.12509294901E+03 0.  0.
          5    1    3    3  502    0 -0.30992717944E+02  0.90122637500E+01 -0.42734055251E+02  0.53716304245E+02  0.41800000000E+01 0.  1.
         -5    1    3    3    0  502 -0.36688552191E+02 -0.46268237604E+02  0.77222946150E+02  0.97301878116E+02  0.41800000000E+01 0.  1.
        -11    1    1    2    0    0  0.17324503345E+02  0.29254218973E+02  0.51827046857E+02  0.61983792477E+02  0.00000000000E+00 0.  1.
         11    1    1    2    0    0  0.50356766791E+02  0.80017548808E+01 -0.30798110764E+02  0.59568075925E+02  0.00000000000E+00 0. -1.
</event>
<event>
 7    1  0.4124295E-009  0.1156926E+03  0.7561462E-02  0.1250377E+00
         -2   -1    0    0    0  501 -0.00000000000E+00  0.00000000000E+00  0.13652737235E+02  0.13652737235E+02  0.00000000000E+00 0.  1.
          2   -1    0    0  501    0  0.00000000000E+00 -0.00000000000E+00 -0.10908523748E+04  0.10908523748E+04  0.00000000000E+00 0. -1.
         25    2    1    2    0    0 -0.11414445176E+02 -0.41070868879E+02 -0.77245115308E+03  0.78367410837E+03  0.12508884201E+03 0.  0.
          5    1    3    3  502    0 -0.25187433699E+02  0.41283246739E+02 -0.27919482011E+03  0.28338301511E+03  0.41800000000E+01 0. -1.
         -5    1    3    3    0  502  0.13772988523E+02 -0.82354115618E+02 -0.49325633297E+03  0.50029109326E+03  0.41800000000E+01 0. -1.
        -11    1    1    2    0    0 -0.19035472399E+02 -0.22068509185E+02 -0.11206778546E+03  0.11579532307E+03  0.00000000000E+00 0.  1.
         11    1    1    2    0    0  0.30449917575E+02  0.63139378065E+02 -0.19268069904E+03  0.20503568062E+03  0.00000000000E+00 0. -1.
</event>
<event>
 7    1  0.2856214E-009  0.8553799E+02  0.7561462E-02  0.1314032E+00
          2   -1    0    0  501    0  0.00000000000E+00  0.00000000000E+00  0.72457142278E+03  0.72457142278E+03  0.00000000000E+00 0. -1.
         -2   -1    0    0    0  501 -0.00000000000E+00 -0.00000000000E+00 -0.17748920309E+02  0.17748920309E+02  0.00000000000E+00 0.  1.
         25    2    1    2    0    0 -0.27346564998E+02  0.92825618942E+01  0.33341869266E+03  0.35728170748E+03  0.12509273884E+03 0.  0.
          5    1    3    3  502    0 -0.51443224948E+02 -0.78933682891E+01  0.32049744492E+03  0.32472264359E+03  0.41800000000E+01 0.  1.
         -5    1    3    3    0  502  0.24096659950E+02  0.17175930183E+02  0.12921247735E+02  0.32559063891E+02  0.41800000000E+01 0.  1.
        -11    1    1    2    0    0  0.44761774975E+02  0.24457931348E+02  0.15011244012E+03  0.15854195528E+03  0.00000000000E+00 0.  1.
         11    1    1    2    0    0 -0.17415209977E+02 -0.33740493242E+02  0.22329136969E+03  0.22649668033E+03  0.00000000000E+00 0. -1.
</event>
<event>
 7    1  0.2856214E-009  0.1046656E+03  0.7561462E-02  0.1270780E+00
          1   -1    0    0  501    0  0.00000000000E+00  0.00000000000E+00  0.34566861738E+03  0.34566861738E+03  0.00000000000E+00 0. -1.
         -1   -1    0    0    0  501 -0.00000000000E+00 -0.00000000000E+00 -0.50874172522E+02  0.50874172522E+02  0.00000000000E+00 0.  1.
         25    2    1    2    0    0  0.38273151640E+02 -0.39283132671E+02  0.21942222494E+03  0.25846020627E+03  0.12509023456E+03 0.  0.
          5    1    3    3  502    0  0.24531073714E+02  0.23504788467E+02  0.50255492628E+01  0.34597358336E+02  0.41800000000E+01 0. -1.
         -5    1    3    3    0  502  0.13742077926E+02 -0.62787921138E+02  0.21439667567E+03  0.22386284794E+03  0.41800000000E+01 0. -1.
        -11    1    1    2    0    0  0.71324090553E+01  0.60255208715E+02  0.61012661064E+02  0.86047116433E+02  0.00000000000E+00 0. -1.
         11    1    1    2    0    0 -0.45405560695E+02 -0.20972076044E+02  0.14359558856E+02  0.52035467195E+02  0.00000000000E+00 0.  1.
</event>
<event>
 7    1  0.2856214E-009  0.9510182E+02  0.7561462E-02  0.1290947E+00
         -1   -1    0    0    0  501 -0.00000000000E+00  0.00000000000E+00  0.15922871108E+03  0.15922871108E+03  0.00000000000E+00 0.  1.
          1   -1    0    0  501    0  0.00000000000E+00 -0.00000000000E+00 -0.94758828415E+02  0.94758828415E+02  0.00000000000E+00 0. -1.
         25    2    1    2    0    0  0.20703263691E+02 -0.44737196709E+02  0.76746173700E+02  0.15481669453E+03  0.12509273293E+03 0.  0.
          5    1    3    3  502    0  0.45207975362E+02 -0.53745935797E+01 -0.18092417033E+02  0.49167623967E+02  0.41800000000E+01 0. -1.
         -5    1    3    3    0  502 -0.24504711671E+02 -0.39362603129E+02  0.94838590733E+02  0.10564907057E+03  0.41800000000E+01 0. -1.
        -11    1    1    2    0    0  0.31936956801E+02  0.58107278919E+01  0.50571418239E+00  0.32465204684E+02  0.00000000000E+00 0. -1.
         11    1    1    2    0    0 -0.52640220492E+02  0.38926468817E+02 -0.12782005216E+02  0.66705640281E+02  0.00000000000E+00 0.  1.
</event>
<event>
 7    1  0.2856214E-009  0.1015635E+03  0.7561462E-02  0.1277042E+00
          2   -1    0    0  501    0  0.00000000000E+00  0.00000000000E+00  0.47279762607E+03  0.47279762607E+03  0.00000000000E+00 0. -1.
         -2   -1    0    0    0  501 -0.00000000000E+00 -0.00000000000E+00 -0.11997852612E+03  0.11997852612E+03  0.00000000000E+00 0.  1.
         25    2    1    2    0    0  0.95479100325E+02  0.39400269540E+00  0.41672443247E+03  0.44544695751E+03  0.12508927012E+03 0.  0.
          5    1    3    3  502    0  0.79339777833E+02 -0.10118641650E+02  0.10004527277E+03  0.12815504773E+03  0.41800000000E+01 0.  1.
         -5    1    3    3    0  502  0.16139322493E+02  0.10512644346E+02  0.31667915970E+03  0.31729190978E+03  0.41800000000E+01 0.  1.
        -11    1    1    2    0    0 -0.20521290606E+02  0.16683421151E+02 -0.65284684354E+02  0.70438270284E+02  0.00000000000E+00 0.  1.
         11    1    1    2    0    0 -0.74957809719E+02 -0.17077423846E+02  0.13793518406E+01  0.76890924397E+02  0.00000000000E+00 0. -1.
</event>
<event>
 7    1  0.2856214E-009  0.7874574E+02  0.7561462E-02  0.1332649E+00
          2   -1    0    0  501    0  0.00000000000E+00  0.00000000000E+00  0.42060570926E+03  0.42060570926E+03  0.00000000000E+00 0. -1.
         -2   -1    0    0    0  501 -0.00000000000E+00 -0.00000000000E+00 -0.31674368154E+02  0.31674368154E+02  0.00000000000E+00 0.  1.
         25    2    1    2    0    0  0.14097747469E+02 -0.27650963289E+02  0.27084112036E+03  0.29994283201E+03  0.12508983867E+03 0.  0.
          5    1    3    3  502    0  0.55539290537E+02 -0.30537382664E+02  0.68820775550E+02  0.93653169090E+02  0.41800000000E+01 0. -1.
         -5    1    3    3    0  502 -0.41441543068E+02  0.28864193750E+01  0.20202034481E+03  0.20628966292E+03  0.41800000000E+01 0. -1.
        -11    1    1    2    0    0  0.13936646995E+02  0.17370688867E+01 -0.10924235621E+02  0.17792876712E+02  0.00000000000E+00 0.  1.
         11    1    1    2    0    0 -0.28034394464E+02  0.25913894402E+02  0.12901445636E+03  0.13454436869E+03  0.00000000000E+00 0. -1.
</event>
<event>
 7    1  0.2856214E-009  0.1249676E+03  0.7561462E-02  0.1235120E+00
         -2   -1    0    0    0  501 -0.00000000000E+00  0.00000000000E+00  0.15227418863E+02  0.15227418863E+02  0.00000000000E+00 0. -1.
          2   -1    0    0  501    0  0.00000000000E+00 -0.00000000000E+00 -0.12993846831E+04  0.12993846831E+04  0.00000000000E+00 0.  1.
         25    2    1    2    0    0  0.75637288167E+02  0.14867694257E+02 -0.88956156951E+03  0.90161444071E+03  0.12508703388E+03 0.  0.
          5    1    3    3  502    0  0.10876497272E+03 -0.18863727783E+01 -0.69890110534E+03  0.70732849874E+03  0.41800000000E+01 0. -1.
         -5    1    3    3    0  502 -0.33127684549E+02  0.16754067036E+02 -0.19066046418E+03  0.19428594197E+03  0.41800000000E+01 0. -1.
        -11    1    1    2    0    0  0.65016161297E+01  0.14973454435E+02 -0.11270666939E+02  0.19836917182E+02  0.00000000000E+00 0. -1.
         11    1    1    2    0    0 -0.82138904297E+02 -0.29841148692E+02 -0.38332502778E+03  0.39316074406E+03  0.00000000000E+00 0.  1.
</event>
<event>
 7    1  0.2856214E-009  0.9763760E+02  0.7561462E-02  0.1285344E+00
          1   -1    0    0  501    0  0.00000000000E+00  0.00000000000E+00  0.67267362652E+02  0.67267362652E+02  0.00000000000E+00 0. -1.
         -1   -1    0    0    0  501 -0.00000000000E+00 -0.00000000000E+00 -0.20721342673E+03  0.20721342673E+03  0.00000000000E+00 0.  1.
         25    2    1    2    0    0  0.33876803855E+02 -0.23779625945E+02 -0.54518065366E+02  0.14259164839E+03  0.12508817006E+03 0.  0.
          5    1    3    3  502    0  0.17050149769E+02 -0.65078204191E+02  0.55841111792E+01  0.67635308571E+02  0.41800000000E+01 0.  1.
         -5    1    3    3    0  502  0.16826654086E+02  0.41298578246E+02 -0.60102176545E+02  0.74956339814E+02  0.41800000000E+01 0.  1.
        -11    1    1    2    0    0 -0.85911950467E+01  0.47583634607E+02 -0.10753119316E+02  0.49534235533E+02  0.00000000000E+00 0. -1.
         11    1    1    2    0    0 -0.25285608808E+02 -0.23804008663E+02 -0.74674879393E+02  0.82354905462E+02  0.00000000000E+00 0.  1.
</event>
<event>
 7    1  0.2856214E-009  0.1884078E+03  0.7561462E-02  0.1159905E+00
         -3   -1    0    0    0  501 -0.00000000000E+00  0.00000000000E+00  0.94263801376E+02  0.94263801376E+02  0.00000000000E+00 0.  1.
          3   -1    0    0  501    0  0.00000000000E+00 -0.00000000000E+00 -0.46474560059E+03  0.46474560059E+03  0.00000000000E+00 0. -1.
         25    2    1    2    0    0 -0.42107484072E+02 -0.15411062624E+03 -0.29928303389E+03  0.36158094022E+03  0.12508923463E+03 0.  0.
          5    1    3    3  502    0  0.20756759546E+02 -0.13558956225E+03 -0.20337049551E+03  0.24534140153E+03  0.41800000000E+01 0.  1.
         -5    1    3    3    0  502 -0.62864243619E+02 -0.18521063984E+02 -0.95912538383E+02  0.11623953869E+03  0.41800000000E+01 0.  1.
        -11    1    1    2    0    0  0.36794707135E+01  0.12659984163E+03 -0.20822254343E+02  0.12835351449E+03  0.00000000000E+00 0.  1.
         11    1    1    2    0    0  0.38428013359E+02  0.27510784610E+02 -0.50376510980E+02  0.69074947261E+02  0.00000000000E+00 0. -1.
</event>
<event>
 7    1  0.2856214E-009  0.8670305E+02  0.7561462E-02  0.1311038E+00
          2   -1    0    0  501    0  0.00000000000E+00  0.00000000000E+00  0.34177953988E+02  0.34177953988E+02  0.00000000000E+00 0.  1.
         -2   -1    0    0    0  501 -0.00000000000E+00 -0.00000000000E+00 -0.34157353417E+03  0.34157353417E+03  0.00000000000E+00 0. -1.
         25    2    1    2    0    0 -0.17810950851E+01 -0.20579539138E+01 -0.16401861729E+03  0.20629908351E+03  0.12509915093E+03 0.  0.
          5    1    3    3  502    0 -0.39265494977E+02 -0.21580881927E+02 -0.94228497058E+01  0.45975820352E+02  0.41800000000E+01 0. -1.
         -5    1    3    3    0  502  0.37484399891E+02  0.19522928013E+02 -0.15459576758E+03  0.16032326315E+03  0.41800000000E+01 0. -1.
        -11    1    1    2    0    0  0.35577226835E+02  0.26386480910E+02 -0.47635955519E+02  0.65047441935E+02  0.00000000000E+00 0.  1.
         11    1    1    2    0    0 -0.33796131750E+02 -0.24328526996E+02 -0.95741007376E+02  0.10440496272E+03  0.00000000000E+00 0. -1.
</event>
<event>
 7    1  0.2856214E-009  0.1138794E+03  0.7561462E-02  0.1253550E+00
         -2   -1    0    0    0  501 -0.00000000000E+00  0.00000000000E+00  0.32578522431E+02  0.32578522431E+02  0.00000000000E+00 0.  1.
          2   -1    0    0  501    0  0.00000000000E+00 -0.00000000000E+00 -0.61872337018E+03  0.61872337018E+03  0.00000000000E+00 0. -1.
         25    2    1    2    0    0 -0.23246807542E+02  0.88010745050E+02 -0.30242555238E+03  0.33970024073E+03  0.12509489803E+03 0.  0.
          5    1    3    3  502    0  0.24485921488E+02  0.67796643153E+02 -0.26745754081E+03  0.27703240552E+03  0.41800000000E+01 0.  1.
         -5    1    3    3    0  502 -0.47732729031E+02  0.20214101898E+02 -0.34968011574E+02  0.62667835208E+02  0.41800000000E+01 0.  1.
        -11    1    1    2    0    0 -0.12503168791E+02 -0.49283179579E+02 -0.47521705724E+02  0.69595068318E+02  0.00000000000E+00 0.  1.
         11    1    1    2    0    0  0.35749976333E+02 -0.38727565471E+02 -0.23619758964E+03  0.24200658356E+03  0.00000000000E+00 0. -1.
</event>
<event>
 7    1  0.2856214E-009  0.1044787E+03  0.7561462E-02  0.1271150E+00
          3   -1    0    0  501    0  0.00000000000E+00  0.00000000000E+00  0.13532627301E+03  0.13532627301E+03  0.00000000000E+00 0. -1.
         -3   -1    0    0    0  501 -0.00000000000E+00 -0.00000000000E+00 -0.11908885961E+03  0.11908885961E+03  0.00000000000E+00 0.  1.
         25    2    1    2    0    0 -0.43374082095E+02  0.36116459012E+02  0.48811751788E+02  0.14565944200E+03  0.12509347034E+03 0.  0.
          5    1    3    3  502    0  0.37676883471E+02  0.40661167119E+02  0.25031096557E+02  0.60966435475E+02  0.41800000000E+01 0.  1.
         -5    1    3    3    0  502 -0.81050965566E+02 -0.45447081078E+01  0.23780655231E+02  0.84693006525E+02  0.41800000000E+01 0.  1.
        -11    1    1    2    0    0 -0.68506014388E+01 -0.17022051484E+02  0.24342115610E+02  0.30483103010E+02  0.00000000000E+00 0. -1.
         11    1    1    2    0    0  0.50224683534E+02 -0.19094407528E+02 -0.56916453997E+02  0.78272587606E+02  0.00000000000E+00 0.  1.
</event>
<event>
 7    1  0.2856214E-009  0.1193423E+03  0.7561462E-02  0.1244186E+00
         -2   -1    0    0    0  501 -0.00000000000E+00  0.00000000000E+00  0.15065860209E+02  0.15065860209E+02  0.00000000000E+00 0. -1.
          2   -1    0    0  501    0  0.00000000000E+00 -0.00000000000E+00 -0.13406779730E+04  0.13406779730E+04  0.00000000000E+00 0.  1.
         25    2    1    2    0    0 -0.64984513962E+02  0.24598133892E+02 -0.89841087196E+03  0.90973523092E+03  0.12509212714E+03 0.  0.
          5    1    3    3  502    0  0.32786723999E+01  0.47464390436E+02 -0.62994624951E+03  0.63175419882E+03  0.41800000000E+01 0. -1.
         -5    1    3    3    0  502 -0.68263186362E+02 -0.22866256544E+02 -0.26846462245E+03  0.27798103210E+03  0.41800000000E+01 0. -1.
        -11    1    1    2    0    0  0.30292057144E+02 -0.61258011037E+02 -0.15844923790E+03  0.17255814566E+03  0.00000000000E+00 0. -1.
         11    1    1    2    0    0  0.34692456818E+02  0.36659877145E+02 -0.26875200294E+03  0.27345045664E+03  0.00000000000E+00 0.  1.
</event>
<event>
 7    1  0.2856214E-009  0.8374058E+02  0.7561462E-02  0.1318759E+00
          2   -1    0    0  501    0  0.00000000000E+00  0.00000000000E+00  0.75286197482E+03  0.75286197482E+03  0.00000000000E+00 0. -1.
         -2   -1    0    0    0  501 -0.00000000000E+00 -0.00000000000E+00 -0.27201333419E+02  0.27201333419E+02  0.00000000000E+00 0.  1.
         25    2    1    2    0    0 -0.17491400499E+02  0.33791629273E+02  0.62597011123E+03  0.63947925548E+03  0.12508922710E+03 0.  0.
          5    1    3    3  502    0  0.18465873686E+02  0.24587025155E+02  0.57727643770E+03  0.57810991016E+03  0.41800000000E+01 0. -1.
         -5    1    3    3    0  502 -0.35957274185E+02  0.92046041180E+01  0.48693673528E+02  0.61369345323E+02  0.41800000000E+01 0. -1.
        -11    1    1    2    0    0  0.71682921907E+01  0.31851404028E+02  0.31319398840E+02  0.45241585905E+02  0.00000000000E+00 0.  1.
         11    1    1    2    0    0  0.10323108308E+02 -0.65643033301E+02  0.68371131328E+02  0.95342466851E+02  0.00000000000E+00 0. -1.
</event>
<event>
 7    1  0.2856214E-009  0.7516140E+02  0.7561462E-02  0.1343372E+00
          4   -1    0    0  501    0  0.00000000000E+00  0.00000000000E+00  0.37291998014E+03  0.37291998014E+03  0.00000000000E+00 0. -1.
         -4   -1    0    0    0  501 -0.00000000000E+00 -0.00000000000E+00 -0.35380271778E+02  0.35380271778E+02  0.00000000000E+00 0.  1.
         25    2    1    2    0    0 -0.14625492617E+02  0.10017773574E+02  0.26568475452E+03  0.29419342752E+03  0.12508846146E+03 0.  0.
          5    1    3    3  502    0 -0.11067754079E+02  0.36101123320E+02  0.13068995689E+02  0.40175332402E+02  0.41800000000E+01 0.  1.
         -5    1    3    3    0  502 -0.35577385386E+01 -0.26083349746E+02  0.25261575883E+03  0.25401809512E+03  0.41800000000E+01 0.  1.
        -11    1    1    2    0    0 -0.13876895912E+02 -0.41174930564E+02  0.51033606069E+02  0.67025160167E+02  0.00000000000E+00 0. -1.
         11    1    1    2    0    0  0.28502388529E+02  0.31157156990E+02  0.20821347773E+02  0.47081664230E+02  0.00000000000E+00 0.  1.
</event>
<event>
 7    1  0.2856214E-009  0.2150624E+03  0.7561462E-02  0.1137619E+00
          2   -1    0    0  501    0  0.00000000000E+00  0.00000000000E+00  0.10295417495E+04  0.10295417495E+04  0.00000000000E+00 0. -1.
         -2   -1    0    0    0  501 -0.00000000000E+00 -0.00000000000E+00 -0.51288147423E+02  0.51288147423E+02  0.00000000000E+00 0.  1.
         25    2    1    2    0    0 -0.15118815121E+03 -0.11674613498E+03  0.65785437833E+03  0.69635352449E+03  0.12509328871E+03 0.  0.
          5    1    3    3  502    0 -0.16156831912E+03 -0.72183084694E+02  0.57479412966E+03  0.60143202721E+03  0.41800000000E+01 0. -1.
         -5    1    3    3    0  502  0.10380167912E+02 -0.44563050290E+02  0.83060248671E+02  0.94921497283E+02  0.41800000000E+01 0. -1.
        -11    1    1    2    0    0  0.10734629283E+03  0.12258221651E+03  0.21186162415E+03  0.26727322009E+03  0.00000000000E+00 0.  1.
         11    1    1    2    0    0  0.43841858376E+02 -0.58360815303E+01  0.10853759965E+03  0.11720315239E+03  0.00000000000E+00 0. -1.
</event>
<event>
 7    1  0.2856214E-009  0.9220150E+02  0.7561462E-02  0.1297606E+00
          2   -1    0    0  501    0  0.00000000000E+00  0.00000000000E+00  0.14894729960E+03  0.14894729960E+03  0.00000000000E+00 0. -1.
         -2   -1    0    0    0  501 -0.00000000000E+00 -0.00000000000E+00 -0.15277497467E+03  0.15277497467E+03  0.00000000000E+00 0.  1.
         25    2    1    2    0    0  0.43071385358E+02  0.73594077645E+01 -0.96007109714E+02  0.16362801380E+03  0.12508979441E+03 0.  0.
          5    1    3    3  502    0 -0.20086509782E+02  0.17496857890E+02 -0.95802593042E+02  0.99524957397E+02  0.41800000000E+01 0.  1.
         -5    1    3    3    0  502  0.63157895140E+02 -0.10137450125E+02 -0.20451667238E+00  0.64103056406E+02  0.41800000000E+01 0.  1.
        -11    1    1    2    0    0 -0.56192588919E+02  0.22648102479E+02  0.85304174862E+02  0.10462956487E+03  0.00000000000E+00 0.  1.
         11    1    1    2    0    0  0.13121203561E+02 -0.30007510244E+02  0.68752597813E+01  0.33464695591E+02  0.00000000000E+00 0. -1.
</event>
<event>
 7    1  0.2856214E-009  0.1130894E+03  0.7561462E-02  0.1254953E+00
          2   -1    0    0  501    0  0.00000000000E+00  0.00000000000E+00  0.35541654596E+03  0.35541654596E+03  0.00000000000E+00 0. -1.
         -2   -1    0    0    0  501 -0.00000000000E+00 -0.00000000000E+00 -0.36040395098E+02  0.36040395098E+02  0.00000000000E+00 0.  1.
         25    2    1    2    0    0 -0.35500800171E+02 -0.38221976703E+01  0.18958317502E+03  0.22992385706E+03  0.12509310048E+03 0.  0.
          5    1    3    3  502    0 -0.82370165745E+02  0.26905297319E+01  0.11678840665E+03  0.14300030588E+03  0.41800000000E+01 0.  1.
         -5    1    3    3    0  502  0.46869365574E+02 -0.65127274022E+01  0.72794768366E+02  0.86923551176E+02  0.41800000000E+01 0.  1.
        -11    1    1    2    0    0  0.30487387054E+02 -0.40977870787E+02  0.69768582356E+02  0.86465725854E+02  0.00000000000E+00 0.  1.
         11    1    1    2    0    0  0.50134131171E+01  0.44800068457E+02  0.60024393488E+02  0.75067358142E+02  0.00000000000E+00 0. -1.
</event>
<event>
 7    1  0.2856214E-009  0.2667740E+03  0.7561462E-02  0.1103140E+00
          2   -1    0    0  501    0  0.00000000000E+00  0.00000000000E+00  0.17907610422E+03  0.17907610422E+03  0.00000000000E+00 0. -1.
         -2   -1    0    0    0  501 -0.00000000000E+00 -0.00000000000E+00 -0.44808587459E+03  0.44808587459E+03  0.00000000000E+00 0.  1.
         25    2    1    2    0    0  0.41192631242E+02 -0.24697444137E+03 -0.22161128472E+03  0.35700426168E+03  0.12508906343E+03 0.  0.
          5    1    3    3  502    0 -0.16040095887E+02 -0.18056662098E+03 -0.10013087966E+03  0.20713583647E+03  0.41800000000E+01 0.  1.
         -5    1    3    3    0  502  0.57232727129E+02 -0.66407820384E+02 -0.12148040506E+03  0.14986842521E+03  0.41800000000E+01 0.  1.
        -11    1    1    2    0    0  0.10017987917E+02  0.17934321840E+03 -0.45536921133E+02  0.18530504919E+03  0.00000000000E+00 0. -1.
         11    1    1    2    0    0 -0.51210619159E+02  0.67631222970E+02 -0.18615645232E+01  0.84852667946E+02  0.00000000000E+00 0.  1.
</event>
<event>
 7    1  0.2856214E-009  0.9382797E+02  0.7561462E-02  0.1293838E+00
          1   -1    0    0  501    0  0.00000000000E+00  0.00000000000E+00  0.16066450637E+03  0.16066450637E+03  0.00000000000E+00 0. -1.
         -1   -1    0    0    0  501 -0.00000000000E+00 -0.00000000000E+00 -0.22209468365E+03  0.22209468365E+03  0.00000000000E+00 0.  1.
         25    2    1    2    0    0 -0.49865464071E+02 -0.22372196610E+01 -0.17992573807E+03  0.22474292933E+03  0.12507814919E+03 0.  0.
          5    1    3    3  502    0 -0.33902665551E+02  0.43602862920E+02 -0.22215838821E+02  0.59679278487E+02  0.41800000000E+01 0.  1.
         -5    1    3    3    0  502 -0.15962798520E+02 -0.45840082581E+02 -0.15770989925E+03  0.16506365084E+03  0.41800000000E+01 0.  1.
        -11    1    1    2    0    0  0.65138168799E+02 -0.72910790572E+01  0.12307621973E+03  0.13944137382E+03  0.00000000000E+00 0. -1.
         11    1    1    2    0    0 -0.15272704727E+02  0.95282987181E+01 -0.45806589427E+01  0.18574886877E+02  0.00000000000E+00 0.  1.
</event>
<event>
 7    1  0.2856214E-009  0.1260873E+03  0.7561462E-02  0.1233380E+00
         -1   -1    0    0    0  501 -0.00000000000E+00  0.00000000000E+00  0.13373450870E+03  0.13373450870E+03  0.00000000000E+00 0.  1.
          1   -1    0    0  501    0  0.00000000000E+00 -0.00000000000E+00 -0.13668777663E+03  0.13668777663E+03  0.00000000000E+00 0. -1.
         25    2    1    2    0    0  0.28376027797E+02 -0.64631599954E+02  0.37511140040E+02  0.14844572704E+03  0.12508639247E+03 0.  0.
          5    1    3    3  502    0  0.71977248530E+02 -0.20281477424E+02  0.42144757461E+02  0.85940186257E+02  0.41800000000E+01 0.  1.
         -5    1    3    3    0  502 -0.43601220733E+02 -0.44350122530E+02 -0.46336174207E+01  0.62505540780E+02  0.41800000000E+01 0.  1.
        -11    1    1    2    0    0  0.23716748018E+02  0.57710446183E+02 -0.19130917169E+02  0.65260797780E+02  0.00000000000E+00 0. -1.
         11    1    1    2    0    0 -0.52092775815E+02  0.69211537709E+01 -0.21333490802E+02  0.56715760520E+02  0.00000000000E+00 0.  1.
</event>
<event>
 7    1  0.2856214E-009  0.1250031E+03  0.7561462E-02  0.1235064E+00
          2   -1    0    0  501    0  0.00000000000E+00  0.00000000000E+00  0.98498893840E+03  0.98498893840E+03  0.00000000000E+00 0. -1.
         -2   -1    0    0    0  501 -0.00000000000E+00 -0.00000000000E+00 -0.17699099902E+02  0.17699099902E+02  0.00000000000E+00 0.  1.
         25    2    1    2    0    0 -0.52285742154E+02  0.27068116057E+02  0.58405707522E+03  0.60019715241E+03  0.12508985934E+03 0.  0.
          5    1    3    3  502    0 -0.24327742396E+02 -0.46097284590E+02  0.33571012507E+03  0.33975808919E+03  0.41800000000E+01 0. -1.
         -5    1    3    3    0  502 -0.27957999758E+02  0.73165400647E+02  0.24834695015E+03  0.26043906322E+03  0.41800000000E+01 0. -1.
        -11    1    1    2    0    0  0.52144014866E+02 -0.63884077619E+02  0.30624168160E+03  0.31715002950E+03  0.00000000000E+00 0. -1.
         11    1    1    2    0    0  0.14172728814E+00  0.36815961562E+02  0.76991081674E+02  0.85340856392E+02  0.00000000000E+00 0.  1.
</event>
<event>
 7    1  0.2856214E-009  0.8689553E+02  0.7561462E-02  0.1310549E+00
         -3   -1    0    0    0  501 -0.00000000000E+00  0.00000000000E+00  0.22578200379E+03  0.22578200379E+03  0.00000000000E+00 0.  1.
          3   -1    0    0  501    0  0.00000000000E+00 -0.00000000000E+00 -0.98825184636E+02  0.98825184636E+02  0.00000000000E+00 0. -1.
         25    2    1    2    0    0 -0.40248216246E+02 -0.36199403740E+02 -0.22534073057E+02  0.13815219914E+03  0.12509168612E+03 0.  0.
          5    1    3    3  502    0 -0.49321691527E+02 -0.69236193405E+02  0.15805988459E+02  0.86565474662E+02  0.41800000000E+01 0.  1.
         -5    1    3    3    0  502  0.90734752810E+01  0.33036789665E+02 -0.38340061517E+02  0.51586724476E+02  0.41800000000E+01 0.  1.
        -11    1    1    2    0    0  0.21590337180E+02  0.20706394366E+02  0.15795941184E+03  0.16076713973E+03  0.00000000000E+00 0.  1.
         11    1    1    2    0    0  0.18657879066E+02  0.15493009374E+02 -0.84685196241E+01  0.25687849566E+02  0.00000000000E+00 0. -1.
</event>
<event>
 7    1  0.2856214E-009  0.1165560E+03  0.7561462E-02  0.1248889E+00
         -1   -1    0    0    0  501 -0.00000000000E+00  0.00000000000E+00  0.52931204269E+03  0.52931204269E+03  0.00000000000E+00 0.  1.
          1   -1    0    0  501    0  0.00000000000E+00 -0.00000000000E+00 -0.40312023277E+02  0.40312023277E+02  0.00000000000E+00 0. -1.
         25    2    1    2    0    0 -0.26254227209E+02 -0.49531124853E+02  0.11006953614E+03  0.17580005140E+03  0.12509092098E+03 0.  0.
          5    1    3    3  502    0 -0.21240066631E+02  0.40575004654E+02  0.28652703904E+02  0.54184142276E+02  0.41800000000E+01 0. -1.
         -5    1    3    3    0  502 -0.50141605784E+01 -0.90106129507E+02  0.81416832239E+02  0.12161590913E+03  0.41800000000E+01 0. -1.
        -11    1    1    2    0    0 -0.27605689366E+02  0.26288127956E+02  0.73351697305E+02  0.82665659462E+02  0.00000000000E+00 0. -1.
         11    1    1    2    0    0  0.53859916575E+02  0.23242996898E+02  0.30557878596E+03  0.31115835510E+03  0.00000000000E+00 0.  1.
</event>
<event>
 7    1  0.2856214E-009  0.1323669E+03  0.7561462E-02  0.1223985E+00
         -1   -1    0    0    0  501 -0.00000000000E+00  0.00000000000E+00  0.14171470280E+03  0.14171470280E+03  0.00000000000E+00 0.  1.
          1   -1    0    0  501    0  0.00000000000E+00 -0.00000000000E+00 -0.17741304586E+03  0.17741304586E+03  0.00000000000E+00 0. -1.
         25    2    1    2    0    0 -0.88580054825E+02 -0.71076467879E+02 -0.36239432853E+02  0.17279896416E+03  0.12509154696E+03 0.  0.
          5    1    3    3  502    0 -0.69233928477E+02  0.55163632831E+01 -0.58186370985E+02  0.90702223152E+02  0.41800000000E+01 0. -1.
         -5    1    3    3    0  502 -0.19346126348E+02 -0.76592831162E+02  0.21946938132E+02  0.82096741004E+02  0.41800000000E+01 0. -1.
        -11    1    1    2    0    0  0.79974169825E+02  0.52763291902E+02  0.38544729832E+02  0.10327404809E+03  0.00000000000E+00 0.  1.
         11    1    1    2    0    0  0.86058850001E+01  0.18313175977E+02 -0.38003640046E+02  0.43054736415E+02  0.00000000000E+00 0. -1.
</event>
<event>
 7    1  0.2856214E-009  0.1052941E+03  0.7561462E-02  0.1269541E+00
         -2   -1    0    0    0  501 -0.00000000000E+00  0.00000000000E+00  0.79731133016E+02  0.79731133016E+02  0.00000000000E+00 0. -1.
          2   -1    0    0  501    0  0.00000000000E+00 -0.00000000000E+00 -0.18587580597E+03  0.18587580597E+03  0.00000000000E+00 0.  1.
         25    2    1    2    0    0  0.21099711856E+02  0.31434515596E+02 -0.10238723728E+03  0.16602571130E+03  0.12509222135E+03 0.  0.
          5    1    3    3  502    0 -0.88672004432E+01  0.74428405707E+02 -0.42233933073E+02  0.86135894507E+02  0.41800000000E+01 0. -1.
         -5    1    3    3    0  502  0.29966912299E+02 -0.42993890111E+02 -0.60153304209E+02  0.79889816791E+02  0.41800000000E+01 0. -1.
        -11    1    1    2    0    0 -0.18265587186E+02 -0.55645825721E+02 -0.28251009026E+02  0.65024680748E+02  0.00000000000E+00 0.  1.
         11    1    1    2    0    0 -0.28341246691E+01  0.24211310125E+02  0.24493573355E+02  0.34556546939E+02  0.00000000000E+00 0. -1.
</event>
<event>
 7    1  0.2856214E-009  0.1748482E+03  0.7561462E-02  0.1172884E+00
         -1   -1    0    0    0  501 -0.00000000000E+00  0.00000000000E+00  0.17460459878E+02  0.17460459878E+02  0.00000000000E+00 0.  1.
          1   -1    0    0  501    0  0.00000000000E+00 -0.00000000000E+00 -0.20243503959E+04  0.20243503959E+04  0.00000000000E+00 0. -1.
         25    2    1    2    0    0  0.10764559148E+03 -0.10339426778E+03 -0.12445264155E+04  0.12596713504E+04  0.12509182282E+03 0.  0.
          5    1    3    3  502    0  0.11409001000E+03 -0.48492788020E+02 -0.59546049151E+03  0.60824234497E+03  0.41800000000E+01 0.  1.
         -5    1    3    3    0  502 -0.64444185117E+01 -0.54901479762E+02 -0.64906592402E+03  0.65142900544E+03  0.41800000000E+01 0.  1.
        -11    1    1    2    0    0 -0.25432032444E+02  0.81164626149E+02 -0.29232314815E+03  0.30444590284E+03  0.00000000000E+00 0.  1.
         11    1    1    2    0    0 -0.82213559039E+02  0.22229641633E+02 -0.47004037239E+03  0.47769360257E+03  0.00000000000E+00 0. -1.
</event>
<event>
 7    1  0.2856214E-009  0.1102727E+03  0.7561462E-02  0.1260066E+00
          2   -1    0    0  501    0  0.00000000000E+00  0.00000000000E+00  0.56765458168E+03  0.56765458168E+03  0.00000000000E+00 0. -1.
         -2   -1    0    0    0  501 -0.00000000000E+00 -0.00000000000E+00 -0.22192699022E+02  0.22192699022E+02  0.00000000000E+00 0.  1.
         25    2    1    2    0    0 -0.71265406911E+01  0.19384716971E+02  0.34480940989E+03  0.36737905710E+03  0.12508911868E+03 0.  0.
          5    1    3    3  502    0  0.46335063731E+02 -0.28598595827E+02  0.15941905978E+03  0.16851328385E+03  0.41800000000E+01 0.  1.
         -5    1    3    3    0  502 -0.53461604422E+02  0.47983312799E+02  0.18539035012E+03  0.19886577325E+03  0.41800000000E+01 0.  1.
        -11    1    1    2    0    0  0.53357902059E+01  0.37090804139E+02  0.10355863731E+03  0.11012987683E+03  0.00000000000E+00 0. -1.
         11    1    1    2    0    0  0.17907504852E+01 -0.56475521111E+02  0.97093835453E+02  0.11233834677E+03  0.00000000000E+00 0.  1.
</event>
<event>
 7    1  0.2856214E-009  0.1088594E+03  0.7561462E-02  0.1262697E+00
          1   -1    0    0  501    0  0.00000000000E+00  0.00000000000E+00  0.12097278287E+04  0.12097278287E+04  0.00000000000E+00 0. -1.
         -1   -1    0    0    0  501 -0.00000000000E+00 -0.00000000000E+00 -0.18385333490E+02  0.18385333490E+02  0.00000000000E+00 0.  1.
         25    2    1    2    0    0  0.89192576119E+02 -0.24037732910E+02  0.83300687537E+03  0.84739650453E+03  0.12508898130E+03 0.  0.
          5    1    3    3  502    0  0.92929240188E+02 -0.22301615769E+02  0.83554415978E+03  0.84100221229E+03  0.41800000000E+01 0.  1.
         -5    1    3    3    0  502 -0.37366640693E+01 -0.17361171408E+01 -0.25372844054E+01  0.63942922397E+01  0.41800000000E+01 0.  1.
        -11    1    1    2    0    0 -0.55882727775E+02  0.49192018037E+02  0.29926589771E+03  0.30838743722E+03  0.00000000000E+00 0. -1.
         11    1    1    2    0    0 -0.33309848344E+02 -0.25154285127E+02  0.59069722143E+02  0.72329220450E+02  0.00000000000E+00 0.  1.
</event>
<event>
 7    1  0.2856214E-009  0.1766620E+03  0.7561462E-02  0.1171073E+00
         -2   -1    0    0    0  501 -0.00000000000E+00  0.00000000000E+00  0.17089280550E+03  0.17089280550E+03  0.00000000000E+00 0.  1.
          2   -1    0    0  501    0  0.00000000000E+00 -0.00000000000E+00 -0.27057690880E+03  0.27057690880E+03  0.00000000000E+00 0. -1.
         25    2    1    2    0    0 -0.12762513078E+03  0.66012734506E+02  0.67635391953E+02  0.20215923980E+03  0.12509179378E+03 0.  0.
          5    1    3    3  502    0 -0.34958509431E+02 -0.37518443029E+02  0.20339400415E+02  0.55325351858E+02  0.41800000000E+01 0.  1.
         -5    1    3    3    0  502 -0.92666621347E+02  0.10353117754E+03  0.47295991538E+02  0.14683388795E+03  0.41800000000E+01 0.  1.
        -11    1    1    2    0    0 -0.10629177715E+02 -0.49876232885E+01  0.24794179940E+01  0.12000138272E+02  0.00000000000E+00 0.  1.
         11    1    1    2    0    0  0.13825430849E+03 -0.61025111218E+02 -0.16979891324E+03  0.22731033622E+03  0.00000000000E+00 0. -1.
</event>
<event>
 7    1  0.2856214E-009  0.1345560E+03  0.7561462E-02  0.1220848E+00
         -1   -1    0    0    0  501 -0.00000000000E+00  0.00000000000E+00  0.32335529434E+03  0.32335529434E+03  0.00000000000E+00 0.  1.
          1   -1    0    0  501    0  0.00000000000E+00 -0.00000000000E+00 -0.72231876192E+02  0.72231876192E+02  0.00000000000E+00 0. -1.
         25    2    1    2    0    0 -0.10333344090E+03  0.84153657594E+01  0.94235038876E+02  0.18783355980E+03  0.12511029233E+03 0.  0.
          5    1    3    3  502    0  0.37414168774E+01 -0.33757431482E+02 -0.65031483273E+01  0.34832825305E+02  0.41800000000E+01 0.  1.
         -5    1    3    3    0  502 -0.10707485778E+03  0.42172797242E+02  0.10073818720E+03  0.15300073450E+03  0.41800000000E+01 0.  1.
        -11    1    1    2    0    0  0.17559000657E+02 -0.26773784597E+02  0.95405605933E+02  0.10063490294E+03  0.00000000000E+00 0.  1.
         11    1    1    2    0    0  0.85774440246E+02  0.18358418838E+02  0.61482773341E+02  0.10711870779E+03  0.00000000000E+00 0. -1.
</event>
<event>
 7    1  0.2856214E-009  0.1029161E+03  0.7561462E-02  0.1274281E+00
          2   -1    0    0  501    0  0.00000000000E+00  0.00000000000E+00  0.34558727449E+03  0.34558727449E+03  0.00000000000E+00 0. -1.
         -2   -1    0    0    0  501 -0.00000000000E+00 -0.00000000000E+00 -0.39090916742E+02  0.39090916742E+02  0.00000000000E+00 0.  1.
         25    2    1    2    0    0 -0.37131924196E+02 -0.92950855463E+01  0.19463577072E+03  0.23451856076E+03  0.12510273252E+03 0.  0.
          5    1    3    3  502    0  0.18941564280E+02  0.32873089532E+02  0.13940282820E+02  0.40635289563E+02  0.41800000000E+01 0. -1.
         -5    1    3    3    0  502 -0.56073488477E+02 -0.42168175079E+02  0.18069548790E+03  0.19388327119E+03  0.41800000000E+01 0. -1.
        -11    1    1    2    0    0  0.21142866690E+02 -0.40169594851E+02  0.69932257639E+02  0.83373483919E+02  0.00000000000E+00 0. -1.
         11    1    1    2    0    0  0.15989057507E+02  0.49464680398E+02  0.41928329384E+02  0.66786146555E+02  0.00000000000E+00 0.  1.
</event>
<event>
 7    1  0.2856214E-009  0.1474093E+03  0.7561462E-02  0.1203693E+00
          1   -1    0    0  501    0  0.00000000000E+00  0.00000000000E+00  0.51155473239E+03  0.51155473239E+03  0.00000000000E+00 0. -1.
         -1   -1    0    0    0  501 -0.00000000000E+00 -0.00000000000E+00 -0.52897036940E+02  0.52897036940E+02  0.00000000000E+00 0.  1.
         25    2    1    2    0    0 -0.10624972153E+03  0.40917254671E+02  0.33490252960E+03  0.37519261833E+03  0.12508625611E+03 0.  0.
          5    1    3    3  502    0 -0.99353026256E+02  0.76309422401E+02  0.20473420223E+03  0.24005773834E+03  0.41800000000E+01 0.  1.
         -5    1    3    3    0  502 -0.68966952769E+01 -0.35392167730E+02  0.13016832736E+03  0.13513487999E+03  0.41800000000E+01 0.  1.
        -11    1    1    2    0    0  0.42244202302E+02  0.18242606796E+02  0.78648259604E+02  0.91120327422E+02  0.00000000000E+00 0. -1.
         11    1    1    2    0    0  0.64005519232E+02 -0.59159861466E+02  0.45106906248E+02  0.98138823572E+02  0.00000000000E+00 0.  1.
</event>
<event>
 7    1  0.2856214E-009  0.1173487E+03  0.7561462E-02  0.1247536E+00
         -2   -1    0    0    0  501 -0.00000000000E+00  0.00000000000E+00  0.60834609871E+02  0.60834609871E+02  0.00000000000E+00 0.  1.
          2   -1    0    0  501    0  0.00000000000E+00 -0.00000000000E+00 -0.39763288772E+03  0.39763288772E+03  0.00000000000E+00 0. -1.
         25    2    1    2    0    0 -0.51006599048E+02  0.22643288017E+02 -0.32395570507E+03  0.35172284389E+03  0.12508904198E+03 0.  0.
          5    1    3    3  502    0 -0.51933145544E+02 -0.40179016448E+02 -0.10515919652E+03  0.12404569312E+03  0.41800000000E+01 0. -1.
         -5    1    3    3    0  502  0.92654649548E+00  0.62822304466E+02 -0.21879650855E+03  0.22767715076E+03  0.41800000000E+01 0. -1.
        -11    1    1    2    0    0 -0.23873542863E+02 -0.19775348182E+02 -0.25283123296E+01  0.31103099649E+02  0.00000000000E+00 0.  1.
         11    1    1    2    0    0  0.74880141911E+02 -0.28679398354E+01 -0.10314260448E+02  0.75641554056E+02  0.00000000000E+00 0. -1.
</event>
<event>
 7    1  0.2856214E-009  0.1817496E+03  0.7561462E-02  0.1166120E+00
          1   -1    0    0  501    0  0.00000000000E+00  0.00000000000E+00  0.11781802868E+03  0.11781802868E+03  0.00000000000E+00 0. -1.
         -1   -1    0    0    0  501 -0.00000000000E+00 -0.00000000000E+00 -0.43459205837E+03  0.43459205837E+03  0.00000000000E+00 0.  1.
         25    2    1    2    0    0 -0.13357370518E+03  0.78370148715E+02 -0.13599870706E+02  0.19954016471E+03  0.12508999130E+03 0.  0.
          5    1    3    3  502    0 -0.94714658025E+02  0.10230657917E+03 -0.41946045419E+02  0.14565179612E+03  0.41800000000E+01 0. -1.
         -5    1    3    3    0  502 -0.38859047153E+02 -0.23936430455E+02  0.28346174712E+02  0.53888368591E+02  0.41800000000E+01 0. -1.
        -11    1    1    2    0    0  0.11510605660E+03 -0.19827841894E+02 -0.22464099894E+03  0.25319187583E+03  0.00000000000E+00 0. -1.
         11    1    1    2    0    0  0.18467648578E+02 -0.58542306820E+02 -0.78533160034E+02  0.99678046514E+02  0.00000000000E+00 0.  1.
</event>
<event>
 7    1  0.2856214E-009  0.1975319E+03  0.7561462E-02  0.1151838E+00
         -1   -1    0    0    0  501 -0.00000000000E+00  0.00000000000E+00  0.12856533819E+03  0.12856533819E+03  0.00000000000E+00 0.  1.
          1   -1    0    0  501    0  0.00000000000E+00 -0.00000000000E+00 -0.52071951429E+03  0.52071951429E+03  0.00000000000E+00 0. -1.
         25    2    1    2    0    0  0.16579095119E+03 -0.37165147967E+02  0.15036563601E+01  0.21099510622E+03  0.12509510841E+03 0.  0.
          5    1    3    3  502    0  0.29159174103E+02  0.39845644422E+02  0.19120537306E+02  0.53113088412E+02  0.41800000000E+01 0. -1.
         -5    1    3    3    0  502  0.13663177708E+03 -0.77010792389E+02 -0.17616880946E+02  0.15788201781E+03  0.41800000000E+01 0. -1.
        -11    1    1    2    0    0 -0.93569616869E+02  0.61996701008E+02 -0.27676642267E+03  0.29866120748E+03  0.00000000000E+00 0. -1.
         11    1    1    2    0    0 -0.72221334318E+02 -0.24831553041E+02 -0.11689140980E+03  0.13962853878E+03  0.00000000000E+00 0.  1.
</event>
<event>
 7    1  0.2856214E-009  0.7505280E+02  0.7561462E-02  0.1343708E+00
         -2   -1    0    0    0  501 -0.00000000000E+00  0.00000000000E+00  0.40650249066E+02  0.40650249066E+02  0.00000000000E+00 0.  1.
          2   -1    0    0  501    0  0.00000000000E+00 -0.00000000000E+00 -0.34533596363E+03  0.34533596363E+03  0.00000000000E+00 0. -1.
         25    2    1    2    0    0 -0.23823137333E+02 -0.40281427608E+02 -0.16729443645E+03  0.21407018567E+03  0.12509388732E+03 0.  0.
          5    1    3    3  502    0  0.93792658872E+01 -0.30777732354E+02  0.95617060442E+01  0.33825109902E+02  0.41800000000E+01 0. -1.
         -5    1    3    3    0  502 -0.33202403220E+02 -0.95036952545E+01 -0.17685614249E+03  0.18024507577E+03  0.41800000000E+01 0. -1.
        -11    1    1    2    0    0  0.18694952907E+02  0.59819318894E+02 -0.13815087013E+03  0.15170206029E+03  0.00000000000E+00 0. -1.
         11    1    1    2    0    0  0.51281844260E+01 -0.19537891286E+02  0.75959200829E+00  0.20213966741E+02  0.00000000000E+00 0.  1.
</event>
<event>
 7    1  0.2856214E-009  0.1108754E+03  0.7561462E-02  0.1258957E+00
         -2   -1    0    0    0  501 -0.00000000000E+00  0.00000000000E+00  0.73933098892E+02  0.73933098892E+02  0.00000000000E+00 0.  1.
          2   -1    0    0  501    0  0.00000000000E+00 -0.00000000000E+00 -0.20534848393E+03  0.20534848393E+03  0.00000000000E+00 0. -1.
         25    2    1    2    0    0  0.41915640945E+02  0.88836855484E+01 -0.11983862546E+03  0.17844945520E+03  0.12508825318E+03 0.  0.
          5    1    3    3  502    0  0.77818928539E+02  0.29450197066E+02 -0.10556955269E+03  0.13448235052E+03  0.41800000000E+01 0.  1.
         -5    1    3    3    0  502 -0.35903287594E+02 -0.20566511518E+02 -0.14269072765E+02  0.43967104677E+02  0.41800000000E+01 0.  1.
        -11    1    1    2    0    0  0.24607954309E+02  0.11659065983E+02 -0.15068397121E+02  0.31121404638E+02  0.00000000000E+00 0. -1.
         11    1    1    2    0    0 -0.66523595255E+02 -0.20542751531E+02  0.34916375425E+01  0.69710722983E+02  0.00000000000E+00 0.  1.
</event>
<event>
 7    1  0.2856214E-009  0.1161784E+03  0.7561462E-02  0.1249538E+00
         -3   -1    0    0    0  501 -0.00000000000E+00  0.00000000000E+00  0.39874193422E+03  0.39874193422E+03  0.00000000000E+00 0.  1.
          3   -1    0    0  501    0  0.00000000000E+00 -0.00000000000E+00 -0.53657578157E+02  0.53657578157E+02  0.00000000000E+00 0. -1.
         25    2    1    2    0    0 -0.40046583005E+02 -0.56564485856E+01  0.56713323698E+02  0.14318137878E+03  0.12509509152E+03 0.  0.
          5    1    3    3  502    0  0.20252091069E+02  0.40123513720E+02  0.49538351305E+02  0.67019133058E+02  0.41800000000E+01 0. -1.
         -5    1    3    3    0  502 -0.60298674075E+02 -0.45779962305E+02  0.71749723933E+01  0.76162245717E+02  0.41800000000E+01 0. -1.
        -11    1    1    2    0    0  0.18102438846E+02 -0.49139503246E+02  0.12589400135E+03  0.13635134267E+03  0.00000000000E+00 0.  1.
         11    1    1    2    0    0  0.21944144159E+02  0.54795951831E+02  0.16247703101E+03  0.17286679093E+03  0.00000000000E+00 0. -1.
</event>
<event>
 7    1  0.2856214E-009  0.1058055E+03  0.7561462E-02  0.1268541E+00
          1   -1    0    0  501    0  0.00000000000E+00  0.00000000000E+00  0.19749472859E+03  0.19749472859E+03  0.00000000000E+00 0. -1.
         -1   -1    0    0    0  501 -0.00000000000E+00 -0.00000000000E+00 -0.10014493218E+03  0.10014493218E+03  0.00000000000E+00 0.  1.
         25    2    1    2    0    0  0.72589152266E+02 -0.81177153963E+01  0.17157741371E+01  0.14485126048E+03  0.12507542305E+03 0.  0.
          5    1    3    3  502    0  0.89805931864E+01 -0.24694003263E+02 -0.52947739754E+02  0.59256901676E+02  0.41800000000E+01 0. -1.
         -5    1    3    3    0  502  0.63608559080E+02  0.16576287867E+02  0.54663513891E+02  0.85594358801E+02  0.41800000000E+01 0. -1.
        -11    1    1    2    0    0 -0.95539594801E+02  0.28027642989E+01  0.77790978870E+02  0.12323597712E+03  0.00000000000E+00 0. -1.
         11    1    1    2    0    0  0.22950442534E+02  0.53149510974E+01  0.17843043400E+02  0.29552423174E+02  0.00000000000E+00 0.  1.
</event>
<event>
 7    1  0.2856214E-009  0.1423815E+03  0.7561462E-02  0.1210160E+00
          1   -1    0    0  501    0  0.00000000000E+00  0.00000000000E+00  0.12678585309E+04  0.12678585309E+04  0.00000000000E+00 0. -1.
         -1   -1    0    0    0  501 -0.00000000000E+00 -0.00000000000E+00 -0.19850091782E+02  0.19850091782E+02  0.00000000000E+00 0.  1.
         25    2    1    2    0    0 -0.20146744230E+02 -0.10907705486E+03  0.79619589248E+03  0.81355925602E+03  0.12508824343E+03 0.  0.
          5    1    3    3  502    0 -0.44895116957E+02 -0.11097016659E+02  0.46372037224E+03  0.46603945255E+03  0.41800000000E+01 0.  1.
         -5    1    3    3    0  502  0.24748372727E+02 -0.97980038205E+02  0.33247552024E+03  0.34751980347E+03  0.41800000000E+01 0.  1.
        -11    1    1    2    0    0  0.48915144144E+02  0.90694595855E+02  0.39161161886E+03  0.40494179961E+03  0.00000000000E+00 0. -1.
         11    1    1    2    0    0 -0.28768399914E+02  0.18382459008E+02  0.60200927777E+02  0.69207567057E+02  0.00000000000E+00 0.  1.
</event>
<event>
 7    1  0.2856214E-009  0.1217462E+03  0.7561462E-02  0.1240244E+00
         -1   -1    0    0    0  501 -0.00000000000E+00  0.00000000000E+00  0.14588608233E+03  0.14588608233E+03  0.00000000000E+00 0.  1.
          1   -1    0    0  501    0  0.00000000000E+00 -0.00000000000E+00 -0.13843738195E+03  0.13843738195E+03  0.00000000000E+00 0. -1.
         25    2    1    2    0    0 -0.69774516618E+02 -0.59504009376E+02 -0.16828728883E+02  0.15600103570E+03  0.12507560402E+03 0.  0.
          5    1    3    3  502    0 -0.33886621733E+02  0.34860827159E+02 -0.24621188355E+02  0.54655793093E+02  0.41800000000E+01 0. -1.
         -5    1    3    3    0  502 -0.35887894885E+02 -0.94364836535E+02  0.77924594726E+01  0.10134524260E+03  0.41800000000E+01 0. -1.
        -11    1    1    2    0    0  0.13662494764E+02  0.29376263126E+01 -0.29194190547E+02  0.32366559490E+02  0.00000000000E+00 0. -1.
         11    1    1    2    0    0  0.56112021853E+02  0.56566383064E+02  0.53471619801E+02  0.95955869094E+02  0.00000000000E+00 0.  1.
</event>
<event>
 7    1  0.2856214E-009  0.1054842E+03  0.7561462E-02  0.1269169E+00
         -2   -1    0    0    0  501 -0.00000000000E+00  0.00000000000E+00  0.36856886182E+03  0.36856886182E+03  0.00000000000E+00 0.  1.
          2   -1    0    0  501    0  0.00000000000E+00 -0.00000000000E+00 -0.44048402747E+02  0.44048402747E+02  0.00000000000E+00 0. -1.
         25    2    1    2    0    0 -0.46457801315E+02  0.20555101469E+02  0.10968362428E+03  0.17394913267E+03  0.12508782444E+03 0.  0.
          5    1    3    3  502    0  0.25307730800E+02 -0.11841447333E+02 -0.10557631210E+02  0.30160190483E+02  0.41800000000E+01 0.  1.
         -5    1    3    3    0  502 -0.71765532116E+02  0.32396548802E+02  0.12024125549E+03  0.14378894219E+03  0.41800000000E+01 0.  1.
        -11    1    1    2    0    0 -0.12632842885E+02 -0.39771621353E+02  0.91303778377E+02  0.10038799993E+03  0.00000000000E+00 0. -1.
         11    1    1    2    0    0  0.59090644201E+02  0.19216519884E+02  0.12353305642E+03  0.13828013197E+03  0.00000000000E+00 0.  1.
</event>
<event>
 7    1  0.2856214E-009  0.1009898E+03  0.7561462E-02  0.1278228E+00
          2   -1    0    0  501    0  0.00000000000E+00  0.00000000000E+00  0.19586678957E+03  0.19586678957E+03  0.00000000000E+00 0.  1.
         -2   -1    0    0    0  501 -0.00000000000E+00 -0.00000000000E+00 -0.62828831514E+02  0.62828831514E+02  0.00000000000E+00 0. -1.
         25    2    1    2    0    0  0.20367541101E+01 -0.10481792605E+02  0.10915128869E+03  0.16636126069E+03  0.12509216159E+03 0.  0.
          5    1    3    3  502    0 -0.41755155648E+02 -0.47946331073E+02  0.36143430671E+02  0.73254103416E+02  0.41800000000E+01 0. -1.
         -5    1    3    3    0  502  0.43791909759E+02  0.37464538468E+02  0.73007858022E+02  0.93107157275E+02  0.41800000000E+01 0. -1.
        -11    1    1    2    0    0 -0.40896903902E+02  0.41314510270E+01 -0.77432521834E+01  0.41828023988E+02  0.00000000000E+00 0. -1.
         11    1    1    2    0    0  0.38860149792E+02  0.63503415782E+01  0.31629921549E+02  0.50506336407E+02  0.00000000000E+00 0.  1.
</event>
<event>
 7    1  0.2856214E-009  0.9007805E+02  0.7561462E-02  0.1302663E+00
         -2   -1    0    0    0  501 -0.00000000000E+00  0.00000000000E+00  0.92766589501E+02  0.92766589501E+02  0.00000000000E+00 0.  1.
          2   -1    0    0  501    0  0.00000000000E+00 -0.00000000000E+00 -0.14459450262E+03  0.14459450262E+03  0.00000000000E+00 0. -1.
         25    2    1    2    0    0 -0.26298674072E+00 -0.14150055525E+02  0.75082949320E+00  0.12588993158E+03  0.12508963944E+03 0.  0.
          5    1    3    3  502    0 -0.36052663645E+02 -0.35191401405E+02  0.43103653495E+02  0.66435131018E+02  0.41800000000E+01 0.  1.
         -5    1    3    3    0  502  0.35789676904E+02  0.21041345880E+02 -0.42352824002E+02  0.59454800566E+02  0.41800000000E+01 0.  1.
        -11    1    1    2    0    0  0.15741117627E+02 -0.33909503502E+02  0.15918162807E+01  0.37418860097E+02  0.00000000000E+00 0.  1.
         11    1    1    2    0    0 -0.15478130887E+02  0.48059559027E+02 -0.54170558888E+02  0.74052300436E+02  0.00000000000E+00 0. -1.
</event>
<event>
 7    1  0.2856214E-009  0.1085211E+03  0.7561462E-02  0.1263333E+00
          2   -1    0    0  501    0  0.00000000000E+00  0.00000000000E+00  0.66470457691E+03  0.66470457691E+03  0.00000000000E+00 0. -1.
         -2   -1    0    0    0  501 -0.00000000000E+00 -0.00000000000E+00 -0.26161255855E+02  0.26161255855E+02  0.00000000000E+00 0.  1.
         25    2    1    2    0    0  0.54931795089E+02 -0.19232048476E+02  0.23739071155E+03  0.27456987075E+03  0.12508753013E+03 0.  0.
          5    1    3    3  502    0 -0.28193919540E+02 -0.27331028401E+02  0.26104931390E+02  0.47337322013E+02  0.41800000000E+01 0. -1.
         -5    1    3    3    0  502  0.83125714630E+02  0.80989799257E+01  0.21128578016E+03  0.22723254874E+03  0.41800000000E+01 0. -1.
        -11    1    1    2    0    0 -0.71275421542E+02  0.26500638288E+02  0.38419555116E+03  0.39164868324E+03  0.00000000000E+00 0.  1.
         11    1    1    2    0    0  0.16343626452E+02 -0.72685898118E+01  0.16957058335E+02  0.24647278772E+02  0.00000000000E+00 0. -1.
</event>
<event>
 7    1  0.3310550E-009  0.9100545E+02  0.7561462E-02  0.1300435E+00
         -3   -1    0    0    0  501 -0.00000000000E+00  0.00000000000E+00  0.18528509902E+03  0.18528509902E+03  0.00000000000E+00 0.  1.
          3   -1    0    0  501    0  0.00000000000E+00 -0.00000000000E+00 -0.80259460448E+02  0.80259460448E+02  0.00000000000E+00 0. -1.
         25    2    1    2    0    0 -0.12352555998E+02  0.49557561643E+02  0.35305835287E+02  0.13964648131E+03  0.12508437225E+03 0.  0.
          5    1    3    3  502    0 -0.45809587981E+02  0.12745577474E+02  0.65694500229E+02  0.81204728043E+02  0.41800000000E+01 0. -1.
         -5    1    3    3    0  502  0.33457031983E+02  0.36811984169E+02 -0.30388664942E+02  0.58441753264E+02  0.41800000000E+01 0. -1.
        -11    1    1    2    0    0  0.82376401225E+01  0.16357630663E+02  0.55360786636E+02  0.58311641142E+02  0.00000000000E+00 0.  1.
         11    1    1    2    0    0  0.41149158753E+01 -0.65915192306E+02  0.14359016645E+02  0.67586437015E+02  0.00000000000E+00 0. -1.
</event>
<event>
 7    1  0.2856214E-009  0.1396043E+03  0.7561462E-02  0.1213862E+00
         -4   -1    0    0    0  501 -0.00000000000E+00  0.00000000000E+00  0.51816393412E+02  0.51816393412E+02  0.00000000000E+00 0.  1.
          4   -1    0    0  501    0  0.00000000000E+00 -0.00000000000E+00 -0.44584497254E+03  0.44584497254E+03  0.00000000000E+00 0. -1.
         25    2    1    2    0    0  0.57734186766E+02 -0.83507691652E+02 -0.17210824978E+03  0.23574530138E+03  0.12509127306E+03 0.  0.
          5    1    3    3  502    0  0.21921654449E+02 -0.10029596590E+03 -0.16639811462E+03  0.19556493719E+03  0.41800000000E+01 0. -1.
         -5    1    3    3    0  502  0.35812532317E+02  0.16788274243E+02 -0.57101351583E+01  0.40180364191E+02  0.41800000000E+01 0. -1.
        -11    1    1    2    0    0 -0.82233420521E+02  0.54199828994E+02 -0.13628583180E+03  0.16814810395E+03  0.00000000000E+00 0.  1.
         11    1    1    2    0    0  0.24499233755E+02  0.29307862659E+02 -0.85634497549E+02  0.93767960619E+02  0.00000000000E+00 0. -1.
</event>
<event>
 7    1  0.2856214E-009  0.2163543E+03  0.7561462E-02  0.1136631E+00
          2   -1    0    0  501    0  0.00000000000E+00  0.00000000000E+00  0.10356420550E+04  0.10356420550E+04  0.00000000000E+00 0.  1.
         -2   -1    0    0    0  501 -0.00000000000E+00 -0.00000000000E+00 -0.45918246135E+02  0.45918246135E+02  0.00000000000E+00 0. -1.
         25    2    1    2    0    0 -0.15390163531E+03  0.10742805416E+03  0.57792060045E+03  0.62037547823E+03  0.12508802261E+03 0.  0.
          5    1    3    3  502    0 -0.46216745030E+02  0.10776003078E+03  0.32091982166E+03  0.34169462402E+03  0.41800000000E+01 0. -1.
         -5    1    3    3    0  502 -0.10768489029E+03 -0.33197662155E+00  0.25700077879E+03  0.27868085421E+03  0.41800000000E+01 0. -1.
        -11    1    1    2    0    0  0.14291236921E+03 -0.53531134347E+02  0.30500859149E+03  0.34105684057E+03  0.00000000000E+00 0. -1.
         11    1    1    2    0    0  0.10989266109E+02 -0.53896919808E+02  0.10679461692E+03  0.12012798233E+03  0.00000000000E+00 0.  1.
</event>
<event>
 7    1  0.2856214E-009  0.1109743E+03  0.7561462E-02  0.1258776E+00
          1   -1    0    0  501    0  0.00000000000E+00  0.00000000000E+00  0.14078546682E+03  0.14078546682E+03  0.00000000000E+00 0. -1.
         -1   -1    0    0    0  501 -0.00000000000E+00 -0.00000000000E+00 -0.10488490469E+03  0.10488490469E+03  0.00000000000E+00 0.  1.
         25    2    1    2    0    0 -0.53320317325E+02 -0.39669052040E+02  0.13764021666E+02  0.14231534500E+03  0.12509004437E+03 0.  0.
          5    1    3    3  502    0 -0.52074397838E+02  0.26673961287E+02  0.39829692533E+02  0.70902185638E+02  0.41800000000E+01 0.  1.
         -5    1    3    3    0  502 -0.12459194879E+01 -0.66343013327E+02 -0.26065670867E+02  0.71413159364E+02  0.41800000000E+01 0.  1.
        -11    1    1    2    0    0  0.70751866813E+02  0.29783104362E+02  0.48981246750E+01  0.76921073759E+02  0.00000000000E+00 0.  1.
         11    1    1    2    0    0 -0.17431549487E+02  0.98859476776E+01  0.17238415792E+02  0.26433952751E+02  0.00000000000E+00 0. -1.
</event>
<event>
 7    1  0.2856214E-009  0.6643579E+02  0.7561462E-02  0.1372651E+00
          4   -1    0    0  501    0  0.00000000000E+00  0.00000000000E+00  0.44181457760E+02  0.44181457760E+02  0.00000000000E+00 0. -1.
         -4   -1    0    0    0  501 -0.00000000000E+00 -0.00000000000E+00 -0.36536069764E+03  0.36536069764E+03  0.00000000000E+00 0.  1.
         25    2    1    2    0    0  0.59454894539E+02  0.19032893428E+01 -0.22635927323E+03  0.26537433390E+03  0.12508600850E+03 0.  0.
          5    1    3    3  502    0  0.42489779481E+02  0.79389628747E+01 -0.23904306628E+03  0.24295569232E+03  0.41800000000E+01 0.  1.
         -5    1    3    3    0  502  0.16965115059E+02 -0.60356735319E+01  0.12683793057E+02  0.22418641579E+02  0.41800000000E+01 0.  1.
        -11    1    1    2    0    0 -0.57014713145E+02 -0.13926503065E+02 -0.10998307614E+03  0.12466315430E+03  0.00000000000E+00 0.  1.
         11    1    1    2    0    0 -0.24401813940E+01  0.12023213722E+02  0.15163109485E+02  0.19504667203E+02  0.00000000000E+00 0. -1.
</event>
<event>
 7    1  0.2856214E-009  0.6241891E+02  0.7561462E-02  0.1387952E+00
          2   -1    0    0  501    0  0.00000000000E+00  0.00000000000E+00  0.49330092647E+03  0.49330092647E+03  0.00000000000E+00 0. -1.
         -2   -1    0    0    0  501 -0.00000000000E+00 -0.00000000000E+00 -0.26023009115E+02  0.26023009115E+02  0.00000000000E+00 0.  1.
         25    2    1    2    0    0 -0.19929752123E+02 -0.25833962667E+02  0.31529765420E+03  0.34077058225E+03  0.12508952929E+03 0.  0.
          5    1    3    3  502    0 -0.10608152929E+02 -0.72071197348E+01 -0.87169325212E+01  0.16060286299E+02  0.41800000000E+01 0. -1.
         -5    1    3    3    0  502 -0.93215991933E+01 -0.18626842932E+02  0.32401458672E+03  0.32471029595E+03  0.41800000000E+01 0. -1.
        -11    1    1    2    0    0  0.32285742005E+02 -0.23058873126E+02  0.43212949702E+02  0.58663786006E+02  0.00000000000E+00 0.  1.
         11    1    1    2    0    0 -0.12355989883E+02  0.48892835793E+02  0.10876731345E+03  0.11988956733E+03  0.00000000000E+00 0. -1.
</event>
<event>
 7    1  0.2856214E-009  0.1298326E+03  0.7561462E-02  0.1227704E+00
         -3   -1    0    0    0  501 -0.00000000000E+00  0.00000000000E+00  0.23297496537E+03  0.23297496537E+03  0.00000000000E+00 0.  1.
          3   -1    0    0  501    0  0.00000000000E+00 -0.00000000000E+00 -0.11729598685E+03  0.11729598685E+03  0.00000000000E+00 0. -1.
         25    2    1    2    0    0 -0.20564778646E+02  0.10403323078E+03 -0.57589838255E+01  0.16409185988E+03  0.12508856605E+03 0.  0.
          5    1    3    3  502    0  0.66447146676E+00 -0.65877520876E+01  0.41234110075E+02  0.41970992763E+02  0.41800000000E+01 0. -1.
         -5    1    3    3    0  502 -0.21229250113E+02  0.11062098287E+03 -0.46993093900E+02  0.12212086712E+03  0.41800000000E+01 0. -1.
        -11    1    1    2    0    0  0.46066366925E+02 -0.10385756832E+03  0.11030392700E+03  0.15835233175E+03  0.00000000000E+00 0.  1.
         11    1    1    2    0    0 -0.25501588279E+02 -0.17566246109E+00  0.11134035344E+02  0.27826760592E+02  0.00000000000E+00 0. -1.
</event>
<event>
 7    1  0.2856214E-009  0.6978139E+02  0.7561462E-02  0.1360838E+00
         -1   -1    0    0    0  501 -0.00000000000E+00  0.00000000000E+00  0.75633205695E+02  0.75633205695E+02  0.00000000000E+00 0.  1.
          1   -1    0    0  501    0  0.00000000000E+00 -0.00000000000E+00 -0.19086950526E+03  0.19086950526E+03  0.00000000000E+00 0. -1.
         25    2    1    2    0    0 -0.24815267086E+02 -0.45148780587E+02 -0.57858316654E+02  0.14713542155E+03  0.12508811934E+03 0.  0.
          5    1    3    3  502    0 -0.12048601214E+02 -0.57845715675E+02 -0.91354239813E+02  0.10887775321E+03  0.41800000000E+01 0.  1.
         -5    1    3    3    0  502 -0.12766665872E+02  0.12696935088E+02  0.33495923159E+02  0.38257668335E+02  0.41800000000E+01 0.  1.
        -11    1    1    2    0    0 -0.23862828673E+01  0.31168439344E+02 -0.76949977449E+02  0.83056998419E+02  0.00000000000E+00 0. -1.
         11    1    1    2    0    0  0.27201549953E+02  0.13980341243E+02  0.19571994540E+02  0.36310290985E+02  0.00000000000E+00 0.  1.
</event>
<event>
 7    1  0.2856214E-009  0.1117896E+03  0.7561462E-02  0.1257291E+00
         -4   -1    0    0    0  501 -0.00000000000E+00  0.00000000000E+00  0.33142740956E+02  0.33142740956E+02  0.00000000000E+00 0.  1.
          4   -1    0    0  501    0  0.00000000000E+00 -0.00000000000E+00 -0.47629543557E+03  0.47629543557E+03  0.00000000000E+00 0. -1.
         25    2    1    2    0    0  0.52736799942E+02 -0.25466745636E+02 -0.26069508152E+03  0.29502242676E+03  0.12508629646E+03 0.  0.
          5    1    3    3  502    0 -0.18946336459E+02 -0.33852643916E+02 -0.20281545977E+02  0.43974750398E+02  0.41800000000E+01 0. -1.
         -5    1    3    3    0  502  0.71683136401E+02  0.83858982799E+01 -0.24041353555E+03  0.25104767636E+03  0.41800000000E+01 0. -1.
        -11    1    1    2    0    0  0.16241784043E+02 -0.22861725174E+02 -0.53207783581E+02  0.60145841589E+02  0.00000000000E+00 0. -1.
         11    1    1    2    0    0 -0.68978583985E+02  0.48328470811E+02 -0.12924982951E+03  0.15426990817E+03  0.00000000000E+00 0.  1.
</event>
<event>
 7    1  0.2856214E-009  0.1110108E+03  0.7561462E-02  0.1258709E+00
          1   -1    0    0  501    0  0.00000000000E+00  0.00000000000E+00  0.10719803509E+04  0.10719803509E+04  0.00000000000E+00 0. -1.
         -1   -1    0    0    0  501 -0.00000000000E+00 -0.00000000000E+00 -0.14706514879E+02  0.14706514879E+02  0.00000000000E+00 0.  1.
         25    2    1    2    0    0  0.12366552911E+02  0.46024029568E+02  0.77608567710E+03  0.78754492553E+03  0.12508752375E+03 0.  0.
          5    1    3    3  502    0  0.48992517339E+02  0.67116753419E+02  0.36973369936E+03  0.37897942713E+03  0.41800000000E+01 0.  1.
         -5    1    3    3    0  502 -0.36625964427E+02 -0.21092723852E+02  0.40635197774E+03  0.40856549840E+03  0.41800000000E+01 0.  1.
        -11    1    1    2    0    0  0.32298054450E+02 -0.11578332523E+00  0.52374611192E+02  0.61532736203E+02  0.00000000000E+00 0.  1.
         11    1    1    2    0    0 -0.44664607362E+02 -0.45908246242E+02  0.22881354774E+03  0.23760920406E+03  0.00000000000E+00 0. -1.
</event>
<event>
 7    1  0.2856214E-009  0.1855114E+03  0.7561462E-02  0.1162573E+00
         -2   -1    0    0    0  501 -0.00000000000E+00  0.00000000000E+00  0.35617493061E+02  0.35617493061E+02  0.00000000000E+00 0.  1.
          2   -1    0    0  501    0  0.00000000000E+00 -0.00000000000E+00 -0.17147673054E+04  0.17147673054E+04  0.00000000000E+00 0. -1.
         25    2    1    2    0    0  0.14163546717E+03  0.81059887796E+02 -0.13958088458E+04  0.14108726003E+04  0.12509136389E+03 0.  0.
          5    1    3    3  502    0  0.76906406016E+02 -0.25173008860E+02 -0.52701401336E+03  0.53320682511E+03  0.41800000000E+01 0. -1.
         -5    1    3    3    0  502  0.64729061159E+02  0.10623289666E+03 -0.86879483240E+03  0.87766577517E+03  0.41800000000E+01 0. -1.
        -11    1    1    2    0    0 -0.12037401962E+03 -0.56305023606E+02 -0.14212772942E+03  0.19457762398E+03  0.00000000000E+00 0.  1.
         11    1    1    2    0    0 -0.21261447552E+02 -0.24754864189E+02 -0.14121323713E+03  0.14493457418E+03  0.00000000000E+00 0. -1.
</event>
<event>
 7    1  0.2856214E-009  0.8985393E+02  0.7561462E-02  0.1303206E+00
         -1   -1    0    0    0  501 -0.00000000000E+00  0.00000000000E+00  0.35186515670E+02  0.35186515670E+02  0.00000000000E+00 0.  1.
          1   -1    0    0  501    0  0.00000000000E+00 -0.00000000000E+00 -0.34838453544E+03  0.34838453544E+03  0.00000000000E+00 0. -1.
         25    2    1    2    0    0 -0.91795768954E+01 -0.20411478473E+02 -0.20178037241E+03  0.23846057195E+03  0.12508889879E+03 0.  0.
          5    1    3    3  502    0 -0.24413809660E+02  0.27535973780E+02 -0.17949746946E+03  0.18327868915E+03  0.41800000000E+01 0.  1.
         -5    1    3    3    0  502  0.15234232765E+02 -0.47947452253E+02 -0.22282902944E+02  0.55181882798E+02  0.41800000000E+01 0.  1.
        -11    1    1    2    0    0  0.34715171552E+02  0.44935561589E+02 -0.59281432025E+02  0.82089195477E+02  0.00000000000E+00 0. -1.
         11    1    1    2    0    0 -0.25535594656E+02 -0.24524083116E+02 -0.52136215345E+02  0.63021283687E+02  0.00000000000E+00 0.  1.
</event>
<event>
 7    1  0.2856214E-009  0.1586362E+03  0.7561462E-02  0.1190245E+00
         -1   -1    0    0    0  501 -0.00000000000E+00  0.00000000000E+00  0.11276822170E+03  0.11276822170E+03  0.00000000000E+00 0.  1.
          1   -1    0    0  501    0  0.00000000000E+00 -0.00000000000E+00 -0.25652101572E+03  0.25652101572E+03  0.00000000000E+00 0. -1.
         25    2    1    2    0    0  0.61917981859E+02 -0.11325537991E+03 -0.95503256344E+02  0.20354175756E+03  0.12509099706E+03 0.  0.
          5    1    3    3  502    0 -0.26768635294E+02 -0.86158162742E+01 -0.52547435695E+02  0.59745271978E+02  0.41800000000E+01 0.  1.
         -5    1    3    3    0  502  0.88686617153E+02 -0.10463956363E+03 -0.42955820649E+02  0.14379648559E+03  0.41800000000E+01 0.  1.
        -11    1    1    2    0    0 -0.74701902812E+02  0.57115371098E+02 -0.53056425871E+02  0.10797001540E+03  0.00000000000E+00 0. -1.
         11    1    1    2    0    0  0.12783920953E+02  0.56140008809E+02  0.48068881919E+01  0.57777464449E+02  0.00000000000E+00 0.  1.
</event>
<event>
 7    1  0.2856214E-009  0.1908222E+03  0.7561462E-02  0.1157722E+00
         -2   -1    0    0    0  501 -0.00000000000E+00  0.00000000000E+00  0.39107981513E+02  0.39107981513E+02  0.00000000000E+00 0.  1.
          2   -1    0    0  501    0  0.00000000000E+00 -0.00000000000E+00 -0.10455431890E+04  0.10455431890E+04  0.00000000000E+00 0. -1.
         25    2    1    2    0    0  0.98381470578E+02  0.13895867655E+03 -0.53461208388E+03  0.57484431163E+03  0.12508986709E+03 0.  0.
          5    1    3    3  502    0  0.77082347003E+02  0.16208288124E+03 -0.45773750595E+03  0.49168449779E+03  0.41800000000E+01 0. -1.
         -5    1    3    3    0  502  0.21299123575E+02 -0.23124204689E+02 -0.76874577921E+02  0.83159813841E+02  0.41800000000E+01 0. -1.
        -11    1    1    2    0    0 -0.40191729855E+02 -0.62741496695E+02 -0.93701026628E+02  0.11971529955E+03  0.00000000000E+00 0. -1.
         11    1    1    2    0    0 -0.58189740723E+02 -0.76217179859E+02 -0.37812209701E+03  0.39009155935E+03  0.00000000000E+00 0.  1.
</event>
<event>
 7    1  0.2856214E-009  0.1537259E+03  0.7561462E-02  0.1195968E+00
         -2   -1    0    0    0  501 -0.00000000000E+00  0.00000000000E+00  0.40546830610E+02  0.40546830610E+02  0.00000000000E+00 0.  1.
          2   -1    0    0  501    0  0.00000000000E+00 -0.00000000000E+00 -0.10902814994E+04  0.10902814994E+04  0.00000000000E+00 0. -1.
         25    2    1    2    0    0  0.59181503984E+02 -0.11333781020E+03 -0.88881475940E+03  0.90663468728E+03  0.12508744947E+03 0.  0.
          5    1    3    3  502    0 -0.15930161065E+02 -0.59246165633E+02 -0.60411968429E+03  0.60724125644E+03  0.41800000000E+01 0.  1.
         -5    1    3    3    0  502  0.75111665049E+02 -0.54091644567E+02 -0.28469507511E+03  0.29939343084E+03  0.41800000000E+01 0.  1.
        -11    1    1    2    0    0 -0.67417112312E+02  0.37747220462E+02 -0.10220936406E+03  0.12812756841E+03  0.00000000000E+00 0. -1.
         11    1    1    2    0    0  0.82356083282E+01  0.75590589738E+02 -0.58710545318E+02  0.96066074308E+02  0.00000000000E+00 0.  1.
</event>
<event>
 7    1  0.2856214E-009  0.1055351E+03  0.7561462E-02  0.1269069E+00
         -4   -1    0    0    0  501 -0.00000000000E+00  0.00000000000E+00  0.23719777675E+03  0.23719777675E+03  0.00000000000E+00 0.  1.
          4   -1    0    0  501    0  0.00000000000E+00 -0.00000000000E+00 -0.82858770846E+02  0.82858770846E+02  0.00000000000E+00 0. -1.
         25    2    1    2    0    0  0.55350394842E+02  0.23058499910E+02  0.10624738708E+03  0.17473182855E+03  0.12508934415E+03 0.  0.
          5    1    3    3  502    0 -0.14549403097E+02  0.30797661305E+02 -0.12612720811E+02  0.36561375776E+02  0.41800000000E+01 0. -1.
         -5    1    3    3    0  502  0.69899797938E+02 -0.77391613955E+01  0.11886010789E+03  0.13817045277E+03  0.41800000000E+01 0. -1.
        -11    1    1    2    0    0 -0.31935158477E+02 -0.56841323454E+02 -0.17871283341E+02  0.67603055901E+02  0.00000000000E+00 0. -1.
         11    1    1    2    0    0 -0.23415236365E+02  0.33782823544E+02  0.65962902160E+02  0.77721663145E+02  0.00000000000E+00 0.  1.
</event>
<event>
 7    1  0.2856214E-009  0.1152592E+03  0.7561462E-02  0.1251129E+00
         -2   -1    0    0    0  501 -0.00000000000E+00  0.00000000000E+00  0.60174394096E+02  0.60174394096E+02  0.00000000000E+00 0.  1.
          2   -1    0    0  501    0  0.00000000000E+00 -0.00000000000E+00 -0.40042537105E+03  0.40042537105E+03  0.00000000000E+00 0. -1.
         25    2    1    2    0    0  0.50237882020E-01  0.11004231403E+03 -0.21415314132E+03  0.27132721931E+03  0.12509028180E+03 0.  0.
          5    1    3    3  502    0  0.14143894987E+02  0.86237929747E+02 -0.22492956290E+03  0.24134583269E+03  0.41800000000E+01 0.  1.
         -5    1    3    3    0  502 -0.14093657105E+02  0.23804384285E+02  0.10776421577E+02  0.29981386622E+02  0.41800000000E+01 0.  1.
        -11    1    1    2    0    0 -0.15607488409E+02 -0.76502833615E+02 -0.13046450299E+03  0.15204362462E+03  0.00000000000E+00 0. -1.
         11    1    1    2    0    0  0.15557250527E+02 -0.33539480417E+02  0.43666673636E+01  0.37228921210E+02  0.00000000000E+00 0.  1.
</event>
<event>
 7    1  0.4054247E-009  0.1203767E+03  0.7561462E-02  0.1242477E+00
         -1   -1    0    0    0  501 -0.00000000000E+00  0.00000000000E+00  0.48225764311E+02  0.48225764311E+02  0.00000000000E+00 0.  1.
          1   -1    0    0  501    0  0.00000000000E+00 -0.00000000000E+00 -0.49716033009E+03  0.49716033009E+03  0.00000000000E+00 0. -1.
         25    2    1    2    0    0 -0.29329175667E+02 -0.79741735805E+02 -0.36453031805E+03  0.39465046460E+03  0.12509073290E+03 0.  0.
          5    1    3    3  502    0 -0.76718158866E+02 -0.63013404602E+02 -0.21515669946E+03  0.23699418301E+03  0.41800000000E+01 0.  1.
         -5    1    3    3    0  502  0.47388983199E+02 -0.16728331204E+02 -0.14937361859E+03  0.15765628158E+03  0.41800000000E+01 0.  1.
        -11    1    1    2    0    0  0.10642802085E+02  0.68132735238E+02 -0.59040879918E+01  0.69211249824E+02  0.00000000000E+00 0.  1.
         11    1    1    2    0    0  0.18686373582E+02  0.11609000567E+02 -0.78500159740E+02  0.81524379980E+02  0.00000000000E+00 0. -1.
</event>
<event>
 7    1  0.2856214E-009  0.1463635E+03  0.7561462E-02  0.1205014E+00
          1   -1    0    0  501    0  0.00000000000E+00  0.00000000000E+00  0.40764648155E+03  0.40764648155E+03  0.00000000000E+00 0. -1.
         -1   -1    0    0    0  501 -0.00000000000E+00 -0.00000000000E+00 -0.64366174473E+02  0.64366174473E+02  0.00000000000E+00 0.  1.
         25    2    1    2    0    0  0.96260353014E+02  0.56797559642E+02  0.24829245374E+03  0.29964721757E+03  0.12508914449E+03 0.  0.
          5    1    3    3  502    0  0.95118517385E+02  0.91837660725E+02  0.20112717414E+03  0.24073076425E+03  0.41800000000E+01 0.  1.
         -5    1    3    3    0  502  0.11418356290E+01 -0.35040101083E+02  0.47165279598E+02  0.58916453323E+02  0.41800000000E+01 0.  1.
        -11    1    1    2    0    0 -0.25070035888E+02 -0.47007955154E+02  0.84287643468E+02  0.99712894796E+02  0.00000000000E+00 0. -1.
         11    1    1    2    0    0 -0.71190317126E+02 -0.97896044877E+01  0.10700209869E+02  0.72652543657E+02  0.00000000000E+00 0.  1.
</event>
<event>
 7    1  0.2856214E-009  0.7351133E+02  0.7561462E-02  0.1348544E+00
         -2   -1    0    0    0  501 -0.00000000000E+00  0.00000000000E+00  0.21792224174E+02  0.21792224174E+02  0.00000000000E+00 0. -1.
          2   -1    0    0  501    0  0.00000000000E+00 -0.00000000000E+00 -0.82346058698E+03  0.82346058698E+03  0.00000000000E+00 0.  1.
         25    2    1    2    0    0 -0.88407221184E+01 -0.11217693092E+02 -0.71583466456E+03  0.72682179993E+03  0.12508663740E+03 0.  0.
          5    1    3    3  502    0 -0.65260049029E+01 -0.51535285984E+02 -0.62685162534E+03  0.62901423436E+03  0.41800000000E+01 0. -1.
         -5    1    3    3    0  502 -0.23147172155E+01  0.40317592892E+02 -0.88983039227E+02  0.97807565568E+02  0.41800000000E+01 0. -1.
        -11    1    1    2    0    0 -0.23899334592E+01  0.31250680759E+02 -0.89811175525E+02  0.95122889354E+02  0.00000000000E+00 0.  1.
         11    1    1    2    0    0  0.11230655578E+02 -0.20032987667E+02  0.39774772834E+01  0.23308121870E+02  0.00000000000E+00 0. -1.
</event>
<event>
 7    1  0.2856214E-009  0.1349820E+03  0.7561462E-02  0.1220245E+00
          1   -1    0    0  501    0  0.00000000000E+00  0.00000000000E+00  0.79343461754E+03  0.79343461754E+03  0.00000000000E+00 0. -1.
         -1   -1    0    0    0  501 -0.00000000000E+00 -0.00000000000E+00 -0.63288388152E+02  0.63288388152E+02  0.00000000000E+00 0.  1.
         25    2    1    2    0    0  0.76914396068E+02  0.61084566779E+02  0.69950589573E+03  0.71735871741E+03  0.12509149720E+03 0.  0.
          5    1    3    3  502    0  0.10321458421E+03  0.71494851288E+02  0.48720719822E+03  0.50314321078E+03  0.41800000000E+01 0.  1.
         -5    1    3    3    0  502 -0.26300188145E+02 -0.10410284509E+02  0.21229869751E+03  0.21421550664E+03  0.41800000000E+01 0.  1.
        -11    1    1    2    0    0 -0.82085814494E+02 -0.35143818711E+02  0.53765223894E+02  0.10422988168E+03  0.00000000000E+00 0. -1.
         11    1    1    2    0    0  0.51714184257E+01 -0.25940748067E+02 -0.23124890231E+02  0.35134406599E+02  0.00000000000E+00 0.  1.
</event>
<event>
 7    1  0.2856214E-009  0.1129175E+03  0.7561462E-02  0.1255261E+00
         -1   -1    0    0    0  501 -0.00000000000E+00  0.00000000000E+00  0.11701327786E+03  0.11701327786E+03  0.00000000000E+00 0.  1.
          1   -1    0    0  501    0  0.00000000000E+00 -0.00000000000E+00 -0.17971488192E+03  0.17971488192E+03  0.00000000000E+00 0. -1.
         25    2    1    2    0    0  0.32160564922E+02  0.39631715405E+02  0.49053994781E+02  0.14371760537E+03  0.12507390171E+03 0.  0.
          5    1    3    3  502    0  0.56692609519E+02 -0.25169762364E+02  0.70133490463E+01  0.62563794453E+02  0.41800000000E+01 0. -1.
         -5    1    3    3    0  502 -0.24532044598E+02  0.64801477769E+02  0.42040645735E+02  0.81153810921E+02  0.41800000000E+01 0. -1.
        -11    1    1    2    0    0 -0.54500762707E+02 -0.73531660704E+01 -0.96150795205E+02  0.11076722261E+03  0.00000000000E+00 0. -1.
         11    1    1    2    0    0  0.22340197785E+02 -0.32278549335E+02 -0.15604803643E+02  0.42243331793E+02  0.00000000000E+00 0.  1.
</event>
<event>
 7    1  0.2856214E-009  0.1654514E+03  0.7561462E-02  0.1182676E+00
         -1   -1    0    0    0  501 -0.00000000000E+00  0.00000000000E+00  0.66612446277E+02  0.66612446277E+02  0.00000000000E+00 0.  1.
          1   -1    0    0  501    0  0.00000000000E+00 -0.00000000000E+00 -0.53058098952E+03  0.53058098952E+03  0.00000000000E+00 0. -1.
         25    2    1    2    0    0  0.76111865442E+02  0.12233557714E+03 -0.15896552001E+03  0.24834449155E+03  0.12508373369E+03 0.  0.
          5    1    3    3  502    0 -0.10042272548E+02  0.56676462220E+02 -0.11999176201E+03  0.13314865361E+03  0.41800000000E+01 0.  1.
         -5    1    3    3    0  502  0.86154137990E+02  0.65659114923E+02 -0.38973758001E+02  0.11519583794E+03  0.41800000000E+01 0.  1.
        -11    1    1    2    0    0  0.17143795408E+02 -0.18346231181E+02 -0.22564964827E+02  0.33759021864E+02  0.00000000000E+00 0. -1.
         11    1    1    2    0    0 -0.93255660850E+02 -0.10398934596E+03 -0.28243805841E+03  0.31508992239E+03  0.00000000000E+00 0.  1.
</event>
<event>
 7    1  0.2856214E-009  0.1871811E+03  0.7561462E-02  0.1161029E+00
         -2   -1    0    0    0  501 -0.00000000000E+00  0.00000000000E+00  0.58839063873E+02  0.58839063873E+02  0.00000000000E+00 0. -1.
          2   -1    0    0  501    0  0.00000000000E+00 -0.00000000000E+00 -0.68422695966E+03  0.68422695966E+03  0.00000000000E+00 0.  1.
         25    2    1    2    0    0  0.12547132557E+03 -0.11378302557E+03 -0.30231583526E+03  0.36841894021E+03  0.12509204934E+03 0.  0.
          5    1    3    3  502    0 -0.18763916315E+02 -0.14378366271E+02 -0.69535859291E+01  0.24992933589E+02  0.41800000000E+01 0.  1.
         -5    1    3    3    0  502  0.14423524189E+03 -0.99404659297E+02 -0.29536224933E+03  0.34342600662E+03  0.41800000000E+01 0.  1.
        -11    1    1    2    0    0 -0.12137091733E+03  0.90252652264E+02 -0.31500828556E+03  0.34943763504E+03  0.00000000000E+00 0.  1.
         11    1    1    2    0    0 -0.41004082444E+01  0.23530373304E+02 -0.80637749599E+01  0.25209448273E+02  0.00000000000E+00 0. -1.
</event>
<event>
 7    1  0.2856214E-009  0.1098808E+03  0.7561462E-02  0.1260791E+00
          1   -1    0    0  501    0  0.00000000000E+00  0.00000000000E+00  0.17292413740E+03  0.17292413740E+03  0.00000000000E+00 0. -1.
         -1   -1    0    0    0  501 -0.00000000000E+00 -0.00000000000E+00 -0.12110005165E+03  0.12110005165E+03  0.00000000000E+00 0.  1.
         25    2    1    2    0    0  0.74611655834E+02 -0.55080004093E+01 -0.33058874638E+02  0.14945699169E+03  0.12508903197E+03 0.  0.
          5    1    3    3  502    0  0.96509041625E+02  0.31616704646E+02 -0.30315121036E+02  0.10606644187E+03  0.41800000000E+01 0. -1.
         -5    1    3    3    0  502 -0.21897385791E+02 -0.37124705055E+02 -0.27437536022E+01  0.43390549821E+02  0.41800000000E+01 0. -1.
        -11    1    1    2    0    0 -0.48795872741E+02  0.34014932086E+01  0.10227371393E+03  0.11336895481E+03  0.00000000000E+00 0. -1.
         11    1    1    2    0    0 -0.25815783093E+02  0.21065072007E+01 -0.17390753539E+02  0.31198242546E+02  0.00000000000E+00 0.  1.
</event>
<event>
 7    1  0.2856214E-009  0.1075826E+03  0.7561462E-02  0.1265113E+00
          1   -1    0    0  501    0  0.00000000000E+00  0.00000000000E+00  0.42682528259E+03  0.42682528259E+03  0.00000000000E+00 0. -1.
         -1   -1    0    0    0  501 -0.00000000000E+00 -0.00000000000E+00 -0.31467654772E+02  0.31467654772E+02  0.00000000000E+00 0.  1.
         25    2    1    2    0    0  0.83683892039E+00 -0.39775238651E+02  0.20478716631E+03  0.24324586555E+03  0.12509195703E+03 0.  0.
          5    1    3    3  502    0  0.14621561602E+01 -0.84150032119E+02  0.11060674613E+03  0.13904923767E+03  0.41800000000E+01 0.  1.
         -5    1    3    3    0  502 -0.62531723981E+00  0.44374793468E+02  0.94180420177E+02  0.10419662788E+03  0.41800000000E+01 0.  1.
        -11    1    1    2    0    0 -0.20424857506E+02  0.56806242435E+02  0.17419075646E+03  0.18435439680E+03  0.00000000000E+00 0. -1.
         11    1    1    2    0    0  0.19588018585E+02 -0.17031003784E+02  0.16379705051E+02  0.30692675014E+02  0.00000000000E+00 0.  1.
</event>
<event>
 7    1  0.2856214E-009  0.1767150E+03  0.7561462E-02  0.1171021E+00
          1   -1    0    0  501    0  0.00000000000E+00  0.00000000000E+00  0.30147320465E+03  0.30147320465E+03  0.00000000000E+00 0. -1.
         -1   -1    0    0    0  501 -0.00000000000E+00 -0.00000000000E+00 -0.11333245410E+03  0.11333245410E+03  0.00000000000E+00 0.  1.
         25    2    1    2    0    0  0.14431728859E+03 -0.16151337678E+02  0.61857547621E+02  0.20140004772E+03  0.12508907838E+03 0.  0.
          5    1    3    3  502    0 -0.12917885081E+02 -0.28752298687E+02  0.21949444569E+02  0.38636989422E+02  0.41800000000E+01 0.  1.
         -5    1    3    3    0  502  0.15723517367E+03  0.12600961008E+02  0.39908103052E+02  0.16276305830E+03  0.41800000000E+01 0.  1.
        -11    1    1    2    0    0 -0.83022812800E+02  0.46803802706E+02  0.40362400296E+02  0.10350124033E+03  0.00000000000E+00 0.  1.
         11    1    1    2    0    0 -0.61294475790E+02 -0.30652465028E+02  0.85920802631E+02  0.10990437070E+03  0.00000000000E+00 0. -1.
</event>
<event>
 7    1  0.2856214E-009  0.1079606E+03  0.7561462E-02  0.1264394E+00
          1   -1    0    0  501    0  0.00000000000E+00  0.00000000000E+00  0.23231279232E+03  0.23231279232E+03  0.00000000000E+00 0. -1.
         -1   -1    0    0    0  501 -0.00000000000E+00 -0.00000000000E+00 -0.65617118760E+02  0.65617118760E+02  0.00000000000E+00 0.  1.
         25    2    1    2    0    0 -0.37385624370E+02 -0.43293743855E+02  0.10245055200E+03  0.17152032670E+03  0.12510425132E+03 0.  0.
          5    1    3    3  502    0 -0.29836493214E+02  0.42001742675E+02  0.42318100714E+02  0.66803119411E+02  0.41800000000E+01 0.  1.
         -5    1    3    3    0  502 -0.75491311563E+01 -0.85295486530E+02  0.60132451291E+02  0.10471720729E+03  0.41800000000E+01 0.  1.
        -11    1    1    2    0    0 -0.90208721587E+01  0.28344939977E+02 -0.15041242185E+02  0.33332427503E+02  0.00000000000E+00 0.  1.
         11    1    1    2    0    0  0.46406496529E+02  0.14948803879E+02  0.79286363742E+02  0.93077156880E+02  0.00000000000E+00 0. -1.
</event>
<event>
 7    1  0.2856214E-009  0.9105616E+02  0.7561462E-02  0.1300314E+00
         -1   -1    0    0    0  501 -0.00000000000E+00  0.00000000000E+00  0.41090310717E+02  0.41090310717E+02  0.00000000000E+00 0.  1.
          1   -1    0    0  501    0  0.00000000000E+00 -0.00000000000E+00 -0.33277109068E+03  0.33277109068E+03  0.00000000000E+00 0. -1.
         25    2    1    2    0    0  0.20989568267E+02 -0.29369325530E+00 -0.24275105908E+03  0.27389022815E+03  0.12508849732E+03 0.  0.
          5    1    3    3  502    0  0.20237508606E+02 -0.56630188557E+02 -0.71288839028E+02  0.93360087728E+02  0.41800000000E+01 0. -1.
         -5    1    3    3    0  502  0.75205966045E+00  0.56336495302E+02 -0.17146222005E+03  0.18053014043E+03  0.41800000000E+01 0. -1.
        -11    1    1    2    0    0  0.18847734045E+02 -0.13490873981E+02 -0.52775755692E+02  0.57641314595E+02  0.00000000000E+00 0. -1.
         11    1    1    2    0    0 -0.39837302312E+02  0.13784567237E+02  0.38460348108E+01  0.42329858648E+02  0.00000000000E+00 0.  1.
</event>
<event>
 7    1  0.2856214E-009  0.1357619E+03  0.7561462E-02  0.1219148E+00
         -1   -1    0    0    0  501 -0.00000000000E+00  0.00000000000E+00  0.61051791339E+02  0.61051791339E+02  0.00000000000E+00 0.  1.
          1   -1    0    0  501    0  0.00000000000E+00 -0.00000000000E+00 -0.43963669275E+03  0.43963669275E+03  0.00000000000E+00 0. -1.
         25    2    1    2    0    0  0.76479686126E+02 -0.79528274614E+02 -0.28461827091E+03  0.32989231878E+03  0.12508993964E+03 0.  0.
          5    1    3    3  502    0  0.13137238296E+02  0.12049691103E+02 -0.16652149282E+03  0.16752510873E+03  0.41800000000E+01 0. -1.
         -5    1    3    3    0  502  0.63342447830E+02 -0.91577965716E+02 -0.11809677809E+03  0.16236721005E+03  0.41800000000E+01 0. -1.
        -11    1    1    2    0    0  0.20316950599E+02  0.17545355579E+02 -0.10861303276E+02  0.28958347551E+02  0.00000000000E+00 0.  1.
         11    1    1    2    0    0 -0.96796636725E+02  0.61982919035E+02 -0.83105327218E+02  0.14183781775E+03  0.00000000000E+00 0. -1.
</event>
<event>
 7    1  0.3411250E-009  0.1632619E+03  0.7561462E-02  0.1185062E+00
          1   -1    0    0  501    0  0.00000000000E+00  0.00000000000E+00  0.60743445771E+03  0.60743445771E+03  0.00000000000E+00 0. -1.
         -1   -1    0    0    0  501 -0.00000000000E+00 -0.00000000000E+00 -0.50268805601E+02  0.50268805601E+02  0.00000000000E+00 0.  1.
         25    2    1    2    0    0  0.12717539321E+03 -0.28556723696E+02  0.37060909006E+03  0.41229471607E+03  0.12508704232E+03 0.  0.
          5    1    3    3  502    0  0.73011374339E+02  0.42556999908E+02  0.23547881849E+03  0.25021891491E+03  0.41800000000E+01 0.  1.
         -5    1    3    3    0  502  0.54164018870E+02 -0.71113723604E+02  0.13513027157E+03  0.16207580115E+03  0.41800000000E+01 0.  1.
        -11    1    1    2    0    0 -0.61626884504E+02 -0.26245396644E+02  0.47187870267E+02  0.81935272252E+02  0.00000000000E+00 0. -1.
         11    1    1    2    0    0 -0.65548508705E+02  0.54802120340E+02  0.13936869179E+03  0.16347327500E+03  0.00000000000E+00 0.  1.
</event>
<event>
 7    1  0.2856214E-009  0.1303414E+03  0.7561462E-02  0.1226950E+00
          2   -1    0    0  501    0  0.00000000000E+00  0.00000000000E+00  0.17898260652E+03  0.17898260652E+03  0.00000000000E+00 0. -1.
         -2   -1    0    0    0  501 -0.00000000000E+00 -0.00000000000E+00 -0.15609077191E+03  0.15609077191E+03  0.00000000000E+00 0.  1.
         25    2    1    2    0    0  0.10339036378E+03 -0.74065310297E+02  0.15361045502E+02  0.17904936319E+03  0.12508986861E+03 0.  0.
          5    1    3    3  502    0  0.47729559119E+02 -0.10772675097E+02  0.64752834842E+02  0.81268464748E+02  0.41800000000E+01 0. -1.
         -5    1    3    3    0  502  0.55660804661E+02 -0.63292635201E+02 -0.49391789340E+02  0.97780898443E+02  0.41800000000E+01 0. -1.
        -11    1    1    2    0    0 -0.29087895545E+02  0.20334373673E+02 -0.39391258268E+02  0.53021350868E+02  0.00000000000E+00 0.  1.
         11    1    1    2    0    0 -0.74302468236E+02  0.53730936624E+02  0.46922047379E+02  0.10300266437E+03  0.00000000000E+00 0. -1.
</event>
<event>
 7    1  0.2856214E-009  0.1048542E+03  0.7561462E-02  0.1270407E+00
         -1   -1    0    0    0  501 -0.00000000000E+00  0.00000000000E+00  0.11010366290E+03  0.11010366290E+03  0.00000000000E+00 0.  1.
          1   -1    0    0  501    0  0.00000000000E+00 -0.00000000000E+00 -0.17838385960E+03  0.17838385960E+03  0.00000000000E+00 0. -1.
         25    2    1    2    0    0  0.44210775654E+01  0.48654655180E+01 -0.12647421105E+03  0.17800558659E+03  0.12508814538E+03 0.  0.
          5    1    3    3  502    0  0.55469017919E+02 -0.20748592250E+02 -0.96675386094E+02  0.11345007142E+03  0.41800000000E+01 0.  1.
         -5    1    3    3    0  502 -0.51047940354E+02  0.25614057768E+02 -0.29798824951E+02  0.64555515165E+02  0.41800000000E+01 0.  1.
        -11    1    1    2    0    0  0.21956240372E+02 -0.42076397086E+02  0.37040642790E+02  0.60203894404E+02  0.00000000000E+00 0. -1.
         11    1    1    2    0    0 -0.26377317937E+02  0.37210931568E+02  0.21153371550E+02  0.50278041506E+02  0.00000000000E+00 0.  1.
</event>
<event>
 7    1  0.2856214E-009  0.1077934E+03  0.7561462E-02  0.1264712E+00
          2   -1    0    0  501    0  0.00000000000E+00  0.00000000000E+00  0.39257001883E+03  0.39257001883E+03  0.00000000000E+00 0. -1.
         -2   -1    0    0    0  501 -0.00000000000E+00 -0.00000000000E+00 -0.58719487217E+02  0.58719487217E+02  0.00000000000E+00 0.  1.
         25    2    1    2    0    0 -0.19402685257E+02 -0.86402198573E+02  0.92184195855E+02  0.17884994426E+03  0.12509025734E+03 0.  0.
          5    1    3    3  502    0  0.53131297279E+01 -0.85267488116E+02  0.11608634366E+03  0.14419530319E+03  0.41800000000E+01 0. -1.
         -5    1    3    3    0  502 -0.24715814985E+02 -0.11347104568E+01 -0.23902147803E+02  0.34654641071E+02  0.41800000000E+01 0. -1.
        -11    1    1    2    0    0 -0.17453794487E+02  0.50803100678E+02  0.47767184093E+02  0.71883891496E+02  0.00000000000E+00 0.  1.
         11    1    1    2    0    0  0.36856479744E+02  0.35599097896E+02  0.19389915167E+03  0.20055567030E+03  0.00000000000E+00 0. -1.
</event>
<event>
 7    1  0.2856214E-009  0.1426749E+03  0.7561462E-02  0.1209774E+00
          2   -1    0    0  501    0  0.00000000000E+00  0.00000000000E+00  0.61488352058E+03  0.61488352058E+03  0.00000000000E+00 0. -1.
         -2   -1    0    0    0  501 -0.00000000000E+00 -0.00000000000E+00 -0.43757504030E+02  0.43757504030E+02  0.00000000000E+00 0.  1.
         25    2    1    2    0    0  0.11643893264E+01 -0.11874111786E+03  0.24265049903E+03  0.29771232675E+03  0.12511017524E+03 0.  0.
          5    1    3    3  502    0 -0.32711451896E+02 -0.10130134294E+03  0.23583507286E+03  0.25878109505E+03  0.41800000000E+01 0.  1.
         -5    1    3    3    0  502  0.33875841222E+02 -0.17439774920E+02  0.68154261714E+01  0.38931231700E+02  0.41800000000E+01 0.  1.
        -11    1    1    2    0    0  0.18533721245E+02 -0.15445168673E+01  0.12904889681E+02  0.22636707650E+02  0.00000000000E+00 0.  1.
         11    1    1    2    0    0 -0.19698110571E+02  0.12028563473E+03  0.31557062784E+03  0.33829199021E+03  0.00000000000E+00 0. -1.
</event>
<event>
 7    1  0.2856214E-009  0.9980575E+02  0.7561462E-02  0.1280705E+00
         -2   -1    0    0    0  501 -0.00000000000E+00  0.00000000000E+00  0.22112302546E+02  0.22112302546E+02  0.00000000000E+00 0. -1.
          2   -1    0    0  501    0  0.00000000000E+00 -0.00000000000E+00 -0.10089128461E+04  0.10089128461E+04  0.00000000000E+00 0.  1.
         25    2    1    2    0    0 -0.49655202572E+02  0.74106829882E+02 -0.79214584788E+03  0.80690792688E+03  0.12509155355E+03 0.  0.
          5    1    3    3  502    0 -0.12510971197E+02  0.42984290713E+02 -0.70453306520E+02  0.83578193615E+02  0.41800000000E+01 0.  1.
         -5    1    3    3    0  502 -0.37144231374E+02  0.31122539169E+02 -0.72169254136E+03  0.72332973327E+03  0.41800000000E+01 0.  1.
        -11    1    1    2    0    0 -0.12659687870E+02 -0.71398962384E+01 -0.57119106931E+02  0.58939275461E+02  0.00000000000E+00 0.  1.
         11    1    1    2    0    0  0.62314890442E+02 -0.66966933644E+02 -0.13753558870E+03  0.16517794626E+03  0.00000000000E+00 0. -1.
</event>
<event>
 7    1  0.2856214E-009  0.2970930E+03  0.7561462E-02  0.1086703E+00
         -1   -1    0    0    0  501 -0.00000000000E+00  0.00000000000E+00  0.30651149898E+03  0.30651149898E+03  0.00000000000E+00 0.  1.
          1   -1    0    0  501    0  0.00000000000E+00 -0.00000000000E+00 -0.29937534990E+03  0.29937534990E+03  0.00000000000E+00 0. -1.
         25    2    1    2    0    0 -0.26371040009E+03  0.97683322296E+02 -0.23484124568E+02  0.30867954362E+03  0.12508537072E+03 0.  0.
          5    1    3    3  502    0 -0.14330796601E+03 -0.12671718820E+02 -0.19589894820E+02  0.14525488618E+03  0.41800000000E+01 0. -1.
         -5    1    3    3    0  502 -0.12040243408E+03  0.11035504112E+03 -0.38942297480E+01  0.16342465744E+03  0.41800000000E+01 0. -1.
        -11    1    1    2    0    0  0.84442414423E+02 -0.60282011255E+02 -0.23240485781E+02  0.10632291575E+03  0.00000000000E+00 0. -1.
         11    1    1    2    0    0  0.17926798567E+03 -0.37401311041E+02  0.53860759435E+02  0.19088438952E+03  0.00000000000E+00 0.  1.
</event>
<event>
 7    1  0.2856214E-009  0.8730416E+02  0.7561462E-02  0.1309515E+00
         -2   -1    0    0    0  501 -0.00000000000E+00  0.00000000000E+00  0.23112883179E+02  0.23112883179E+02  0.00000000000E+00 0. -1.
          2   -1    0    0  501    0  0.00000000000E+00 -0.00000000000E+00 -0.61810134229E+03  0.61810134229E+03  0.00000000000E+00 0.  1.
         25    2    1    2    0    0 -0.21568771043E+02  0.31952324545E+02 -0.25959333283E+03  0.29072685537E+03  0.12508894059E+03 0.  0.
          5    1    3    3  502    0  0.22218397409E+02  0.64527400230E+01 -0.23139760159E+03  0.23258894526E+03  0.41800000000E+01 0. -1.
         -5    1    3    3    0  502 -0.43787168452E+02  0.25499584522E+02 -0.28195731235E+02  0.58137910107E+02  0.41800000000E+01 0. -1.
        -11    1    1    2    0    0 -0.32357767023E+02  0.77694419819E+01 -0.84787786374E+02  0.91084345711E+02  0.00000000000E+00 0.  1.
         11    1    1    2    0    0  0.53926538066E+02 -0.39721766527E+02 -0.25060733991E+03  0.25940302439E+03  0.00000000000E+00 0. -1.
</event>
<event>
 7    1  0.2856214E-009  0.1135935E+03  0.7561462E-02  0.1254056E+00
          1   -1    0    0  501    0  0.00000000000E+00  0.00000000000E+00  0.16287097185E+04  0.16287097185E+04  0.00000000000E+00 0. -1.
         -1   -1    0    0    0  501 -0.00000000000E+00 -0.00000000000E+00 -0.11353551950E+02  0.11353551950E+02  0.00000000000E+00 0.  1.
         25    2    1    2    0    0 -0.98243901885E+01  0.76162521053E+02  0.10612936941E+04  0.10713964213E+04  0.12509491638E+03 0.  0.
          5    1    3    3  502    0 -0.23158601837E+02 -0.72509336348E+01  0.42654510863E+02  0.49252173298E+02  0.41800000000E+01 0. -1.
         -5    1    3    3    0  502  0.13334211649E+02  0.83413454688E+02  0.10186391833E+04  0.10221442480E+04  0.41800000000E+01 0. -1.
        -11    1    1    2    0    0 -0.13422636759E+02 -0.89958264788E+02  0.39372704918E+03  0.40409608491E+03  0.00000000000E+00 0.  1.
         11    1    1    2    0    0  0.23247026947E+02  0.13795743735E+02  0.16233542319E+03  0.16457076420E+03  0.00000000000E+00 0. -1.
</event>
<event>
 7    1  0.2856214E-009  0.2155866E+03  0.7561462E-02  0.1137217E+00
          2   -1    0    0  501    0  0.00000000000E+00  0.00000000000E+00  0.43173470921E+03  0.43173470921E+03  0.00000000000E+00 0. -1.
         -2   -1    0    0    0  501 -0.00000000000E+00 -0.00000000000E+00 -0.11166254105E+03  0.11166254105E+03  0.00000000000E+00 0.  1.
         25    2    1    2    0    0 -0.71635911360E+02 -0.17637258032E+03  0.18255615849E+03  0.29190933799E+03  0.12508125248E+03 0.  0.
          5    1    3    3  502    0  0.23748885372E+02 -0.50862717666E+01  0.48395934221E+02  0.54309470316E+02  0.41800000000E+01 0.  1.
         -5    1    3    3    0  502 -0.95384796732E+02 -0.17128630855E+03  0.13416022427E+03  0.23759986768E+03  0.41800000000E+01 0.  1.
        -11    1    1    2    0    0  0.43484470298E+02  0.14070285720E+02  0.33562732739E+02  0.56703872233E+02  0.00000000000E+00 0. -1.
         11    1    1    2    0    0  0.28151441062E+02  0.16230229460E+03  0.10395327693E+03  0.19478404003E+03  0.00000000000E+00 0.  1.
</event>
<event>
 7    1  0.2856214E-009  0.9632883E+02  0.7561462E-02  0.1288211E+00
          1   -1    0    0  501    0  0.00000000000E+00  0.00000000000E+00  0.90904327176E+03  0.90904327176E+03  0.00000000000E+00 0. -1.
         -1   -1    0    0    0  501 -0.00000000000E+00 -0.00000000000E+00 -0.18688440699E+02  0.18688440699E+02  0.00000000000E+00 0.  1.
         25    2    1    2    0    0 -0.51836139490E+02 -0.43039214757E+02  0.39622159444E+03  0.42092670107E+03  0.12509347068E+03 0.  0.
          5    1    3    3  502    0 -0.52216152559E+02 -0.14377919280E+02  0.51057526133E+02  0.74549275823E+02  0.41800000000E+01 0. -1.
         -5    1    3    3    0  502  0.38001306900E+00 -0.28661295476E+02  0.34516406831E+03  0.34637742525E+03  0.41800000000E+01 0. -1.
        -11    1    1    2    0    0 -0.53865556598E+01 -0.22053153089E+02  0.61034402201E+02  0.65119542344E+02  0.00000000000E+00 0.  1.
         11    1    1    2    0    0  0.57222695150E+02  0.65092367845E+02  0.43309883441E+03  0.44168546904E+03  0.00000000000E+00 0. -1.
</event>
<event>
 7    1  0.2856214E-009  0.1257636E+03  0.7561462E-02  0.1233881E+00
          1   -1    0    0  501    0  0.00000000000E+00  0.00000000000E+00  0.67104115366E+02  0.67104115366E+02  0.00000000000E+00 0. -1.
         -1   -1    0    0    0  501 -0.00000000000E+00 -0.00000000000E+00 -0.25562773610E+03  0.25562773610E+03  0.00000000000E+00 0.  1.
         25    2    1    2    0    0 -0.21084376740E+02 -0.64389184092E+02 -0.71195422969E+02  0.15908649876E+03  0.12509679399E+03 0.  0.
          5    1    3    3  502    0 -0.70090315662E+02 -0.60810941845E+02 -0.44207465603E+02  0.10287077045E+03  0.41800000000E+01 0.  1.
         -5    1    3    3    0  502  0.49005938922E+02 -0.35782422475E+01 -0.26987957366E+02  0.56215728315E+02  0.41800000000E+01 0.  1.
        -11    1    1    2    0    0 -0.29852663099E+02  0.46657999123E+02 -0.36012200303E+02  0.66068365705E+02  0.00000000000E+00 0. -1.
         11    1    1    2    0    0  0.50937039839E+02  0.17731184969E+02 -0.81315997457E+02  0.97576986992E+02  0.00000000000E+00 0.  1.
</event>
<event>
 7    1  0.2856214E-009  0.1425921E+03  0.7561462E-02  0.1209883E+00
          2   -1    0    0  501    0  0.00000000000E+00  0.00000000000E+00  0.43184735601E+03  0.43184735601E+03  0.00000000000E+00 0. -1.
         -2   -1    0    0    0  501 -0.00000000000E+00 -0.00000000000E+00 -0.18893829618E+03  0.18893829618E+03  0.00000000000E+00 0.  1.
         25    2    1    2    0    0 -0.82371162907E+02 -0.78019129617E+02  0.36003107350E+03  0.39766767025E+03  0.12508080995E+03 0.  0.
          5    1    3    3  502    0 -0.65472646952E+02 -0.35781446749E+02  0.64765908798E+02  0.98889204531E+02  0.41800000000E+01 0. -1.
         -5    1    3    3    0  502 -0.16898515955E+02 -0.42237682868E+02  0.29526516470E+03  0.29877846572E+03  0.41800000000E+01 0. -1.
        -11    1    1    2    0    0 -0.48059937801E+01  0.77442652338E+02 -0.11139026253E+03  0.13575070005E+03  0.00000000000E+00 0.  1.
         11    1    1    2    0    0  0.87177156687E+02  0.57647727956E+00 -0.57317511441E+01  0.87367281893E+02  0.00000000000E+00 0. -1.
</event>
<event>
 7    1  0.3164239E-009  0.1228409E+03  0.7561462E-02  0.1238483E+00
         -1   -1    0    0    0  501 -0.00000000000E+00  0.00000000000E+00  0.16699026054E+02  0.16699026054E+02  0.00000000000E+00 0.  1.
          1   -1    0    0  501    0  0.00000000000E+00 -0.00000000000E+00 -0.93238890414E+03  0.93238890414E+03  0.00000000000E+00 0. -1.
         25    2    1    2    0    0 -0.57403925389E+02 -0.14087324158E+02 -0.56904524717E+03  0.58562264675E+03  0.12509087782E+03 0.  0.
          5    1    3    3  502    0 -0.29698723809E+02 -0.69584522029E+02 -0.33485225490E+03  0.34331840165E+03  0.41800000000E+01 0.  1.
         -5    1    3    3    0  502 -0.27705201580E+02  0.55497197870E+02 -0.23419299227E+03  0.24230424510E+03  0.41800000000E+01 0.  1.
        -11    1    1    2    0    0  0.14136330960E+02  0.49718736698E+02 -0.13602109723E+03  0.14551126254E+03  0.00000000000E+00 0.  1.
         11    1    1    2    0    0  0.43267594429E+02 -0.35631412539E+02 -0.21062353368E+03  0.21795402091E+03  0.00000000000E+00 0. -1.
</event>
<event>
 7    1  0.2856214E-009  0.1955395E+03  0.7561462E-02  0.1153558E+00
         -2   -1    0    0    0  501 -0.00000000000E+00  0.00000000000E+00  0.39240689456E+02  0.39240689456E+02  0.00000000000E+00 0.  1.
          2   -1    0    0  501    0  0.00000000000E+00 -0.00000000000E+00 -0.24911354588E+04  0.24911354588E+04  0.00000000000E+00 0. -1.
         25    2    1    2    0    0 -0.16470991703E+03 -0.26412580405E+02 -0.22261791575E+04  0.22359231965E+04  0.12510762615E+03 0.  0.
          5    1    3    3  502    0 -0.12762755967E+03 -0.72738358647E+02 -0.17180315092E+04  0.17243054839E+04  0.41800000000E+01 0.  1.
         -5    1    3    3    0  502 -0.37082357358E+02  0.46325778242E+02 -0.50814764833E+03  0.51161771261E+03  0.41800000000E+01 0.  1.
        -11    1    1    2    0    0  0.57024110368E+02  0.48317420256E+02 -0.12359713654E+03  0.14443882589E+03  0.00000000000E+00 0. -1.
         11    1    1    2    0    0  0.10768580666E+03 -0.21904839851E+02 -0.10211847530E+03  0.15001412588E+03  0.00000000000E+00 0.  1.
</event>
<event>
 7    1  0.2856214E-009  0.1222079E+03  0.7561462E-02  0.1239499E+00
          3   -1    0    0  501    0  0.00000000000E+00  0.00000000000E+00  0.30775574721E+03  0.30775574721E+03  0.00000000000E+00 0.  1.
         -3   -1    0    0    0  501 -0.00000000000E+00 -0.00000000000E+00 -0.54409498638E+02  0.54409498638E+02  0.00000000000E+00 0. -1.
         25    2    1    2    0    0 -0.68118317948E+02  0.16047580550E+02  0.13080254727E+03  0.19405003002E+03  0.12509387555E+03 0.  0.
          5    1    3    3  502    0  0.26367725462E+02  0.27396873513E+02  0.73572960032E+02  0.82923449472E+02  0.41800000000E+01 0.  1.
         -5    1    3    3    0  502 -0.94486043411E+02 -0.11349292963E+02  0.57229587233E+02  0.11112658055E+03  0.41800000000E+01 0.  1.
        -11    1    1    2    0    0  0.21321094796E+02 -0.49155846035E+02  0.36902144219E+02  0.65058854360E+02  0.00000000000E+00 0. -1.
         11    1    1    2    0    0  0.46797223152E+02  0.33108265484E+02  0.85641557089E+02  0.10305636147E+03  0.00000000000E+00 0.  1.
</event>
<event>
 7    1  0.2856214E-009  0.8834288E+02  0.7561462E-02  0.1306915E+00
         -3   -1    0    0    0  501 -0.00000000000E+00  0.00000000000E+00  0.77694592740E+02  0.77694592740E+02  0.00000000000E+00 0.  1.
          3   -1    0    0  501    0  0.00000000000E+00 -0.00000000000E+00 -0.25763909776E+03  0.25763909776E+03  0.00000000000E+00 0. -1.
         25    2    1    2    0    0  0.26141841264E+01 -0.11926086192E+02  0.11145944208E+02  0.12618164513E+03  0.12509400467E+03 0.  0.
          5    1    3    3  502    0 -0.30499345642E+01  0.52423093590E+02 -0.17339614601E+02  0.55458249854E+02  0.41800000000E+01 0. -1.
         -5    1    3    3    0  502  0.56641186905E+01 -0.64349179781E+02  0.28485558809E+02  0.70723395278E+02  0.41800000000E+01 0. -1.
        -11    1    1    2    0    0  0.14789960857E+02 -0.18825148621E+02 -0.12322211911E+02  0.26925193948E+02  0.00000000000E+00 0.  1.
         11    1    1    2    0    0 -0.17404144983E+02  0.30751234812E+02 -0.17876823732E+03  0.18222685142E+03  0.00000000000E+00 0. -1.
</event>
<event>
 7    1  0.2856214E-009  0.7003185E+02  0.7561462E-02  0.1359985E+00
          1   -1    0    0  501    0  0.00000000000E+00  0.00000000000E+00  0.18759563609E+02  0.18759563609E+02  0.00000000000E+00 0. -1.
         -1   -1    0    0    0  501 -0.00000000000E+00 -0.00000000000E+00 -0.67247262591E+03  0.67247262591E+03  0.00000000000E+00 0.  1.
         25    2    1    2    0    0  0.31864697707E+01 -0.28052861079E+02 -0.42331639826E+03  0.44231580677E+03  0.12509749510E+03 0.  0.
          5    1    3    3  502    0 -0.16115940201E+02 -0.13132609153E+02 -0.31699162749E+01  0.21440842356E+02  0.41800000000E+01 0.  1.
         -5    1    3    3    0  502  0.19302409972E+02 -0.14920251926E+02 -0.42014648198E+03  0.42087496442E+03  0.41800000000E+01 0.  1.
        -11    1    1    2    0    0 -0.23886821929E+02  0.55095258631E+02 -0.14116204976E+03  0.15340401585E+03  0.00000000000E+00 0.  1.
         11    1    1    2    0    0  0.20700352158E+02 -0.27042397552E+02 -0.89234614284E+02  0.95512366902E+02  0.00000000000E+00 0. -1.
</event>
<event>
 7    1  0.2856214E-009  0.1086934E+03  0.7561462E-02  0.1263009E+00
          1   -1    0    0  501    0  0.00000000000E+00  0.00000000000E+00  0.23410410101E+03  0.23410410101E+03  0.00000000000E+00 0. -1.
         -1   -1    0    0    0  501 -0.00000000000E+00 -0.00000000000E+00 -0.88288546418E+02  0.88288546418E+02  0.00000000000E+00 0.  1.
         25    2    1    2    0    0 -0.15758217516E+02  0.43488519732E+02 -0.11604985945E+02  0.13386909805E+03  0.12508671770E+03 0.  0.
          5    1    3    3  502    0 -0.68040626164E+02  0.41285128468E+02  0.16984278598E+01  0.79714149927E+02  0.41800000000E+01 0.  1.
         -5    1    3    3    0  502  0.52282408648E+02  0.22033912644E+01 -0.13303413805E+02  0.54154948121E+02  0.41800000000E+01 0.  1.
        -11    1    1    2    0    0  0.46780044380E+01  0.20105847093E+02  0.26270349527E+01  0.20809375903E+02  0.00000000000E+00 0.  1.
         11    1    1    2    0    0  0.11080213078E+02 -0.63594366824E+02  0.15479350559E+03  0.16771417348E+03  0.00000000000E+00 0. -1.
</event>
<event>
 7    1  0.3331819E-009  0.9751052E+02  0.7561462E-02  0.1285620E+00
          2   -1    0    0  501    0  0.00000000000E+00  0.00000000000E+00  0.80964246337E+03  0.80964246337E+03  0.00000000000E+00 0. -1.
         -2   -1    0    0    0  501 -0.00000000000E+00 -0.00000000000E+00 -0.17085320928E+02  0.17085320928E+02  0.00000000000E+00 0.  1.
         25    2    1    2    0    0  0.17309572792E+02  0.14598224540E+02  0.59192149644E+03  0.60541741046E+03  0.12508578444E+03 0.  0.
          5    1    3    3  502    0 -0.32694104306E+02  0.50090671412E+02  0.20304207866E+03  0.21171097734E+03  0.41800000000E+01 0. -1.
         -5    1    3    3    0  502  0.50003677098E+02 -0.35492446873E+02  0.38887941778E+03  0.39370643312E+03  0.41800000000E+01 0. -1.
        -11    1    1    2    0    0  0.15314844442E+02 -0.32828286053E+02  0.31220717155E+02  0.47822317020E+02  0.00000000000E+00 0.  1.
         11    1    1    2    0    0 -0.32624417234E+02  0.18230061514E+02  0.16941492885E+03  0.17348805682E+03  0.00000000000E+00 0. -1.
</event>
<event>
 7    1  0.2856214E-009  0.7861728E+02  0.7561462E-02  0.1333022E+00
         -1   -1    0    0    0  501 -0.00000000000E+00  0.00000000000E+00  0.90658136415E+03  0.90658136415E+03  0.00000000000E+00 0.  1.
          1   -1    0    0  501    0  0.00000000000E+00 -0.00000000000E+00 -0.13750580385E+02  0.13750580385E+02  0.00000000000E+00 0. -1.
         25    2    1    2    0    0  0.51724237486E+01 -0.49004523307E+00  0.55686861668E+03  0.57076912033E+03  0.12509092040E+03 0.  0.
          5    1    3    3  502    0  0.83918408122E+01  0.29282990773E+02  0.52822481887E+03  0.52911893579E+03  0.41800000000E+01 0.  1.
         -5    1    3    3    0  502 -0.32194170635E+01 -0.29773036006E+02  0.28643797810E+02  0.41650184540E+02  0.41800000000E+01 0.  1.
        -11    1    1    2    0    0 -0.47927661370E+02  0.16362908603E+02  0.19065265685E+03  0.19726439381E+03  0.00000000000E+00 0. -1.
         11    1    1    2    0    0  0.42755237622E+02 -0.15872863370E+02  0.14530951025E+03  0.15229843040E+03  0.00000000000E+00 0.  1.
</event>
<event>
 7    1  0.2856214E-009  0.1268404E+03  0.7561462E-02  0.1232221E+00
         -2   -1    0    0    0  501 -0.00000000000E+00  0.00000000000E+00  0.96761913396E+02  0.96761913396E+02  0.00000000000E+00 0.  1.
          2   -1    0    0  501    0  0.00000000000E+00 -0.00000000000E+00 -0.17008935788E+03  0.17008935788E+03  0.00000000000E+00 0. -1.
         25    2    1    2    0    0  0.33647215732E+02 -0.56969336381E+02 -0.58585182736E+02  0.15315349526E+03  0.12508448769E+03 0.  0.
          5    1    3    3  502    0  0.28553605083E+02 -0.96763869668E+02 -0.45446387999E+02  0.11073121249E+03  0.41800000000E+01 0. -1.
         -5    1    3    3    0  502  0.50936106493E+01  0.39794533288E+02 -0.13138794738E+02  0.42422282779E+02  0.41800000000E+01 0. -1.
        -11    1    1    2    0    0  0.27489251740E+02  0.40684574986E+02 -0.18888161580E+01  0.49137167496E+02  0.00000000000E+00 0.  1.
         11    1    1    2    0    0 -0.61136467472E+02  0.16284761395E+02 -0.12853445592E+02  0.64560608518E+02  0.00000000000E+00 0. -1.
</event>
<event>
 7    1  0.2856214E-009  0.1435672E+03  0.7561462E-02  0.1208608E+00
         -2   -1    0    0    0  501 -0.00000000000E+00  0.00000000000E+00  0.35700236698E+02  0.35700236698E+02  0.00000000000E+00 0.  1.
          2   -1    0    0  501    0  0.00000000000E+00 -0.00000000000E+00 -0.95172332057E+03  0.95172332057E+03  0.00000000000E+00 0. -1.
         25    2    1    2    0    0  0.10114173186E+03  0.48040435741E+02 -0.22051642761E+03  0.27715329627E+03  0.12509564899E+03 0.  0.
          5    1    3    3  502    0  0.62135005084E+02 -0.22333934708E+02 -0.34889951438E+02  0.74795351511E+02  0.41800000000E+01 0.  1.
         -5    1    3    3    0  502  0.39006726774E+02  0.70374370449E+02 -0.18562647618E+03  0.20235794476E+03  0.41800000000E+01 0.  1.
        -11    1    1    2    0    0 -0.11620292914E+03 -0.37816036750E+02 -0.64744931369E+03  0.65888070785E+03  0.00000000000E+00 0. -1.
         11    1    1    2    0    0  0.15061197279E+02 -0.10224398991E+02 -0.48057342568E+02  0.51389553149E+02  0.00000000000E+00 0.  1.
</event>
<event>
 7    1  0.2856214E-009  0.1266212E+03  0.7561462E-02  0.1232557E+00
          1   -1    0    0  501    0  0.00000000000E+00  0.00000000000E+00  0.73853946791E+03  0.73853946791E+03  0.00000000000E+00 0. -1.
         -1   -1    0    0    0  501 -0.00000000000E+00 -0.00000000000E+00 -0.36380699317E+02  0.36380699317E+02  0.00000000000E+00 0.  1.
         25    2    1    2    0    0  0.14453644799E+02  0.81438005192E+02  0.58919492979E+03  0.60798004871E+03  0.12509203732E+03 0.  0.
          5    1    3    3  502    0 -0.11597163619E+02 -0.31242427047E+02  0.11029728744E+03  0.11529764728E+03  0.41800000000E+01 0. -1.
         -5    1    3    3    0  502  0.26050808418E+02  0.11268043224E+03  0.47889764235E+03  0.49268240142E+03  0.41800000000E+01 0. -1.
        -11    1    1    2    0    0 -0.27191287541E+02 -0.65565033412E+01  0.78868701315E+02  0.83681693944E+02  0.00000000000E+00 0.  1.
         11    1    1    2    0    0  0.12737642742E+02 -0.74881501851E+02  0.34095137487E+02  0.83258424573E+02  0.00000000000E+00 0. -1.
</event>
<event>
 7    1  0.2856214E-009  0.1915836E+03  0.7561462E-02  0.1157041E+00
         -2   -1    0    0    0  501 -0.00000000000E+00  0.00000000000E+00  0.45187279833E+02  0.45187279833E+02  0.00000000000E+00 0.  1.
          2   -1    0    0  501    0  0.00000000000E+00 -0.00000000000E+00 -0.10475187402E+04  0.10475187402E+04  0.00000000000E+00 0. -1.
         25    2    1    2    0    0  0.11988295802E+03  0.11302444351E+03 -0.75887938796E+03  0.78657010119E+03  0.12509256639E+03 0.  0.
          5    1    3    3  502    0  0.13496602937E+03  0.12676243036E+03 -0.70116475136E+03  0.72521308853E+03  0.41800000000E+01 0.  1.
         -5    1    3    3    0  502 -0.15083071356E+02 -0.13737986851E+02 -0.57714636600E+02  0.61357012656E+02  0.41800000000E+01 0.  1.
        -11    1    1    2    0    0 -0.36815549786E+02  0.63820420372E-01 -0.18991756354E+02  0.41425542706E+02  0.00000000000E+00 0.  1.
         11    1    1    2    0    0 -0.83067408231E+02 -0.11308826393E+03 -0.22446031605E+03  0.26471037613E+03  0.00000000000E+00 0. -1.
</event>
<event>
 7    1  0.2856214E-009  0.1581657E+03  0.7561462E-02  0.1190783E+00
         -1   -1    0    0    0  501 -0.00000000000E+00  0.00000000000E+00  0.84274572257E+02  0.84274572257E+02  0.00000000000E+00 0. -1.
          1   -1    0    0  501    0  0.00000000000E+00 -0.00000000000E+00 -0.31459134578E+03  0.31459134578E+03  0.00000000000E+00 0.  1.
         25    2    1    2    0    0  0.11247631785E+03  0.26698760879E+02 -0.78913232206E+02  0.18773196620E+03  0.12510894055E+03 0.  0.
          5    1    3    3  502    0  0.35821935899E+02 -0.49630896331E+02 -0.37001055132E+02  0.71644870319E+02  0.41800000000E+01 0. -1.
         -5    1    3    3    0  502  0.76654381950E+02  0.76329657210E+02 -0.41912177075E+02  0.11608709588E+03  0.41800000000E+01 0. -1.
        -11    1    1    2    0    0 -0.61647532086E+02  0.31685554832E+02 -0.79611403020E+02  0.10555741607E+03  0.00000000000E+00 0.  1.
         11    1    1    2    0    0 -0.50828785763E+02 -0.58384315711E+02 -0.71792138292E+02  0.10557653576E+03  0.00000000000E+00 0. -1.
</event>
<event>
 7    1  0.2856214E-009  0.9601332E+02  0.7561462E-02  0.1288910E+00
          2   -1    0    0  501    0  0.00000000000E+00  0.00000000000E+00  0.17330678224E+03  0.17330678224E+03  0.00000000000E+00 0. -1.
         -2   -1    0    0    0  501 -0.00000000000E+00 -0.00000000000E+00 -0.83202856087E+02  0.83202856087E+02  0.00000000000E+00 0.  1.
         25    2    1    2    0    0  0.17932493116E+02  0.16888853042E+02  0.18647599138E+01  0.12750675102E+03  0.12509071333E+03 0.  0.
          5    1    3    3  502    0  0.13845026705E+02  0.61111948633E+02 -0.32951831613E+02  0.70920029870E+02  0.41800000000E+01 0. -1.
         -5    1    3    3    0  502  0.40874664111E+01 -0.44223095591E+02  0.34816591527E+02  0.56586721153E+02  0.41800000000E+01 0. -1.
        -11    1    1    2    0    0 -0.49238542127E+02 -0.20027743110E+02  0.80726065670E+02  0.96655275094E+02  0.00000000000E+00 0. -1.
         11    1    1    2    0    0  0.31306049012E+02  0.31388900679E+01  0.75131005701E+01  0.32347612211E+02  0.00000000000E+00 0.  1.
</event>
<event>
 7    1  0.2856214E-009  0.8135901E+02  0.7561462E-02  0.1325238E+00
          1   -1    0    0  501    0  0.00000000000E+00  0.00000000000E+00  0.58122269221E+02  0.58122269221E+02  0.00000000000E+00 0. -1.
         -1   -1    0    0    0  501 -0.00000000000E+00 -0.00000000000E+00 -0.26580789543E+03  0.26580789543E+03  0.00000000000E+00 0.  1.
         25    2    1    2    0    0  0.46104484360E+02  0.23423658902E+02 -0.75218918686E+02  0.15485330256E+03  0.12508944124E+03 0.  0.
          5    1    3    3  502    0  0.20677362794E+02 -0.21024582639E+02  0.27158763573E+02  0.40307037178E+02  0.41800000000E+01 0. -1.
         -5    1    3    3    0  502  0.25427121566E+02  0.44448241541E+02 -0.10237768226E+03  0.11454626538E+03  0.41800000000E+01 0. -1.
        -11    1    1    2    0    0 -0.26185325483E+02  0.20547288434E+02 -0.11165290305E+03  0.11650851082E+03  0.00000000000E+00 0.  1.
         11    1    1    2    0    0 -0.19919158876E+02 -0.43970947336E+02 -0.20813804475E+02  0.52568351284E+02  0.00000000000E+00 0. -1.
</event>
<event>
 7    1  0.2856214E-009  0.9583246E+02  0.7561462E-02  0.1289312E+00
          1   -1    0    0  501    0  0.00000000000E+00  0.00000000000E+00  0.44620715112E+03  0.44620715112E+03  0.00000000000E+00 0. -1.
         -1   -1    0    0    0  501 -0.00000000000E+00 -0.00000000000E+00 -0.37130597226E+02  0.37130597226E+02  0.00000000000E+00 0.  1.
         25    2    1    2    0    0 -0.69432396832E+02 -0.20110123297E+02  0.28655165020E+03  0.32091772700E+03  0.12510421449E+03 0.  0.
          5    1    3    3  502    0 -0.47424141300E+02 -0.35166473496E+02  0.36764731299E+02  0.69676738612E+02  0.41800000000E+01 0.  1.
         -5    1    3    3    0  502 -0.22008255532E+02  0.15056350199E+02  0.24978691890E+03  0.25124098839E+03  0.41800000000E+01 0.  1.
        -11    1    1    2    0    0  0.85476057574E+02  0.89522215181E+01  0.89764846880E+02  0.12427399738E+03  0.00000000000E+00 0.  1.
         11    1    1    2    0    0 -0.16043660742E+02  0.11157901779E+02  0.32760056817E+02  0.38146023970E+02  0.00000000000E+00 0. -1.
</event>
<event>
 7    1  0.2856214E-009  0.7763017E+02  0.7561462E-02  0.1335914E+00
         -2   -1    0    0    0  501 -0.00000000000E+00  0.00000000000E+00  0.38085384374E+02  0.38085384374E+02  0.00000000000E+00 0.  1.
          2   -1    0    0  501    0  0.00000000000E+00 -0.00000000000E+00 -0.31825363313E+03  0.31825363313E+03  0.00000000000E+00 0. -1.
         25    2    1    2    0    0 -0.34315990049E+02 -0.24698755979E+02 -0.15338296508E+03  0.20238782724E+03  0.12508750105E+03 0.  0.
          5    1    3    3  502    0  0.28839027124E+02 -0.14447950614E+02  0.36881934845E+01  0.32733895790E+02  0.41800000000E+01 0.  1.
         -5    1    3    3    0  502 -0.63155017173E+02 -0.10250805364E+02 -0.15707115856E+03  0.16965393145E+03  0.41800000000E+01 0.  1.
        -11    1    1    2    0    0  0.29572085838E+02  0.35865187910E+02 -0.13258948769E+03  0.14050192956E+03  0.00000000000E+00 0. -1.
         11    1    1    2    0    0  0.47439042116E+01 -0.11166431931E+02  0.58042040105E+01  0.13449260702E+02  0.00000000000E+00 0.  1.
</event>
<event>
 7    1  0.2856214E-009  0.1135717E+03  0.7561462E-02  0.1254095E+00
          1   -1    0    0  501    0  0.00000000000E+00  0.00000000000E+00  0.47788011700E+03  0.47788011700E+03  0.00000000000E+00 0. -1.
         -1   -1    0    0    0  501 -0.00000000000E+00 -0.00000000000E+00 -0.41917563435E+02  0.41917563435E+02  0.00000000000E+00 0.  1.
         25    2    1    2    0    0 -0.89027571981E+01 -0.49338254744E+02  0.38219732271E+03  0.40526052213E+03  0.12509106621E+03 0.  0.
          5    1    3    3  502    0  0.47527055516E+02  0.75964240998E+01  0.88922183833E+02  0.10119858617E+03  0.41800000000E+01 0.  1.
         -5    1    3    3    0  502 -0.56429812714E+02 -0.56934678844E+02  0.29327513888E+03  0.30406193596E+03  0.41800000000E+01 0.  1.
        -11    1    1    2    0    0  0.38892615777E+02 -0.21760608841E+01  0.34095858074E+02  0.51767734553E+02  0.00000000000E+00 0.  1.
         11    1    1    2    0    0 -0.29989858579E+02  0.51514315628E+02  0.19669372780E+02  0.62769423749E+02  0.00000000000E+00 0. -1.
</event>
<event>
 7    1  0.2856214E-009  0.1141134E+03  0.7561462E-02  0.1253137E+00
          1   -1    0    0  501    0  0.00000000000E+00  0.00000000000E+00  0.15799405667E+04  0.15799405667E+04  0.00000000000E+00 0. -1.
         -1   -1    0    0    0  501 -0.00000000000E+00 -0.00000000000E+00 -0.32700140455E+02  0.32700140455E+02  0.00000000000E+00 0.  1.
         25    2    1    2    0    0 -0.25628811610E+02 -0.50248013215E+02  0.14738061967E+04  0.14801803259E+04  0.12508953997E+03 0.  0.
          5    1    3    3  502    0 -0.61150097857E+02  0.20721844390E+01  0.10356571123E+04  0.10374713274E+04  0.41800000000E+01 0.  1.
         -5    1    3    3    0  502  0.35521286247E+02 -0.52320197654E+02  0.43814908441E+03  0.44270899859E+03  0.41800000000E+01 0.  1.
        -11    1    1    2    0    0 -0.12518167522E+02  0.62277601985E+02  0.21830188211E+02  0.67169646005E+02  0.00000000000E+00 0.  1.
         11    1    1    2    0    0  0.38146979132E+02 -0.12029588770E+02  0.51604041286E+02  0.65290735177E+02  0.00000000000E+00 0. -1.
</event>
<event>
 7    1  0.3358802E-009  0.1251656E+03  0.7561462E-02  0.1234811E+00
          1   -1    0    0  501    0  0.00000000000E+00  0.00000000000E+00  0.63851178452E+03  0.63851178452E+03  0.00000000000E+00 0. -1.
         -1   -1    0    0    0  501 -0.00000000000E+00 -0.00000000000E+00 -0.27739685756E+02  0.27739685756E+02  0.00000000000E+00 0.  1.
         25    2    1    2    0    0  0.17116763116E+02 -0.72633535356E+02  0.29208886930E+03  0.32638907555E+03  0.12508120175E+03 0.  0.
          5    1    3    3  502    0  0.25716741120E+02  0.24241192149E+02  0.29126931628E+02  0.45987353878E+02  0.41800000000E+01 0. -1.
         -5    1    3    3    0  502 -0.85999780048E+01 -0.96874727505E+02  0.26296193767E+03  0.28040172167E+03  0.41800000000E+01 0. -1.
        -11    1    1    2    0    0 -0.41470076846E+02  0.72341731758E+00  0.13082561363E+03  0.13724296626E+03  0.00000000000E+00 0. -1.
         11    1    1    2    0    0  0.24353313730E+02  0.71910118039E+02  0.18785761583E+03  0.20261942846E+03  0.00000000000E+00 0.  1.
</event>
<event>
 7    1  0.2856214E-009  0.1831721E+03  0.7561462E-02  0.1164768E+00
         -2   -1    0    0    0  501 -0.00000000000E+00  0.00000000000E+00  0.10678677230E+03  0.10678677230E+03  0.00000000000E+00 0.  1.
          2   -1    0    0  501    0  0.00000000000E+00 -0.00000000000E+00 -0.37885577461E+03  0.37885577461E+03  0.00000000000E+00 0. -1.
         25    2    1    2    0    0  0.11909482228E+03  0.11213133810E+03 -0.19419398752E+03  0.28304541471E+03  0.12508552405E+03 0.  0.
          5    1    3    3  502    0  0.13726117721E+03  0.11491164408E+03 -0.14514226367E+03  0.23049743126E+03  0.41800000000E+01 0.  1.
         -5    1    3    3    0  502 -0.18166354930E+02 -0.27803059829E+01 -0.49051723846E+02  0.52547983454E+02  0.41800000000E+01 0.  1.
        -11    1    1    2    0    0 -0.66479591886E+02 -0.35172950227E+02  0.82702965847E+01  0.75664194773E+02  0.00000000000E+00 0.  1.
         11    1    1    2    0    0 -0.52615230391E+02 -0.76958387870E+02 -0.86145311373E+02  0.12693293743E+03  0.00000000000E+00 0. -1.
</event>
<event>
 7    1  0.2856214E-009  0.1782737E+03  0.7561462E-02  0.1169484E+00
         -2   -1    0    0    0  501 -0.00000000000E+00  0.00000000000E+00  0.57758129095E+02  0.57758129095E+02  0.00000000000E+00 0.  1.
          2   -1    0    0  501    0  0.00000000000E+00 -0.00000000000E+00 -0.89482722543E+03  0.89482722543E+03  0.00000000000E+00 0. -1.
         25    2    1    2    0    0  0.77551271765E+02  0.15361707270E+03 -0.22228505667E+03  0.30768522775E+03  0.12508856134E+03 0.  0.
          5    1    3    3  502    0  0.39635253543E+02  0.95713824667E+02 -0.21407673790E+03  0.23786216947E+03  0.41800000000E+01 0. -1.
         -5    1    3    3    0  502  0.37916018222E+02  0.57903248032E+02 -0.82083187740E+01  0.69823058280E+02  0.41800000000E+01 0. -1.
        -11    1    1    2    0    0 -0.40529783329E+02 -0.13714395359E+03 -0.55161921671E+03  0.56985514614E+03  0.00000000000E+00 0. -1.
         11    1    1    2    0    0 -0.37021488436E+02 -0.16473119112E+02 -0.63164822954E+02  0.75044980632E+02  0.00000000000E+00 0.  1.
</event>
<event>
 7    1  0.2856214E-009  0.1122884E+03  0.7561462E-02  0.1256390E+00
          1   -1    0    0  501    0  0.00000000000E+00  0.00000000000E+00  0.40301824549E+03  0.40301824549E+03  0.00000000000E+00 0. -1.
         -1   -1    0    0    0  501 -0.00000000000E+00 -0.00000000000E+00 -0.47931377794E+02  0.47931377794E+02  0.00000000000E+00 0.  1.
         25    2    1    2    0    0  0.35130642904E+02 -0.58962100984E+02  0.25535595716E+03  0.29251601511E+03  0.12509301667E+03 0.  0.
          5    1    3    3  502    0 -0.33466482783E+02 -0.58248565180E+02  0.82342674208E+02  0.10635172406E+03  0.41800000000E+01 0.  1.
         -5    1    3    3    0  502  0.68597125687E+02 -0.71353580452E+00  0.17301328295E+03  0.18616429105E+03  0.41800000000E+01 0.  1.
        -11    1    1    2    0    0 -0.50580988954E+02  0.46101086513E+02  0.13328853825E+02  0.69723776185E+02  0.00000000000E+00 0.  1.
         11    1    1    2    0    0  0.15450346050E+02  0.12861014472E+02  0.86402056720E+02  0.88709831990E+02  0.00000000000E+00 0. -1.
</event>
<event>
 7    1  0.4345577E-009  0.1196970E+03  0.7561462E-02  0.1243598E+00
         -1   -1    0    0    0  501 -0.00000000000E+00  0.00000000000E+00  0.33995051241E+02  0.33995051241E+02  0.00000000000E+00 0.  1.
          1   -1    0    0  501    0  0.00000000000E+00 -0.00000000000E+00 -0.72098291483E+03  0.72098291483E+03  0.00000000000E+00 0. -1.
         25    2    1    2    0    0  0.24133081327E+02  0.74239360768E+02 -0.56485757690E+03  0.58378455299E+03  0.12508570592E+03 0.  0.
          5    1    3    3  502    0 -0.44088918156E+02  0.75969586188E+01 -0.10648789423E+03  0.11557980144E+03  0.41800000000E+01 0. -1.
         -5    1    3    3    0  502  0.68221999483E+02  0.66642402149E+02 -0.45836968268E+03  0.46820475155E+03  0.41800000000E+01 0. -1.
        -11    1    1    2    0    0  0.18445371872E+02 -0.76683793154E+01  0.58210111443E+01  0.20806728612E+02  0.00000000000E+00 0.  1.
         11    1    1    2    0    0 -0.42578453199E+02 -0.66570981452E+02 -0.12795129783E+03  0.15038668446E+03  0.00000000000E+00 0. -1.
</event>
<event>
 7    1  0.2856214E-009  0.1233204E+03  0.7561462E-02  0.1237718E+00
          1   -1    0    0  501    0  0.00000000000E+00  0.00000000000E+00  0.32759767155E+03  0.32759767155E+03  0.00000000000E+00 0. -1.
         -1   -1    0    0    0  501 -0.00000000000E+00 -0.00000000000E+00 -0.55688853870E+02  0.55688853870E+02  0.00000000000E+00 0.  1.
         25    2    1    2    0    0 -0.94874248267E+02  0.23373912746E+02  0.18774186207E+03  0.24584860403E+03  0.12508823505E+03 0.  0.
          5    1    3    3  502    0 -0.23653197954E+02 -0.38101377547E+02  0.12453059269E+03  0.13242556272E+03  0.41800000000E+01 0.  1.
         -5    1    3    3    0  502 -0.71221050313E+02  0.61475290293E+02  0.63211269377E+02  0.11342304131E+03  0.41800000000E+01 0.  1.
        -11    1    1    2    0    0  0.45541686420E+02 -0.34156125664E+02  0.54826823280E+02  0.79035856883E+02  0.00000000000E+00 0.  1.
         11    1    1    2    0    0  0.49332561847E+02  0.10782212918E+02  0.29340132335E+02  0.58402064512E+02  0.00000000000E+00 0. -1.
</event>
<event>
 7    1  0.2856214E-009  0.1077512E+03  0.7561462E-02  0.1264792E+00
         -1   -1    0    0    0  501 -0.00000000000E+00  0.00000000000E+00  0.19334684105E+03  0.19334684105E+03  0.00000000000E+00 0.  1.
          1   -1    0    0  501    0  0.00000000000E+00 -0.00000000000E+00 -0.15677380098E+03  0.15677380098E+03  0.00000000000E+00 0. -1.
         25    2    1    2    0    0 -0.65571484162E+02 -0.46672282420E+02 -0.90880291411E+02  0.17431788633E+03  0.12509826796E+03 0.  0.
          5    1    3    3  502    0 -0.70942879364E+02  0.11929718499E+02 -0.78842853228E+01  0.72490307428E+02  0.41800000000E+01 0.  1.
         -5    1    3    3    0  502  0.53713952023E+01 -0.58602000919E+02 -0.82996006089E+02  0.10182757890E+03  0.41800000000E+01 0.  1.
        -11    1    1    2    0    0  0.35659712971E+02  0.98289084948E+01  0.12264662062E+03  0.12810314641E+03  0.00000000000E+00 0.  1.
         11    1    1    2    0    0  0.29911771190E+02  0.36843373925E+02  0.48067108635E+01  0.47699609299E+02  0.00000000000E+00 0. -1.
</event>
<event>
 7    1  0.2856214E-009  0.1422379E+03  0.7561462E-02  0.1210349E+00
         -4   -1    0    0    0  501 -0.00000000000E+00  0.00000000000E+00  0.28135392037E+03  0.28135392037E+03  0.00000000000E+00 0.  1.
          4   -1    0    0  501    0  0.00000000000E+00 -0.00000000000E+00 -0.85009478636E+02  0.85009478636E+02  0.00000000000E+00 0. -1.
         25    2    1    2    0    0  0.87103686417E+02 -0.60573932839E+02  0.94536628243E+02  0.18931639407E+03  0.12508904611E+03 0.  0.
          5    1    3    3  502    0 -0.28821173264E+02 -0.10960781580E+02 -0.88626231178E+00  0.31129674301E+02  0.41800000000E+01 0. -1.
         -5    1    3    3    0  502  0.11592485968E+03 -0.49613151259E+02  0.95422890555E+02  0.15818671977E+03  0.41800000000E+01 0. -1.
        -11    1    1    2    0    0 -0.21857716506E+02  0.57905596560E+02  0.92193385512E+02  0.11104250635E+03  0.00000000000E+00 0.  1.
         11    1    1    2    0    0 -0.65245969911E+02  0.26683362794E+01  0.96144279759E+01  0.66004498585E+02  0.00000000000E+00 0. -1.
</event>
<event>
 7    1  0.2856214E-009  0.1177653E+03  0.7561462E-02  0.1246830E+00
          1   -1    0    0  501    0  0.00000000000E+00  0.00000000000E+00  0.92594954974E+02  0.92594954974E+02  0.00000000000E+00 0. -1.
         -1   -1    0    0    0  501 -0.00000000000E+00 -0.00000000000E+00 -0.18347804228E+03  0.18347804228E+03  0.00000000000E+00 0.  1.
         25    2    1    2    0    0 -0.40256403639E+02  0.57069293661E+02 -0.40162602499E+02  0.14879442896E+03  0.12509702289E+03 0.  0.
          5    1    3    3  502    0  0.82077869706E+01 -0.36512239231E+02 -0.13546606095E+02  0.40018674607E+02  0.41800000000E+01 0.  1.
         -5    1    3    3    0  502 -0.48464190609E+02  0.93581532891E+02 -0.26615996404E+02  0.10877575435E+03  0.41800000000E+01 0.  1.
        -11    1    1    2    0    0 -0.10288825294E+02  0.57417220687E+01  0.17884531177E+02  0.21416903456E+02  0.00000000000E+00 0. -1.
         11    1    1    2    0    0  0.50545228933E+02 -0.62811015729E+02 -0.68605015984E+02  0.10586166484E+03  0.00000000000E+00 0.  1.
</event>
<event>
 7    1  0.2856214E-009  0.1484844E+03  0.7561462E-02  0.1202348E+00
         -2   -1    0    0    0  501 -0.00000000000E+00  0.00000000000E+00  0.60469295438E+02  0.60469295438E+02  0.00000000000E+00 0.  1.
          2   -1    0    0  501    0  0.00000000000E+00 -0.00000000000E+00 -0.49072614507E+03  0.49072614507E+03  0.00000000000E+00 0. -1.
         25    2    1    2    0    0  0.12772517364E+03 -0.16894113146E+02 -0.28448232212E+03  0.33641767386E+03  0.12509008214E+03 0.  0.
          5    1    3    3  502    0  0.11447580276E+03 -0.45746148372E+02 -0.13221512314E+03  0.18081960816E+03  0.41800000000E+01 0. -1.
         -5    1    3    3    0  502  0.13249370878E+02  0.28852035226E+02 -0.15226719898E+03  0.15559806570E+03  0.41800000000E+01 0. -1.
        -11    1    1    2    0    0 -0.26533752734E+02 -0.20694836175E+02 -0.33009807745E+00  0.33651526610E+02  0.00000000000E+00 0.  1.
         11    1    1    2    0    0 -0.10119142090E+03  0.37588949321E+02 -0.14544442943E+03  0.18112624003E+03  0.00000000000E+00 0. -1.
</event>
<event>
 7    1  0.2856214E-009  0.9419165E+02  0.7561462E-02  0.1293007E+00
         -1   -1    0    0    0  501 -0.00000000000E+00  0.00000000000E+00  0.33492748441E+02  0.33492748441E+02  0.00000000000E+00 0.  1.
          1   -1    0    0  501    0  0.00000000000E+00 -0.00000000000E+00 -0.38138965917E+03  0.38138965917E+03  0.00000000000E+00 0. -1.
         25    2    1    2    0    0 -0.23431166398E+02  0.21825446522E+02 -0.21166296487E+03  0.24794398291E+03  0.12509851433E+03 0.  0.
          5    1    3    3  502    0 -0.58712122062E+02 -0.10202964989E+02 -0.45668595866E+02  0.75195124975E+02  0.41800000000E+01 0.  1.
         -5    1    3    3    0  502  0.35280955665E+02  0.32028411511E+02 -0.16599436900E+03  0.17274885793E+03  0.41800000000E+01 0.  1.
        -11    1    1    2    0    0 -0.20437674749E+02  0.13494743870E+02 -0.92342364279E+02  0.95534909336E+02  0.00000000000E+00 0. -1.
         11    1    1    2    0    0  0.43868841147E+02 -0.35320190392E+02 -0.43891581581E+02  0.71403515366E+02  0.00000000000E+00 0.  1.
</event>
<event>
 7    1  0.2856214E-009  0.9955861E+02  0.7561462E-02  0.1281227E+00
         -2   -1    0    0    0  501 -0.00000000000E+00  0.00000000000E+00  0.89034705583E+03  0.89034705583E+03  0.00000000000E+00 0.  1.
          2   -1    0    0  501    0  0.00000000000E+00 -0.00000000000E+00 -0.25544701504E+02  0.25544701504E+02  0.00000000000E+00 0. -1.
         25    2    1    2    0    0  0.65403735694E+02  0.47179925302E+01  0.71199913036E+03  0.72587195897E+03  0.12508969219E+03 0.  0.
          5    1    3    3  502    0 -0.33599408030E+02  0.18873115880E+00  0.30877547299E+03  0.31062633655E+03  0.41800000000E+01 0. -1.
         -5    1    3    3    0  502  0.99003143723E+02  0.45292613714E+01  0.40322365737E+03  0.41524562242E+03  0.41800000000E+01 0. -1.
        -11    1    1    2    0    0 -0.43082253625E+02 -0.69167787248E+01  0.16048521178E+03  0.16631123115E+03  0.00000000000E+00 0.  1.
         11    1    1    2    0    0 -0.22321482069E+02  0.21987861946E+01 -0.76819878178E+01  0.23708567213E+02  0.00000000000E+00 0. -1.
</event>
<event>
 7    1  0.2856214E-009  0.1204927E+03  0.7561462E-02  0.1242286E+00
         -1   -1    0    0    0  501 -0.00000000000E+00  0.00000000000E+00  0.13797480699E+03  0.13797480699E+03  0.00000000000E+00 0.  1.
          1   -1    0    0  501    0  0.00000000000E+00 -0.00000000000E+00 -0.15248104813E+03  0.15248104813E+03  0.00000000000E+00 0. -1.
         25    2    1    2    0    0 -0.83455274984E+02  0.34169774928E+02  0.28246867816E+02  0.15676235389E+03  0.12507675090E+03 0.  0.
          5    1    3    3  502    0 -0.11710211847E+02 -0.21567373459E+02 -0.37166688508E+02  0.44733832768E+02  0.41800000000E+01 0. -1.
         -5    1    3    3    0  502 -0.71745063137E+02  0.55737148386E+02  0.65413556325E+02  0.11202852113E+03  0.41800000000E+01 0. -1.
        -11    1    1    2    0    0  0.83654540500E+02  0.70238552930E+01 -0.38255666498E+02  0.92254608062E+02  0.00000000000E+00 0.  1.
         11    1    1    2    0    0 -0.19926551633E+00 -0.41193630221E+02 -0.44974424584E+01  0.41438893158E+02  0.00000000000E+00 0. -1.
</event>
<event>
 7    1  0.2856214E-009  0.2187176E+03  0.7561462E-02  0.1134843E+00
          2   -1    0    0  501    0  0.00000000000E+00  0.00000000000E+00  0.12859950929E+04  0.12859950929E+04  0.00000000000E+00 0.  1.
         -2   -1    0    0    0  501 -0.00000000000E+00 -0.00000000000E+00 -0.38511355236E+02  0.38511355236E+02  0.00000000000E+00 0. -1.
         25    2    1    2    0    0 -0.16059481597E+03 -0.10879516957E+03  0.66498722345E+03  0.70390459044E+03  0.12508629521E+03 0.  0.
          5    1    3    3  502    0 -0.13351454353E+03 -0.25389220318E+02  0.31537113951E+03  0.34343438075E+03  0.41800000000E+01 0.  1.
         -5    1    3    3    0  502 -0.27080272441E+02 -0.83405949255E+02  0.34961608394E+03  0.36047020969E+03  0.41800000000E+01 0.  1.
        -11    1    1    2    0    0  0.12885777377E+03  0.35281744541E+02  0.38318448612E+03  0.40580719284E+03  0.00000000000E+00 0. -1.
         11    1    1    2    0    0  0.31737042207E+02  0.73513425032E+02  0.19931202810E+03  0.21479466486E+03  0.00000000000E+00 0.  1.
</event>
<event>
 7    1  0.2856214E-009  0.1071938E+03  0.7561462E-02  0.1265857E+00
          2   -1    0    0  501    0  0.00000000000E+00  0.00000000000E+00  0.69644620412E+02  0.69644620412E+02  0.00000000000E+00 0. -1.
         -2   -1    0    0    0  501 -0.00000000000E+00 -0.00000000000E+00 -0.19807279404E+03  0.19807279404E+03  0.00000000000E+00 0.  1.
         25    2    1    2    0    0 -0.16398242887E+02 -0.43354825577E+02 -0.50479275709E+02  0.14263607774E+03  0.12509336564E+03 0.  0.
          5    1    3    3  502    0  0.48363422181E+02 -0.34704699176E+02 -0.48894549258E+02  0.77146523558E+02  0.41800000000E+01 0.  1.
         -5    1    3    3    0  502 -0.64761665067E+02 -0.86501264005E+01 -0.15847264514E+01  0.65489554182E+02  0.41800000000E+01 0.  1.
        -11    1    1    2    0    0  0.30047638616E+02 -0.11907324850E+02 -0.52436471118E+01  0.32743561298E+02  0.00000000000E+00 0. -1.
         11    1    1    2    0    0 -0.13649395729E+02  0.55262150427E+02 -0.72705250812E+02  0.92337775418E+02  0.00000000000E+00 0.  1.
</event>
<event>
 7    1  0.2856214E-009  0.8610303E+02  0.7561462E-02  0.1312573E+00
         -1   -1    0    0    0  501 -0.00000000000E+00  0.00000000000E+00  0.64315107569E+03  0.64315107569E+03  0.00000000000E+00 0.  1.
          1   -1    0    0  501    0  0.00000000000E+00 -0.00000000000E+00 -0.23634792913E+02  0.23634792913E+02  0.00000000000E+00 0. -1.
         25    2    1    2    0    0  0.21241730224E+02  0.43789117609E+02  0.45089721904E+03  0.47045171713E+03  0.12509123905E+03 0.  0.
          5    1    3    3  502    0 -0.12306848683E+02  0.44144809686E+02  0.42596394295E+03  0.42844250004E+03  0.41800000000E+01 0. -1.
         -5    1    3    3    0  502  0.33548578907E+02 -0.35569207690E+00  0.24933276085E+02  0.42009217082E+02  0.41800000000E+01 0. -1.
        -11    1    1    2    0    0 -0.29531999759E+02 -0.64026000090E+02  0.15573276345E+03  0.17095075697E+03  0.00000000000E+00 0.  1.
         11    1    1    2    0    0  0.82902695347E+01  0.20236882481E+02  0.12886300288E+02  0.25383394505E+02  0.00000000000E+00 0. -1.
</event>
<event>
 7    1  0.2856214E-009  0.5526593E+02  0.7561462E-02  0.1418845E+00
          1   -1    0    0  501    0  0.00000000000E+00  0.00000000000E+00  0.58216101609E+03  0.58216101609E+03  0.00000000000E+00 0. -1.
         -1   -1    0    0    0  501 -0.00000000000E+00 -0.00000000000E+00 -0.25553706736E+02  0.25553706736E+02  0.00000000000E+00 0.  1.
         25    2    1    2    0    0 -0.21681115621E+02 -0.21092324158E+02  0.40444998176E+03  0.42443151674E+03  0.12508943901E+03 0.  0.
          5    1    3    3  502    0 -0.61704874024E+01 -0.73938707108E+01 -0.68852871501E+01  0.12554832457E+02  0.41800000000E+01 0. -1.
         -5    1    3    3    0  502 -0.15510628219E+02 -0.13698453448E+02  0.41133526891E+03  0.41187668429E+03  0.41800000000E+01 0. -1.
        -11    1    1    2    0    0 -0.26252476234E+02 -0.71173343685E+00  0.46664522853E+01  0.26673485896E+02  0.00000000000E+00 0.  1.
         11    1    1    2    0    0  0.47933591856E+02  0.21804057595E+02  0.14749087532E+03  0.15660972019E+03  0.00000000000E+00 0. -1.
</event>
<event>
 7    1  0.2856214E-009  0.9908534E+02  0.7561462E-02  0.1282231E+00
         -1   -1    0    0    0  501 -0.00000000000E+00  0.00000000000E+00  0.78786432379E+01  0.78786432379E+01  0.00000000000E+00 0.  1.
          1   -1    0    0  501    0  0.00000000000E+00 -0.00000000000E+00 -0.24852204885E+04  0.24852204885E+04  0.00000000000E+00 0. -1.
         25    2    1    2    0    0  0.74789096195E+00 -0.25723321212E+02 -0.21072700069E+04  0.21111363420E+04  0.12509006309E+03 0.  0.
          5    1    3    3  502    0  0.23306512814E+02 -0.59257112995E+02 -0.61268943715E+03  0.61600358584E+03  0.41800000000E+01 0.  1.
         -5    1    3    3    0  502 -0.22558621852E+02  0.33533791783E+02 -0.14945805698E+04  0.14951327561E+04  0.41800000000E+01 0.  1.
        -11    1    1    2    0    0 -0.30656257987E+02  0.47637590678E+02 -0.24780412896E+03  0.25419683816E+03  0.00000000000E+00 0.  1.
         11    1    1    2    0    0  0.29908367025E+02 -0.21914269467E+02 -0.12226770941E+03  0.12776595160E+03  0.00000000000E+00 0. -1.
</event>
<event>
 7    1  0.2856214E-009  0.6231277E+02  0.7561462E-02  0.1388375E+00
          1   -1    0    0  501    0  0.00000000000E+00  0.00000000000E+00  0.95447199216E+02  0.95447199216E+02  0.00000000000E+00 0. -1.
         -1   -1    0    0    0  501 -0.00000000000E+00 -0.00000000000E+00 -0.13018288284E+03  0.13018288284E+03  0.00000000000E+00 0.  1.
         25    2    1    2    0    0  0.21083697755E+02 -0.12548112944E+02  0.16291442918E+02  0.12850752448E+03  0.12508715076E+03 0.  0.
          5    1    3    3  502    0  0.48800781740E+02 -0.19872366950E+01 -0.40968829572E+02  0.63885701097E+02  0.41800000000E+01 0. -1.
         -5    1    3    3    0  502 -0.27717083985E+02 -0.10560876249E+02  0.57260272490E+02  0.64621823384E+02  0.41800000000E+01 0. -1.
        -11    1    1    2    0    0  0.62920058094E+01  0.16807566730E+02 -0.64044639186E+02  0.66511648942E+02  0.00000000000E+00 0.  1.
         11    1    1    2    0    0 -0.27375703564E+02 -0.42594537862E+01  0.13017512641E+02  0.30610908637E+02  0.00000000000E+00 0. -1.
</event>
<event>
 7    1  0.2856214E-009  0.1103056E+03  0.7561462E-02  0.1260005E+00
          2   -1    0    0  501    0  0.00000000000E+00  0.00000000000E+00  0.88440139925E+03  0.88440139925E+03  0.00000000000E+00 0. -1.
         -2   -1    0    0    0  501 -0.00000000000E+00 -0.00000000000E+00 -0.22399716180E+02  0.22399716180E+02  0.00000000000E+00 0.  1.
         25    2    1    2    0    0 -0.86076735724E+01 -0.78998178609E+02  0.59741377595E+03  0.61552060235E+03  0.12509031920E+03 0.  0.
          5    1    3    3  502    0  0.21016069720E+02 -0.60726649891E+02  0.56204700666E+03  0.56572405932E+03  0.41800000000E+01 0.  1.
         -5    1    3    3    0  502 -0.29623743293E+02 -0.18271528717E+02  0.35366769291E+02  0.49796543037E+02  0.41800000000E+01 0.  1.
        -11    1    1    2    0    0  0.46420052512E+02  0.18824688675E+02  0.12443560734E+03  0.13413951898E+03  0.00000000000E+00 0.  1.
         11    1    1    2    0    0 -0.37812378939E+02  0.60173489934E+02  0.14015229978E+03  0.15714099410E+03  0.00000000000E+00 0. -1.
</event>
<event>
 7    1  0.2856214E-009  0.1624719E+03  0.7561462E-02  0.1185934E+00
         -1   -1    0    0    0  501 -0.00000000000E+00  0.00000000000E+00  0.39299575027E+02  0.39299575027E+02  0.00000000000E+00 0.  1.
          1   -1    0    0  501    0  0.00000000000E+00 -0.00000000000E+00 -0.68461024751E+03  0.68461024751E+03  0.00000000000E+00 0. -1.
         25    2    1    2    0    0 -0.72026651151E+02 -0.98699681228E+02 -0.36328188270E+03  0.40317572089E+03  0.12508984798E+03 0.  0.
          5    1    3    3  502    0 -0.24761465879E+02  0.29028187422E+02 -0.71665680222E+02  0.81297035488E+02  0.41800000000E+01 0. -1.
         -5    1    3    3    0  502 -0.47265185272E+02 -0.12772786865E+03 -0.29161620248E+03  0.32187868540E+03  0.41800000000E+01 0. -1.
        -11    1    1    2    0    0  0.33566674963E+02  0.10597363898E+03 -0.18127982458E+03  0.21264879173E+03  0.00000000000E+00 0.  1.
         11    1    1    2    0    0  0.38459976187E+02 -0.72739577480E+01 -0.10074896521E+03  0.10808530992E+03  0.00000000000E+00 0. -1.
</event>
<event>
 7    1  0.2856214E-009  0.1267210E+03  0.7561462E-02  0.1232404E+00
          1   -1    0    0  501    0  0.00000000000E+00  0.00000000000E+00  0.26154616315E+03  0.26154616315E+03  0.00000000000E+00 0.  1.
         -1   -1    0    0    0  501 -0.00000000000E+00 -0.00000000000E+00 -0.86707344086E+02  0.86707344086E+02  0.00000000000E+00 0. -1.
         25    2    1    2    0    0  0.36136431101E+02  0.86357547818E+02  0.13285982251E+03  0.20508669235E+03  0.12508137841E+03 0.  0.
          5    1    3    3  502    0 -0.38588269997E+02  0.11520055483E+02  0.73043699815E+02  0.83514194856E+02  0.41800000000E+01 0.  1.
         -5    1    3    3    0  502  0.74724701098E+02  0.74837492335E+02  0.59816122691E+02  0.12157249749E+03  0.41800000000E+01 0.  1.
        -11    1    1    2    0    0 -0.49547402258E+02 -0.72662102507E+02 -0.92853364925E+01  0.88436099445E+02  0.00000000000E+00 0. -1.
         11    1    1    2    0    0  0.13410971157E+02 -0.13695445310E+02  0.51264333051E+02  0.54730715442E+02  0.00000000000E+00 0.  1.
</event>
<event>
 7    1  0.3792184E-009  0.1752550E+03  0.7561462E-02  0.1172476E+00
         -2   -1    0    0    0  501 -0.00000000000E+00  0.00000000000E+00  0.65458671285E+02  0.65458671285E+02  0.00000000000E+00 0.  1.
          2   -1    0    0  501    0  0.00000000000E+00 -0.00000000000E+00 -0.51354107029E+03  0.51354107029E+03  0.00000000000E+00 0. -1.
         25    2    1    2    0    0 -0.13368638447E+02 -0.14193272215E+03 -0.17717025434E+03  0.25953877428E+03  0.12508980062E+03 0.  0.
          5    1    3    3  502    0  0.53553385274E+02 -0.87204687201E+02 -0.10697195068E+03  0.14809825514E+03  0.41800000000E+01 0.  1.
         -5    1    3    3    0  502 -0.66922023721E+02 -0.54728034948E+02 -0.70198303662E+02  0.11144051914E+03  0.41800000000E+01 0.  1.
        -11    1    1    2    0    0 -0.30457178878E+02  0.37700748900E+02 -0.13032615627E+03  0.13904637076E+03  0.00000000000E+00 0. -1.
         11    1    1    2    0    0  0.43825817325E+02  0.10423197325E+03 -0.14058598839E+03  0.18041459653E+03  0.00000000000E+00 0.  1.
</event>
<event>
 7    1  0.2856214E-009  0.2647926E+03  0.7561462E-02  0.1104297E+00
         -2   -1    0    0    0  501 -0.00000000000E+00  0.00000000000E+00  0.96765414279E+02  0.96765414279E+02  0.00000000000E+00 0.  1.
          2   -1    0    0  501    0  0.00000000000E+00 -0.00000000000E+00 -0.79866390223E+03  0.79866390223E+03  0.00000000000E+00 0. -1.
         25    2    1    2    0    0 -0.23077809913E+03  0.99986236384E+02 -0.44080193368E+03  0.52269385422E+03  0.12508693775E+03 0.  0.
          5    1    3    3  502    0 -0.20101068265E+03  0.12540616537E+03 -0.33954413395E+03  0.41405276493E+03  0.41800000000E+01 0. -1.
         -5    1    3    3    0  502 -0.29767416482E+02 -0.25419928986E+02 -0.10125779973E+03  0.10864108928E+03  0.41800000000E+01 0. -1.
        -11    1    1    2    0    0  0.58095278918E+02 -0.39663706628E+02 -0.26302004833E+02  0.75100376259E+02  0.00000000000E+00 0.  1.
         11    1    1    2    0    0  0.17268282021E+03 -0.60322529756E+02 -0.23479454943E+03  0.29763508603E+03  0.00000000000E+00 0. -1.
</event>
<event>
 7    1  0.2856214E-009  0.2428065E+03  0.7561462E-02  0.1117937E+00
          1   -1    0    0  501    0  0.00000000000E+00  0.00000000000E+00  0.11884092977E+04  0.11884092977E+04  0.00000000000E+00 0. -1.
         -1   -1    0    0    0  501 -0.00000000000E+00 -0.00000000000E+00 -0.69113224662E+02  0.69113224662E+02  0.00000000000E+00 0.  1.
         25    2    1    2    0    0 -0.21759774052E+03 -0.90840772272E+02  0.83672985512E+03  0.87827387403E+03  0.12508926724E+03 0.  0.
          5    1    3    3  502    0 -0.94658793089E+02 -0.58454652043E+02  0.19940646046E+03  0.22838047711E+03  0.41800000000E+01 0. -1.
         -5    1    3    3    0  502 -0.12293894743E+03 -0.32386120230E+02  0.63732339466E+03  0.64989339692E+03  0.41800000000E+01 0. -1.
        -11    1    1    2    0    0 -0.44178459469E+01  0.97748980734E+01 -0.17854446201E+00  0.10728367689E+02  0.00000000000E+00 0.  1.
         11    1    1    2    0    0  0.22201558646E+03  0.81065874199E+02  0.28274476240E+03  0.36852028066E+03  0.00000000000E+00 0. -1.
</event>
<event>
 7    1  0.2856214E-009  0.1192629E+03  0.7561462E-02  0.1244318E+00
         -1   -1    0    0    0  501 -0.00000000000E+00  0.00000000000E+00  0.65434849159E+02  0.65434849159E+02  0.00000000000E+00 0.  1.
          1   -1    0    0  501    0  0.00000000000E+00 -0.00000000000E+00 -0.41471721511E+03  0.41471721511E+03  0.00000000000E+00 0. -1.
         25    2    1    2    0    0 -0.10736948621E+02  0.64626269802E+02 -0.33719817750E+03  0.36557133304E+03  0.12509177358E+03 0.  0.
          5    1    3    3  502    0  0.51099775971E+02  0.56415208153E+02 -0.21847451696E+03  0.23139241512E+03  0.41800000000E+01 0.  1.
         -5    1    3    3    0  502 -0.61836724592E+02  0.82110616487E+01 -0.11872366054E+03  0.13417891792E+03  0.41800000000E+01 0.  1.
        -11    1    1    2    0    0  0.37753022458E+02 -0.62054036016E+02 -0.33520388852E+02  0.79997565959E+02  0.00000000000E+00 0. -1.
         11    1    1    2    0    0 -0.27016073837E+02 -0.25722337864E+01  0.21436200403E+02  0.34583165268E+02  0.00000000000E+00 0.  1.
</event>
<event>
 7    1  0.2856214E-009  0.8818429E+02  0.7561462E-02  0.1307309E+00
         -3   -1    0    0    0  501 -0.00000000000E+00  0.00000000000E+00  0.27052488463E+03  0.27052488463E+03  0.00000000000E+00 0.  1.
          3   -1    0    0  501    0  0.00000000000E+00 -0.00000000000E+00 -0.47329336191E+02  0.47329336191E+02  0.00000000000E+00 0. -1.
         25    2    1    2    0    0  0.44760428430E+01 -0.20169243982E+02  0.95099197514E+02  0.15848810580E+03  0.12509112259E+03 0.  0.
          5    1    3    3  502    0  0.17356941171E+02  0.39520473215E+02  0.86391904140E+02  0.96665219758E+02  0.41800000000E+01 0. -1.
         -5    1    3    3    0  502 -0.12880898328E+02 -0.59689717198E+02  0.87072933738E+01  0.61822886044E+02  0.41800000000E+01 0. -1.
        -11    1    1    2    0    0  0.49345029243E+01  0.44985537511E+02  0.22604236802E+02  0.50586553803E+02  0.00000000000E+00 0. -1.
         11    1    1    2    0    0 -0.94105457673E+01 -0.24816293529E+02  0.10549211412E+03  0.10877956122E+03  0.00000000000E+00 0.  1.
</event>
<event>
 7    1  0.2856214E-009  0.9103811E+02  0.7561462E-02  0.1300357E+00
         -1   -1    0    0    0  501 -0.00000000000E+00  0.00000000000E+00  0.48981310161E+03  0.48981310161E+03  0.00000000000E+00 0.  1.
          1   -1    0    0  501    0  0.00000000000E+00 -0.00000000000E+00 -0.36979603386E+02  0.36979603386E+02  0.00000000000E+00 0. -1.
         25    2    1    2    0    0 -0.51882606638E+02 -0.16280380871E+02  0.13730445366E+03  0.19353622714E+03  0.12508757952E+03 0.  0.
          5    1    3    3  502    0 -0.13140861011E+02 -0.34048204076E+02 -0.11657688523E+02  0.38540063967E+02  0.41800000000E+01 0. -1.
         -5    1    3    3    0  502 -0.38741745627E+02  0.17767823205E+02  0.14896214218E+03  0.15499616318E+03  0.41800000000E+01 0. -1.
        -11    1    1    2    0    0  0.33526537959E+02 -0.34748383504E+02  0.19826440644E+03  0.20405943684E+03  0.00000000000E+00 0.  1.
         11    1    1    2    0    0  0.18356068679E+02  0.51028764375E+02  0.11726463813E+03  0.12919704101E+03  0.00000000000E+00 0. -1.
</event>
<event>
 7    1  0.2856214E-009  0.2347734E+03  0.7561462E-02  0.1123324E+00
         -2   -1    0    0    0  501 -0.00000000000E+00  0.00000000000E+00  0.90932891357E+02  0.90932891357E+02  0.00000000000E+00 0. -1.
          2   -1    0    0  501    0  0.00000000000E+00 -0.00000000000E+00 -0.80150054657E+03  0.80150054657E+03  0.00000000000E+00 0.  1.
         25    2    1    2    0    0 -0.21693386373E+03 -0.72222108455E+02 -0.52946625156E+03  0.59013599237E+03  0.12509853627E+03 0.  0.
          5    1    3    3  502    0 -0.15536195298E+03 -0.51628990454E+02 -0.48348469562E+03  0.51046822858E+03  0.41800000000E+01 0. -1.
         -5    1    3    3    0  502 -0.61571910745E+02 -0.20593118001E+02 -0.45981555935E+02  0.79667763794E+02  0.41800000000E+01 0. -1.
        -11    1    1    2    0    0  0.12517878723E+03  0.20316962759E+01 -0.10994026201E+03  0.16661547879E+03  0.00000000000E+00 0. -1.
         11    1    1    2    0    0  0.91755076498E+02  0.70190412179E+02 -0.71161141655E+02  0.13568196677E+03  0.00000000000E+00 0.  1.
</event>
<event>
 7    1  0.2856214E-009  0.1447388E+03  0.7561462E-02  0.1207091E+00
         -1   -1    0    0    0  501 -0.00000000000E+00  0.00000000000E+00  0.11931171601E+04  0.11931171601E+04  0.00000000000E+00 0.  1.
          1   -1    0    0  501    0  0.00000000000E+00 -0.00000000000E+00 -0.25545364491E+02  0.25545364491E+02  0.00000000000E+00 0. -1.
         25    2    1    2    0    0  0.13171130041E+03  0.13931455710E+02  0.73760349350E+03  0.75976838770E+03  0.12508851755E+03 0.  0.
          5    1    3    3  502    0  0.87325463944E+01  0.66828304238E+01 -0.17355180803E+00  0.11765207573E+02  0.41800000000E+01 0.  1.
         -5    1    3    3    0  502  0.12297875401E+03  0.72486252863E+01  0.73777704531E+03  0.74800318013E+03  0.41800000000E+01 0.  1.
        -11    1    1    2    0    0 -0.13544883438E+03  0.46188649436E+01  0.32325552697E+03  0.35051655648E+03  0.00000000000E+00 0. -1.
         11    1    1    2    0    0  0.37375339749E+01 -0.18550320654E+02  0.10671277511E+03  0.10837758038E+03  0.00000000000E+00 0.  1.
</event>
<event>
 7    1  0.2856214E-009  0.1091096E+03  0.7561462E-02  0.1262228E+00
         -1   -1    0    0    0  501 -0.00000000000E+00  0.00000000000E+00  0.24517213342E+02  0.24517213342E+02  0.00000000000E+00 0.  1.
          1   -1    0    0  501    0  0.00000000000E+00 -0.00000000000E+00 -0.63600528024E+03  0.63600528024E+03  0.00000000000E+00 0. -1.
         25    2    1    2    0    0  0.58950340836E+01  0.13834768158E+02 -0.18456269668E+03  0.22346503552E+03  0.12508829224E+03 0.  0.
          5    1    3    3  502    0  0.52608227185E+02 -0.30602911191E+02 -0.81039312744E+02  0.10143473937E+03  0.41800000000E+01 0. -1.
         -5    1    3    3    0  502 -0.46713193101E+02  0.44437679349E+02 -0.10352338394E+03  0.12203029615E+03  0.41800000000E+01 0. -1.
        -11    1    1    2    0    0  0.23556056830E+02  0.31017314124E+02 -0.21104117403E+03  0.21460507618E+03  0.00000000000E+00 0. -1.
         11    1    1    2    0    0 -0.29451090914E+02 -0.44852082282E+02 -0.21588419619E+03  0.22245238188E+03  0.00000000000E+00 0.  1.
</event>
<event>
 7    1  0.2856214E-009  0.2541153E+03  0.7561462E-02  0.1110731E+00
          1   -1    0    0  501    0  0.00000000000E+00  0.00000000000E+00  0.99438206843E+03  0.99438206843E+03  0.00000000000E+00 0. -1.
         -1   -1    0    0    0  501 -0.00000000000E+00 -0.00000000000E+00 -0.11637730618E+03  0.11637730618E+03  0.00000000000E+00 0.  1.
         25    2    1    2    0    0 -0.40079613357E+02 -0.24828011707E+03  0.11745290954E+03  0.30445323236E+03  0.12508873969E+03 0.  0.
          5    1    3    3  502    0 -0.11898359210E+02 -0.16148323295E+03  0.83990299397E+01  0.16219254477E+03  0.41800000000E+01 0.  1.
         -5    1    3    3    0  502 -0.28181254147E+02 -0.86796884128E+02  0.10905387960E+03  0.14226068759E+03  0.41800000000E+01 0.  1.
        -11    1    1    2    0    0  0.30846016660E+02  0.71355554262E+02  0.13127521729E+03  0.15256564011E+03  0.00000000000E+00 0.  1.
         11    1    1    2    0    0  0.92335966971E+01  0.17692456281E+03  0.62927663542E+03  0.65374050213E+03  0.00000000000E+00 0. -1.
</event>
<event>
 7    1  0.2856214E-009  0.2098338E+03  0.7561462E-02  0.1141698E+00
         -1   -1    0    0    0  501 -0.00000000000E+00  0.00000000000E+00  0.31742931183E+02  0.31742931183E+02  0.00000000000E+00 0.  1.
          1   -1    0    0  501    0  0.00000000000E+00 -0.00000000000E+00 -0.17119482433E+04  0.17119482433E+04  0.00000000000E+00 0. -1.
         25    2    1    2    0    0  0.59574706743E+02 -0.19661288392E+03 -0.92961203921E+03  0.96022487062E+03  0.12508991528E+03 0.  0.
          5    1    3    3  502    0  0.89382102662E+01 -0.23428029734E+02 -0.39799338482E+03  0.39880442693E+03  0.41800000000E+01 0. -1.
         -5    1    3    3    0  502  0.50636496477E+02 -0.17318485419E+03 -0.53161865439E+03  0.56142044369E+03  0.41800000000E+01 0. -1.
        -11    1    1    2    0    0 -0.60815849937E+02  0.99313407182E+02 -0.28615972413E+03  0.30894839078E+03  0.00000000000E+00 0.  1.
         11    1    1    2    0    0  0.12411431936E+01  0.97299476740E+02 -0.46443354879E+03  0.47451791310E+03  0.00000000000E+00 0. -1.
</event>
<event>
 7    1  0.2856214E-009  0.1497785E+03  0.7561462E-02  0.1200745E+00
          2   -1    0    0  501    0  0.00000000000E+00  0.00000000000E+00  0.64925003497E+02  0.64925003497E+02  0.00000000000E+00 0.  1.
         -2   -1    0    0    0  501 -0.00000000000E+00 -0.00000000000E+00 -0.46367072796E+03  0.46367072796E+03  0.00000000000E+00 0. -1.
         25    2    1    2    0    0 -0.63056624186E+02  0.10820480584E+03 -0.13689925860E+03  0.22377594146E+03  0.12509934897E+03 0.  0.
          5    1    3    3  502    0 -0.94488385391E+02  0.89977259915E+02 -0.13401726123E+03  0.18708837747E+03  0.41800000000E+01 0.  1.
         -5    1    3    3    0  502  0.31431761205E+02  0.18227545921E+02 -0.28819973653E+01  0.36687563991E+02  0.41800000000E+01 0.  1.
        -11    1    1    2    0    0  0.39739867675E+01 -0.47727508839E+02 -0.18317284545E+03  0.18933039635E+03  0.00000000000E+00 0. -1.
         11    1    1    2    0    0  0.59082637418E+02 -0.60477296997E+02 -0.78673620413E+02  0.11548939365E+03  0.00000000000E+00 0.  1.
</event>
<event>
 7    1  0.2856214E-009  0.1078792E+03  0.7561462E-02  0.1264548E+00
          2   -1    0    0  501    0  0.00000000000E+00  0.00000000000E+00  0.49657530224E+02  0.49657530224E+02  0.00000000000E+00 0. -1.
         -2   -1    0    0    0  501 -0.00000000000E+00 -0.00000000000E+00 -0.38816912838E+03  0.38816912838E+03  0.00000000000E+00 0.  1.
         25    2    1    2    0    0  0.33699606707E+02 -0.91512823283E+01 -0.30951315641E+03  0.33565691232E+03  0.12509100424E+03 0.  0.
          5    1    3    3  502    0 -0.27433837261E+02 -0.40404266274E+02 -0.63553512099E+02  0.80259837155E+02  0.41800000000E+01 0. -1.
         -5    1    3    3    0  502  0.61133443968E+02  0.31252983946E+02 -0.24595964431E+03  0.25539707517E+03  0.41800000000E+01 0. -1.
        -11    1    1    2    0    0 -0.65510878082E+02  0.31706642396E+01 -0.20165781204E+02  0.68617687154E+02  0.00000000000E+00 0.  1.
         11    1    1    2    0    0  0.31811271375E+02  0.59806180887E+01 -0.88326605444E+01  0.33552059125E+02  0.00000000000E+00 0. -1.
</event>
<event>
 7    1  0.2856214E-009  0.1508578E+03  0.7561462E-02  0.1199423E+00
         -2   -1    0    0    0  501 -0.00000000000E+00  0.00000000000E+00  0.40701322852E+02  0.40701322852E+02  0.00000000000E+00 0. -1.
          2   -1    0    0  501    0  0.00000000000E+00 -0.00000000000E+00 -0.10270235793E+04  0.10270235793E+04  0.00000000000E+00 0.  1.
         25    2    1    2    0    0 -0.10750373140E+03  0.55829869295E+02 -0.84046788932E+03  0.85831824277E+03  0.12509958568E+03 0.  0.
          5    1    3    3  502    0 -0.44783904674E+02 -0.37000589004E+02 -0.20843192189E+03  0.21641621974E+03  0.41800000000E+01 0.  1.
         -5    1    3    3    0  502 -0.62719826726E+02  0.92830458299E+02 -0.63203596743E+03  0.64190202303E+03  0.41800000000E+01 0.  1.
        -11    1    1    2    0    0  0.63411037117E+02 -0.43185438454E+01 -0.12193578928E+03  0.13750616771E+03  0.00000000000E+00 0. -1.
         11    1    1    2    0    0  0.44092694284E+02 -0.51511325450E+02 -0.23918577874E+02  0.71900491697E+02  0.00000000000E+00 0.  1.
</event>
<event>
 7    1  0.2856214E-009  0.1402557E+03  0.7561462E-02  0.1212985E+00
         -2   -1    0    0    0  501 -0.00000000000E+00  0.00000000000E+00  0.10135516081E+03  0.10135516081E+03  0.00000000000E+00 0.  1.
          2   -1    0    0  501    0  0.00000000000E+00 -0.00000000000E+00 -0.27056422456E+03  0.27056422456E+03  0.00000000000E+00 0. -1.
         25    2    1    2    0    0 -0.45160531917E+02  0.11021879750E+03 -0.11779222944E+03  0.20907101880E+03  0.12509206458E+03 0.  0.
          5    1    3    3  502    0 -0.24903480280E+02  0.10270017505E+03 -0.18494936293E+02  0.10736407385E+03  0.41800000000E+01 0. -1.
         -5    1    3    3    0  502 -0.20257051636E+02  0.75186224541E+01 -0.99297293151E+02  0.10170694495E+03  0.41800000000E+01 0. -1.
        -11    1    1    2    0    0 -0.11462987276E+02 -0.92795545402E+02 -0.43339000663E+02  0.10305669460E+03  0.00000000000E+00 0. -1.
         11    1    1    2    0    0  0.56623519192E+02 -0.17423252100E+02 -0.80778336402E+01  0.59791671960E+02  0.00000000000E+00 0.  1.
</event>
<event>
 7    1  0.2856214E-009  0.1302621E+03  0.7561462E-02  0.1227067E+00
          2   -1    0    0  501    0  0.00000000000E+00  0.00000000000E+00  0.15985499153E+03  0.15985499153E+03  0.00000000000E+00 0. -1.
         -2   -1    0    0    0  501 -0.00000000000E+00 -0.00000000000E+00 -0.13723271117E+03  0.13723271117E+03  0.00000000000E+00 0.  1.
         25    2    1    2    0    0  0.60395476568E+02 -0.80582570369E+02  0.15185818714E+02  0.16130957074E+03  0.12509598029E+03 0.  0.
          5    1    3    3  502    0  0.32744900568E+02 -0.11071759540E+03  0.26775048715E+02  0.11859591088E+03  0.41800000000E+01 0. -1.
         -5    1    3    3    0  502  0.27650576000E+02  0.30135025026E+02 -0.11589230001E+02  0.42713659858E+02  0.41800000000E+01 0. -1.
        -11    1    1    2    0    0 -0.44474282522E+02  0.38281402390E+02  0.47409868389E+02  0.75439533373E+02  0.00000000000E+00 0. -1.
         11    1    1    2    0    0 -0.15921194046E+02  0.42301167979E+02 -0.39973406746E+02  0.60338598584E+02  0.00000000000E+00 0.  1.
</event>
<event>
 7    1  0.2856214E-009  0.9252104E+02  0.7561462E-02  0.1296859E+00
          1   -1    0    0  501    0  0.00000000000E+00  0.00000000000E+00  0.18235898485E+03  0.18235898485E+03  0.00000000000E+00 0. -1.
         -1   -1    0    0    0  501 -0.00000000000E+00 -0.00000000000E+00 -0.77220185829E+02  0.77220185829E+02  0.00000000000E+00 0.  1.
         25    2    1    2    0    0  0.35946664836E+02  0.31732658567E+02  0.46069977927E+02  0.14167843625E+03  0.12510480446E+03 0.  0.
          5    1    3    3  502    0  0.57565563909E+02 -0.16882580025E+02 -0.13568115922E+02  0.61647236971E+02  0.41800000000E+01 0. -1.
         -5    1    3    3    0  502 -0.21618899072E+02  0.48615238592E+02  0.59638093849E+02  0.80031199281E+02  0.41800000000E+01 0. -1.
        -11    1    1    2    0    0 -0.49997857435E+02 -0.23420881591E+02 -0.14378418594E+01  0.55230343398E+02  0.00000000000E+00 0. -1.
         11    1    1    2    0    0  0.14051192599E+02 -0.83117769754E+01  0.60506662954E+02  0.62670391029E+02  0.00000000000E+00 0.  1.
</event>
<event>
 7    1  0.3753908E-009  0.7165127E+02  0.7561462E-02  0.1354566E+00
         -2   -1    0    0    0  501 -0.00000000000E+00  0.00000000000E+00  0.32272313579E+02  0.32272313579E+02  0.00000000000E+00 0.  1.
          2   -1    0    0  501    0  0.00000000000E+00 -0.00000000000E+00 -0.48541792468E+03  0.48541792468E+03  0.00000000000E+00 0. -1.
         25    2    1    2    0    0 -0.13498562521E+02  0.31354554880E+02 -0.36068767931E+03  0.38328665552E+03  0.12509092289E+03 0.  0.
          5    1    3    3  502    0 -0.22440168132E+02 -0.21311953012E+02 -0.30279934570E+03  0.30440544779E+03  0.41800000000E+01 0.  1.
         -5    1    3    3    0  502  0.89416056109E+01  0.52666507892E+02 -0.57888333606E+02  0.78881207724E+02  0.41800000000E+01 0.  1.
        -11    1    1    2    0    0  0.29984087921E+02 -0.29220249159E+02 -0.10535174568E+03  0.11336603904E+03  0.00000000000E+00 0. -1.
         11    1    1    2    0    0 -0.16485525400E+02 -0.21343057213E+01  0.12893813887E+02  0.21037543706E+02  0.00000000000E+00 0.  1.
</event>
<event>
 7    1  0.2856214E-009  0.1954463E+03  0.7561462E-02  0.1153639E+00
         -2   -1    0    0    0  501 -0.00000000000E+00  0.00000000000E+00  0.48402009363E+03  0.48402009363E+03  0.00000000000E+00 0.  1.
          2   -1    0    0  501    0  0.00000000000E+00 -0.00000000000E+00 -0.14876099289E+03  0.14876099289E+03  0.00000000000E+00 0. -1.
         25    2    1    2    0    0 -0.40527607695E+02 -0.17165981114E+03  0.37393821681E+03  0.43195778535E+03  0.12509260804E+03 0.  0.
          5    1    3    3  502    0  0.42624664006E+02 -0.75364938967E+02  0.18276954054E+03  0.20228423902E+03  0.41800000000E+01 0.  1.
         -5    1    3    3    0  502 -0.83152271701E+02 -0.96294872170E+02  0.19116867627E+03  0.22967354633E+03  0.41800000000E+01 0.  1.
        -11    1    1    2    0    0  0.19239976486E+02  0.53622409110E+02  0.28123436984E+02  0.63533197320E+02  0.00000000000E+00 0.  1.
         11    1    1    2    0    0  0.21287631209E+02  0.11803740203E+03 -0.66802553062E+02  0.13729010385E+03  0.00000000000E+00 0. -1.
</event>
<event>
 7    1  0.2856214E-009  0.1155620E+03  0.7561462E-02  0.1250603E+00
         -4   -1    0    0    0  501 -0.00000000000E+00  0.00000000000E+00  0.20679087309E+03  0.20679087309E+03  0.00000000000E+00 0.  1.
          4   -1    0    0  501    0  0.00000000000E+00 -0.00000000000E+00 -0.14015985436E+03  0.14015985436E+03  0.00000000000E+00 0. -1.
         25    2    1    2    0    0 -0.75320891410E+02 -0.62223632037E+02  0.12431916692E+03  0.20161304700E+03  0.12509016103E+03 0.  0.
          5    1    3    3  502    0 -0.51497218434E+02 -0.41194468347E+02 -0.69911749182E+01  0.66447698647E+02  0.41800000000E+01 0.  1.
         -5    1    3    3    0  502 -0.23823672977E+02 -0.21029163690E+02  0.13131034184E+03  0.13516534835E+03  0.41800000000E+01 0.  1.
        -11    1    1    2    0    0  0.49678388128E+02 -0.14782240215E+02 -0.28035650612E+02  0.58927536670E+02  0.00000000000E+00 0.  1.
         11    1    1    2    0    0  0.25642503282E+02  0.77005872252E+02 -0.29652497579E+02  0.86410143782E+02  0.00000000000E+00 0. -1.
</event>
<event>
 7    1  0.2856214E-009  0.1172622E+03  0.7561462E-02  0.1247683E+00
          1   -1    0    0  501    0  0.00000000000E+00  0.00000000000E+00  0.52270682302E+02  0.52270682302E+02  0.00000000000E+00 0. -1.
         -1   -1    0    0    0  501 -0.00000000000E+00 -0.00000000000E+00 -0.32692930772E+03  0.32692930772E+03  0.00000000000E+00 0.  1.
         25    2    1    2    0    0  0.46314032642E+02  0.34244025828E+02 -0.93092120314E+02  0.16622662544E+03  0.12508998848E+03 0.  0.
          5    1    3    3  502    0 -0.30964761849E+02 -0.25183163790E+02 -0.27904443740E+02  0.48878815404E+02  0.41800000000E+01 0. -1.
         -5    1    3    3    0  502  0.77278794490E+02  0.59427189619E+02 -0.65187676573E+02  0.11734781004E+03  0.41800000000E+01 0. -1.
        -11    1    1    2    0    0  0.86471384413E+01  0.18638322319E+02 -0.57653750677E+01  0.21340093996E+02  0.00000000000E+00 0. -1.
         11    1    1    2    0    0 -0.54961171083E+02 -0.52882348147E+02 -0.17580113003E+03  0.19163327058E+03  0.00000000000E+00 0.  1.
</event>
<event>
 7    1  0.2856214E-009  0.1822499E+03  0.7561462E-02  0.1165643E+00
         -1   -1    0    0    0  501 -0.00000000000E+00  0.00000000000E+00  0.89577028747E+02  0.89577028747E+02  0.00000000000E+00 0.  1.
          1   -1    0    0  501    0  0.00000000000E+00 -0.00000000000E+00 -0.44615463721E+03  0.44615463721E+03  0.00000000000E+00 0. -1.
         25    2    1    2    0    0  0.12807408966E+03  0.95736359545E+02 -0.11827013592E+03  0.23495558432E+03  0.12509148080E+03 0.  0.
          5    1    3    3  502    0  0.51417083926E+02  0.90573870373E+02 -0.13705039462E+02  0.10513155102E+03  0.41800000000E+01 0.  1.
         -5    1    3    3    0  502  0.76657005735E+02  0.51624891714E+01 -0.10456509646E+03  0.12982403329E+03  0.41800000000E+01 0.  1.
        -11    1    1    2    0    0 -0.94626086230E+02 -0.14839977991E+02 -0.13130842412E+03  0.16253068445E+03  0.00000000000E+00 0. -1.
         11    1    1    2    0    0 -0.33448003431E+02 -0.80896381553E+02 -0.10699904842E+03  0.13824539719E+03  0.00000000000E+00 0.  1.
</event>
<event>
 7    1  0.2856214E-009  0.9586518E+02  0.7561462E-02  0.1289239E+00
         -2   -1    0    0    0  501 -0.00000000000E+00  0.00000000000E+00  0.25905499814E+02  0.25905499814E+02  0.00000000000E+00 0.  1.
          2   -1    0    0  501    0  0.00000000000E+00 -0.00000000000E+00 -0.63566364668E+03  0.63566364668E+03  0.00000000000E+00 0. -1.
         25    2    1    2    0    0  0.26281659981E+02  0.40725298124E+02 -0.21279316770E+03  0.25155118867E+03  0.12509113775E+03 0.  0.
          5    1    3    3  502    0  0.51385658391E+02  0.39894087188E+02 -0.39128774096E+02  0.76029977266E+02  0.41800000000E+01 0. -1.
         -5    1    3    3    0  502 -0.25103998409E+02  0.83121093535E+00 -0.17366439360E+03  0.17552121140E+03  0.41800000000E+01 0. -1.
        -11    1    1    2    0    0 -0.26013707040E+02  0.24570304263E+02 -0.10823189931E+03  0.11399367015E+03  0.00000000000E+00 0.  1.
         11    1    1    2    0    0 -0.26795294134E+00 -0.65295602386E+02 -0.28873307986E+03  0.29602428767E+03  0.00000000000E+00 0. -1.
</event>
<event>
 7    1  0.2856214E-009  0.1413027E+03  0.7561462E-02  0.1211587E+00
          1   -1    0    0  501    0  0.00000000000E+00  0.00000000000E+00  0.10318528543E+03  0.10318528543E+03  0.00000000000E+00 0. -1.
         -1   -1    0    0    0  501 -0.00000000000E+00 -0.00000000000E+00 -0.25153592590E+03  0.25153592590E+03  0.00000000000E+00 0.  1.
         25    2    1    2    0    0 -0.21766738758E+01 -0.11380136092E+03 -0.11022317842E+03  0.20187068644E+03  0.12508851796E+03 0.  0.
          5    1    3    3  502    0 -0.10148955539E+02 -0.13943338011E+03 -0.10318177304E+03  0.17380626995E+03  0.41800000000E+01 0. -1.
         -5    1    3    3    0  502  0.79722816631E+01  0.25632019194E+02 -0.70414053825E+01  0.28064416485E+02  0.41800000000E+01 0. -1.
        -11    1    1    2    0    0 -0.89914255063E+01  0.49600559556E+02 -0.65090545781E+02  0.82327640504E+02  0.00000000000E+00 0.  1.
         11    1    1    2    0    0  0.11168099382E+02  0.64200801361E+02  0.26963083727E+02  0.70522884394E+02  0.00000000000E+00 0. -1.
</event>
<event>
 7    1  0.2856214E-009  0.1587957E+03  0.7561462E-02  0.1190063E+00
          2   -1    0    0  501    0  0.00000000000E+00  0.00000000000E+00  0.18957390808E+03  0.18957390808E+03  0.00000000000E+00 0. -1.
         -2   -1    0    0    0  501 -0.00000000000E+00 -0.00000000000E+00 -0.16020836948E+03  0.16020836948E+03  0.00000000000E+00 0.  1.
         25    2    1    2    0    0  0.15304089721E+02  0.13336999533E+03  0.46480317863E+02  0.18928241893E+03  0.12508254614E+03 0.  0.
          5    1    3    3  502    0  0.55947661577E+02  0.57081930327E+02  0.62151017789E+02  0.10133463879E+03  0.41800000000E+01 0.  1.
         -5    1    3    3    0  502 -0.40643571856E+02  0.76288065004E+02 -0.15670699926E+02  0.87947780139E+02  0.41800000000E+01 0.  1.
        -11    1    1    2    0    0 -0.39858932458E+02 -0.11045804785E+03  0.92642154609E+01  0.11779448425E+03  0.00000000000E+00 0.  1.
         11    1    1    2    0    0  0.24554842736E+02 -0.22911947479E+02 -0.26378994719E+02  0.42705374386E+02  0.00000000000E+00 0. -1.
</event>
<event>
 7    1  0.4153577E-009  0.7648517E+02  0.7561462E-02  0.1339333E+00
          2   -1    0    0  501    0  0.00000000000E+00  0.00000000000E+00  0.39982261211E+03  0.39982261211E+03  0.00000000000E+00 0. -1.
         -2   -1    0    0    0  501 -0.00000000000E+00 -0.00000000000E+00 -0.38934956551E+02  0.38934956551E+02  0.00000000000E+00 0.  1.
         25    2    1    2    0    0 -0.53143208999E+02 -0.22572543571E+02  0.16221604009E+03  0.21282626003E+03  0.12508897997E+03 0.  0.
          5    1    3    3  502    0 -0.47686195094E+02 -0.40267873459E+02  0.14915153885E+02  0.64307146189E+02  0.41800000000E+01 0. -1.
         -5    1    3    3    0  502 -0.54570139042E+01  0.17695329888E+02  0.14730088620E+03  0.14851911384E+03  0.41800000000E+01 0. -1.
        -11    1    1    2    0    0  0.36714118710E+02  0.35084369253E+02  0.19889867543E+03  0.20527913330E+03  0.00000000000E+00 0. -1.
         11    1    1    2    0    0  0.16429090288E+02 -0.12511825682E+02 -0.22705996358E+00  0.20652175329E+02  0.00000000000E+00 0.  1.
</event>
<event>
 7    1  0.2856214E-009  0.1108053E+03  0.7561462E-02  0.1259086E+00
         -1   -1    0    0    0  501 -0.00000000000E+00  0.00000000000E+00  0.11682239744E+03  0.11682239744E+03  0.00000000000E+00 0.  1.
          1   -1    0    0  501    0  0.00000000000E+00 -0.00000000000E+00 -0.14223899214E+03  0.14223899214E+03  0.00000000000E+00 0. -1.
         25    2    1    2    0    0  0.66602439560E+02 -0.17919667235E+02 -0.22560635175E+02  0.14460622336E+03  0.12507988705E+03 0.  0.
          5    1    3    3  502    0  0.82622921995E+02 -0.30154088250E+02 -0.56707909157E+02  0.10473335495E+03  0.41800000000E+01 0. -1.
         -5    1    3    3    0  502 -0.16020482435E+02  0.12234421015E+02  0.34147273982E+02  0.39872868412E+02  0.41800000000E+01 0. -1.
        -11    1    1    2    0    0 -0.34612468893E+02 -0.36212179525E+02  0.77495418582E+01  0.50689252784E+02  0.00000000000E+00 0.  1.
         11    1    1    2    0    0 -0.31989970667E+02  0.54131846760E+02 -0.10605501378E+02  0.63765913437E+02  0.00000000000E+00 0. -1.
</event>
<event>
 7    1  0.2856214E-009  0.1075877E+03  0.7561462E-02  0.1265103E+00
         -2   -1    0    0    0  501 -0.00000000000E+00  0.00000000000E+00  0.14456876132E+03  0.14456876132E+03  0.00000000000E+00 0. -1.
          2   -1    0    0  501    0  0.00000000000E+00 -0.00000000000E+00 -0.11364512295E+03  0.11364512295E+03  0.00000000000E+00 0.  1.
         25    2    1    2    0    0 -0.42779441778E+02  0.43614245756E+02  0.45797572119E+02  0.14655009890E+03  0.12508889160E+03 0.  0.
          5    1    3    3  502    0 -0.60080961301E+02 -0.23737470554E+02  0.41201304687E+02  0.76734668352E+02  0.41800000000E+01 0.  1.
         -5    1    3    3    0  502  0.17301519522E+02  0.67351716310E+02  0.45962674319E+01  0.69815430544E+02  0.41800000000E+01 0.  1.
        -11    1    1    2    0    0  0.24705792869E+02  0.80958126142E+01 -0.42877033326E+02  0.50143378127E+02  0.00000000000E+00 0.  1.
         11    1    1    2    0    0  0.18073648910E+02 -0.51710058370E+02  0.28003099581E+02  0.61520407246E+02  0.00000000000E+00 0. -1.
</event>
<event>
 7    1  0.2856214E-009  0.1035368E+03  0.7561462E-02  0.1273030E+00
          1   -1    0    0  501    0  0.00000000000E+00  0.00000000000E+00  0.16982315602E+03  0.16982315602E+03  0.00000000000E+00 0. -1.
         -1   -1    0    0    0  501 -0.00000000000E+00 -0.00000000000E+00 -0.10486774307E+03  0.10486774307E+03  0.00000000000E+00 0.  1.
         25    2    1    2    0    0  0.22941094868E+02  0.50965533079E+02 -0.17916606654E+02  0.13817035693E+03  0.12508502446E+03 0.  0.
          5    1    3    3  502    0 -0.11986498031E+02  0.60761581291E+02  0.36968483158E+02  0.72248093699E+02  0.41800000000E+01 0.  1.
         -5    1    3    3    0  502  0.34927592899E+02 -0.97960482123E+01 -0.54885089812E+02  0.65922263235E+02  0.41800000000E+01 0.  1.
        -11    1    1    2    0    0 -0.18029784923E+02 -0.78485568954E+02  0.62107082111E+02  0.10169733196E+03  0.00000000000E+00 0. -1.
         11    1    1    2    0    0 -0.49113099458E+01  0.27520035875E+02  0.20764937495E+02  0.34823210207E+02  0.00000000000E+00 0.  1.
</event>
<event>
 7    1  0.2856214E-009  0.1685085E+03  0.7561462E-02  0.1179412E+00
          1   -1    0    0  501    0  0.00000000000E+00  0.00000000000E+00  0.44502475647E+03  0.44502475647E+03  0.00000000000E+00 0. -1.
         -1   -1    0    0    0  501 -0.00000000000E+00 -0.00000000000E+00 -0.73703866953E+02  0.73703866953E+02  0.00000000000E+00 0.  1.
         25    2    1    2    0    0 -0.94076083991E+02  0.10379870858E+03  0.21270951968E+03  0.28375530990E+03  0.12508898694E+03 0.  0.
          5    1    3    3  502    0 -0.34482813761E+02  0.11554921484E+03  0.17352767106E+03  0.21135281053E+03  0.41800000000E+01 0.  1.
         -5    1    3    3    0  502 -0.59593270229E+02 -0.11750506265E+02  0.39181848620E+02  0.72402499373E+02  0.41800000000E+01 0.  1.
        -11    1    1    2    0    0 -0.10365511845E+02 -0.15837363348E+02  0.69235590153E+02  0.71776269459E+02  0.00000000000E+00 0. -1.
         11    1    1    2    0    0  0.10444159584E+03 -0.87961345231E+02  0.89375779681E+02  0.16319704406E+03  0.00000000000E+00 0.  1.
</event>
<event>
 7    1  0.2856214E-009  0.1454352E+03  0.7561462E-02  0.1206197E+00
         -3   -1    0    0    0  501 -0.00000000000E+00  0.00000000000E+00  0.36862445317E+02  0.36862445317E+02  0.00000000000E+00 0.  1.
          3   -1    0    0  501    0  0.00000000000E+00 -0.00000000000E+00 -0.82547041149E+03  0.82547041149E+03  0.00000000000E+00 0. -1.
         25    2    1    2    0    0 -0.62101854750E+02 -0.12045316596E+03 -0.42319886290E+03  0.46163559946E+03  0.12507814989E+03 0.  0.
          5    1    3    3  502    0  0.21084512078E+00 -0.79940768942E+02 -0.34297917110E+03  0.35219704031E+03  0.41800000000E+01 0. -1.
         -5    1    3    3    0  502 -0.62312699870E+02 -0.40512397017E+02 -0.80219691796E+02  0.10943855915E+03  0.41800000000E+01 0. -1.
        -11    1    1    2    0    0  0.39306576771E+02  0.59588198316E+02 -0.30042372028E+03  0.30878823174E+03  0.00000000000E+00 0. -1.
         11    1    1    2    0    0  0.22795277979E+02  0.60864967642E+02 -0.64985382997E+02  0.91909025604E+02  0.00000000000E+00 0.  1.
</event>
<event>
 7    1  0.2856214E-009  0.1181575E+03  0.7561462E-02  0.1246168E+00
          2   -1    0    0  501    0  0.00000000000E+00  0.00000000000E+00  0.72777954242E+03  0.72777954242E+03  0.00000000000E+00 0. -1.
         -2   -1    0    0    0  501 -0.00000000000E+00 -0.00000000000E+00 -0.30315333657E+02  0.30315333657E+02  0.00000000000E+00 0.  1.
         25    2    1    2    0    0  0.33124258016E+02 -0.95676118146E+02  0.37108878582E+03  0.40448196516E+03  0.12509051571E+03 0.  0.
          5    1    3    3  502    0  0.38511848427E+02 -0.77913133821E+02  0.37508050427E+03  0.38504087571E+03  0.41800000000E+01 0.  1.
         -5    1    3    3    0  502 -0.53875904114E+01 -0.17762984326E+02 -0.39917184412E+01  0.19441089443E+02  0.41800000000E+01 0.  1.
        -11    1    1    2    0    0  0.27143049129E+02  0.39218021596E+02  0.73715432377E+02  0.87799563236E+02  0.00000000000E+00 0.  1.
         11    1    1    2    0    0 -0.60267307144E+02  0.56458096550E+02  0.25265999056E+03  0.26581334768E+03  0.00000000000E+00 0. -1.
</event>
<event>
 7    1  0.2856214E-009  0.3207728E+03  0.7561462E-02  0.1075294E+00
          2   -1    0    0  501    0  0.00000000000E+00  0.00000000000E+00  0.33164767769E+03  0.33164767769E+03  0.00000000000E+00 0. -1.
         -2   -1    0    0    0  501 -0.00000000000E+00 -0.00000000000E+00 -0.43324900883E+03  0.43324900883E+03  0.00000000000E+00 0.  1.
         25    2    1    2    0    0 -0.23003404960E+03  0.21540617722E+03 -0.23491141357E+03  0.41249170058E+03  0.12510214090E+03 0.  0.
          5    1    3    3  502    0 -0.15411161426E+03  0.13043024875E+03 -0.21809499710E+03  0.29722943933E+03  0.41800000000E+01 0. -1.
         -5    1    3    3    0  502 -0.75922435334E+02  0.84975928465E+02 -0.16816416471E+02  0.11526226125E+03  0.41800000000E+01 0. -1.
        -11    1    1    2    0    0  0.92433078672E+02 -0.14250312809E+03  0.80566549767E+02  0.18799463952E+03  0.00000000000E+00 0.  1.
         11    1    1    2    0    0  0.13760097092E+03 -0.72903049128E+02  0.52743532666E+02  0.16441034642E+03  0.00000000000E+00 0. -1.
</event>
<event>
 7    1  0.2856214E-009  0.1000604E+03  0.7561462E-02  0.1280169E+00
          1   -1    0    0  501    0  0.00000000000E+00  0.00000000000E+00  0.48072796711E+03  0.48072796711E+03  0.00000000000E+00 0. -1.
         -1   -1    0    0    0  501 -0.00000000000E+00 -0.00000000000E+00 -0.33931135666E+02  0.33931135666E+02  0.00000000000E+00 0.  1.
         25    2    1    2    0    0  0.40576715661E+02 -0.54320293068E+02  0.22811660075E+03  0.26885250524E+03  0.12508925591E+03 0.  0.
          5    1    3    3  502    0 -0.17669026058E+02 -0.68002115823E+02  0.17542215318E+03  0.18901557202E+03  0.41800000000E+01 0.  1.
         -5    1    3    3    0  502  0.58245741719E+02  0.13681822755E+02  0.52694447568E+02  0.79836933226E+02  0.41800000000E+01 0.  1.
        -11    1    1    2    0    0 -0.89218733035E+01  0.25256458376E+02  0.42602376437E+01  0.27122649902E+02  0.00000000000E+00 0.  1.
         11    1    1    2    0    0 -0.31654842358E+02  0.29063834692E+02  0.21441999305E+03  0.21868394763E+03  0.00000000000E+00 0. -1.
</event>
<event>
 7    1  0.2856214E-009  0.1131278E+03  0.7561462E-02  0.1254885E+00
         -1   -1    0    0    0  501 -0.00000000000E+00  0.00000000000E+00  0.18453353772E+02  0.18453353772E+02  0.00000000000E+00 0.  1.
          1   -1    0    0  501    0  0.00000000000E+00 -0.00000000000E+00 -0.10256446643E+04  0.10256446643E+04  0.00000000000E+00 0. -1.
         25    2    1    2    0    0  0.75455201027E+02  0.63557381753E+01 -0.68296394234E+03  0.69844205807E+03  0.12509068380E+03 0.  0.
          5    1    3    3  502    0 -0.27031258793E+02 -0.87472979572E+01 -0.55694501948E+02  0.62662222437E+02  0.41800000000E+01 0. -1.
         -5    1    3    3    0  502  0.10248645982E+03  0.15103036133E+02 -0.62726944039E+03  0.63577983563E+03  0.41800000000E+01 0. -1.
        -11    1    1    2    0    0 -0.28768647387E+02  0.24592955810E+02 -0.36685854912E+02  0.52709586401E+02  0.00000000000E+00 0.  1.
         11    1    1    2    0    0 -0.46686553640E+02 -0.30948693985E+02 -0.28754151331E+03  0.29294637364E+03  0.00000000000E+00 0. -1.
</event>
<event>
 7    1  0.4324328E-009  0.1718052E+03  0.7561462E-02  0.1175978E+00
         -1   -1    0    0    0  501 -0.00000000000E+00  0.00000000000E+00  0.36792356533E+02  0.36792356533E+02  0.00000000000E+00 0.  1.
          1   -1    0    0  501    0  0.00000000000E+00 -0.00000000000E+00 -0.85995854822E+03  0.85995854822E+03  0.00000000000E+00 0. -1.
         25    2    1    2    0    0 -0.12793311694E+03 -0.57579004226E+02 -0.41806605917E+03  0.45837627084E+03  0.12508937484E+03 0.  0.
          5    1    3    3  502    0 -0.12424858168E+03 -0.58876999893E+01 -0.35756039416E+03  0.37860174713E+03  0.41800000000E+01 0. -1.
         -5    1    3    3    0  502 -0.36845352606E+01 -0.51691304236E+02 -0.60505665015E+02  0.79774523707E+02  0.41800000000E+01 0. -1.
        -11    1    1    2    0    0  0.98054657458E+02 -0.46146050296E+01 -0.25203648714E+03  0.27047809759E+03  0.00000000000E+00 0.  1.
         11    1    1    2    0    0  0.29878459480E+02  0.62193609255E+02 -0.15306364538E+03  0.16789653632E+03  0.00000000000E+00 0. -1.
</event>
<event>
 7    1  0.2856214E-009  0.1626071E+03  0.7561462E-02  0.1185784E+00
         -1   -1    0    0    0  501 -0.00000000000E+00  0.00000000000E+00  0.76661377299E+02  0.76661377299E+02  0.00000000000E+00 0.  1.
          1   -1    0    0  501    0  0.00000000000E+00 -0.00000000000E+00 -0.44037023921E+03  0.44037023921E+03  0.00000000000E+00 0. -1.
         25    2    1    2    0    0 -0.66487486176E+01  0.13387099531E+03 -0.27617391523E+03  0.33149041070E+03  0.12509281230E+03 0.  0.
          5    1    3    3  502    0 -0.59341412246E+02  0.31296568293E+02 -0.11619821426E+03  0.13423999326E+03  0.41800000000E+01 0.  1.
         -5    1    3    3    0  502  0.52692663629E+02  0.10257442701E+03 -0.15997570098E+03  0.19725041744E+03  0.41800000000E+01 0.  1.
        -11    1    1    2    0    0  0.27158889583E+02 -0.58605924942E+02 -0.85949542111E+02  0.10751550358E+03  0.00000000000E+00 0. -1.
         11    1    1    2    0    0 -0.20510140965E+02 -0.75265070363E+02 -0.15854045603E+01  0.78025702219E+02  0.00000000000E+00 0.  1.
</event>
<event>
 7    1  0.2856214E-009  0.1991239E+03  0.7561462E-02  0.1150480E+00
          2   -1    0    0  501    0  0.00000000000E+00  0.00000000000E+00  0.22050386406E+03  0.22050386406E+03  0.00000000000E+00 0. -1.
         -2   -1    0    0    0  501 -0.00000000000E+00 -0.00000000000E+00 -0.27952206221E+03  0.27952206221E+03  0.00000000000E+00 0.  1.
         25    2    1    2    0    0  0.28033014220E+02 -0.16922331218E+03 -0.17395638808E+03  0.27446714880E+03  0.12509600932E+03 0.  0.
          5    1    3    3  502    0  0.66411413112E+02 -0.15462484087E+03 -0.15582571298E+03  0.22938710171E+03  0.41800000000E+01 0.  1.
         -5    1    3    3    0  502 -0.38378398892E+02 -0.14598471306E+02 -0.18130675096E+02  0.45080047088E+02  0.41800000000E+01 0.  1.
        -11    1    1    2    0    0  0.22414159468E+02  0.10288498345E+03  0.37448307855E+02  0.11175907179E+03  0.00000000000E+00 0.  1.
         11    1    1    2    0    0 -0.50447173688E+02  0.66338328726E+02  0.77489882070E+02  0.11379970569E+03  0.00000000000E+00 0. -1.
</event>
<event>
 7    1  0.2856214E-009  0.9124960E+02  0.7561462E-02  0.1299854E+00
          2   -1    0    0  501    0  0.00000000000E+00  0.00000000000E+00  0.40856873399E+03  0.40856873399E+03  0.00000000000E+00 0. -1.
         -2   -1    0    0    0  501 -0.00000000000E+00 -0.00000000000E+00 -0.32963002430E+02  0.32963002430E+02  0.00000000000E+00 0.  1.
         25    2    1    2    0    0  0.16419626693E+02  0.38384037823E+02  0.17366410491E+03  0.21805944939E+03  0.12509102140E+03 0.  0.
          5    1    3    3  502    0 -0.15508798054E+02 -0.18981745503E+02  0.14358740317E+03  0.14572454916E+03  0.41800000000E+01 0. -1.
         -5    1    3    3    0  502  0.31928424747E+02  0.57365783325E+02  0.30076701739E+02  0.72334900227E+02  0.41800000000E+01 0. -1.
        -11    1    1    2    0    0 -0.26191791553E+02  0.19809698810E+02  0.10467882115E+03  0.10970911406E+03  0.00000000000E+00 0. -1.
         11    1    1    2    0    0  0.97721648604E+01 -0.58193736633E+02  0.97262805506E+02  0.11376317297E+03  0.00000000000E+00 0.  1.
</event>
<event>
 7    1  0.2856214E-009  0.9268271E+02  0.7561462E-02  0.1296482E+00
         -2   -1    0    0    0  501 -0.00000000000E+00  0.00000000000E+00  0.10471245045E+03  0.10471245045E+03  0.00000000000E+00 0. -1.
          2   -1    0    0  501    0  0.00000000000E+00 -0.00000000000E+00 -0.13257322935E+03  0.13257322935E+03  0.00000000000E+00 0.  1.
         25    2    1    2    0    0 -0.42730169410E+02 -0.25228414779E+01  0.22751900540E+01  0.13222656054E+03  0.12508578943E+03 0.  0.
          5    1    3    3  502    0 -0.58738801188E+02  0.49757635375E+02  0.55415431816E+01  0.77293273601E+02  0.41800000000E+01 0.  1.
         -5    1    3    3    0  502  0.16008631779E+02 -0.52280476853E+02 -0.32663531277E+01  0.54933286941E+02  0.41800000000E+01 0.  1.
        -11    1    1    2    0    0  0.71371916521E+01 -0.12822440955E+02  0.30067444960E+02  0.33457521474E+02  0.00000000000E+00 0. -1.
         11    1    1    2    0    0  0.35592977758E+02  0.15345282433E+02 -0.60203413911E+02  0.71601597784E+02  0.00000000000E+00 0.  1.
</event>
<event>
 7    1  0.2856214E-009  0.1175185E+03  0.7561462E-02  0.1247248E+00
         -2   -1    0    0    0  501 -0.00000000000E+00  0.00000000000E+00  0.26468237148E+03  0.26468237148E+03  0.00000000000E+00 0.  1.
          2   -1    0    0  501    0  0.00000000000E+00 -0.00000000000E+00 -0.64743332323E+02  0.64743332323E+02  0.00000000000E+00 0. -1.
         25    2    1    2    0    0 -0.60385038126E+01  0.61387354219E+02  0.12598578232E+03  0.18794916981E+03  0.12509037651E+03 0.  0.
          5    1    3    3  502    0 -0.30669909059E+01  0.89836150266E+02  0.13067780460E+03  0.15866348459E+03  0.41800000000E+01 0.  1.
         -5    1    3    3    0  502 -0.29715129068E+01 -0.28448796047E+02 -0.46920222746E+01  0.29285685215E+02  0.41800000000E+01 0.  1.
        -11    1    1    2    0    0  0.24608503096E+02  0.20592063000E+02  0.38842065140E+02  0.50381717989E+02  0.00000000000E+00 0.  1.
         11    1    1    2    0    0 -0.18569999283E+02 -0.81979417219E+02  0.35111191690E+02  0.91094816004E+02  0.00000000000E+00 0. -1.
</event>
<event>
 7    1  0.3063853E-009  0.7636341E+02  0.7561462E-02  0.1339700E+00
         -3   -1    0    0    0  501 -0.00000000000E+00  0.00000000000E+00  0.31507836728E+02  0.31507836728E+02  0.00000000000E+00 0.  1.
          3   -1    0    0  501    0  0.00000000000E+00 -0.00000000000E+00 -0.41870808165E+03  0.41870808165E+03  0.00000000000E+00 0. -1.
         25    2    1    2    0    0 -0.36240952812E+02 -0.11678702934E+01 -0.23764811174E+03  0.27099580510E+03  0.12508929126E+03 0.  0.
          5    1    3    3  502    0 -0.11751436103E+02  0.30573360204E+02 -0.32748038630E+01  0.33181671823E+02  0.41800000000E+01 0.  1.
         -5    1    3    3    0  502 -0.24489516709E+02 -0.31741230497E+02 -0.23437330788E+03  0.23781413328E+03  0.41800000000E+01 0.  1.
        -11    1    1    2    0    0  0.11643595855E+02 -0.34308199223E+02 -0.17392451997E+02  0.40188595955E+02  0.00000000000E+00 0.  1.
         11    1    1    2    0    0  0.24597356957E+02  0.35476069516E+02 -0.13215968119E+03  0.13903151732E+03  0.00000000000E+00 0. -1.
</event>
<event>
 7    1  0.2856214E-009  0.1630204E+03  0.7561462E-02  0.1185328E+00
         -2   -1    0    0    0  501 -0.00000000000E+00  0.00000000000E+00  0.11908687922E+03  0.11908687922E+03  0.00000000000E+00 0.  1.
          2   -1    0    0  501    0  0.00000000000E+00 -0.00000000000E+00 -0.26406176518E+03  0.26406176518E+03  0.00000000000E+00 0. -1.
         25    2    1    2    0    0 -0.66572509594E+02  0.12115696442E+03 -0.10341009000E+03  0.21319716298E+03  0.12509386287E+03 0.  0.
          5    1    3    3  502    0 -0.57342248724E+02  0.11423187257E+02 -0.82222270542E+02  0.10097819997E+03  0.41800000000E+01 0.  1.
         -5    1    3    3    0  502 -0.92302608701E+01  0.10973377716E+03 -0.21187819456E+02  0.11221896301E+03  0.41800000000E+01 0.  1.
        -11    1    1    2    0    0  0.64612614652E+02 -0.39895807879E+02  0.53042128705E+01  0.76122270937E+02  0.00000000000E+00 0. -1.
         11    1    1    2    0    0  0.19598949420E+01 -0.81261156541E+02 -0.46869008827E+02  0.93829210478E+02  0.00000000000E+00 0.  1.
</event>
<event>
 7    1  0.2856214E-009  0.1197592E+03  0.7561462E-02  0.1243495E+00
         -2   -1    0    0    0  501 -0.00000000000E+00  0.00000000000E+00  0.24977584170E+02  0.24977584170E+02  0.00000000000E+00 0. -1.
          2   -1    0    0  501    0  0.00000000000E+00 -0.00000000000E+00 -0.58743202634E+03  0.58743202634E+03  0.00000000000E+00 0.  1.
         25    2    1    2    0    0 -0.35887632985E+02 -0.59891504412E+02 -0.30521278026E+03  0.33716007590E+03  0.12508861275E+03 0.  0.
          5    1    3    3  502    0 -0.78819916557E+02 -0.61495908501E+02 -0.20997265804E+03  0.23259474528E+03  0.41800000000E+01 0. -1.
         -5    1    3    3    0  502  0.42932283573E+02  0.16044040891E+01 -0.95240122228E+02  0.10456533062E+03  0.41800000000E+01 0. -1.
        -11    1    1    2    0    0  0.38081198432E+02  0.17604468438E+01 -0.12719421708E+03  0.13278420729E+03  0.00000000000E+00 0. -1.
         11    1    1    2    0    0 -0.21935654477E+01  0.58131057568E+02 -0.13004744482E+03  0.14246532732E+03  0.00000000000E+00 0.  1.
</event>
<event>
 7    1  0.2856214E-009  0.2311785E+03  0.7561462E-02  0.1125813E+00
         -1   -1    0    0    0  501 -0.00000000000E+00  0.00000000000E+00  0.23055004487E+03  0.23055004487E+03  0.00000000000E+00 0.  1.
          1   -1    0    0  501    0  0.00000000000E+00 -0.00000000000E+00 -0.31028874653E+03  0.31028874653E+03  0.00000000000E+00 0. -1.
         25    2    1    2    0    0  0.98378762684E+02 -0.20692692138E+03 -0.12686575508E+03  0.29024087261E+03  0.12509081735E+03 0.  0.
          5    1    3    3  502    0  0.25604153067E+02 -0.64417446209E+02 -0.10890960995E+03  0.12916638716E+03  0.41800000000E+01 0. -1.
         -5    1    3    3    0  502  0.72774609617E+02 -0.14250947517E+03 -0.17956145128E+02  0.16107448546E+03  0.41800000000E+01 0. -1.
        -11    1    1    2    0    0 -0.26453562172E+02  0.10374523589E+03  0.62361209954E+02  0.12390232213E+03  0.00000000000E+00 0.  1.
         11    1    1    2    0    0 -0.71925200512E+02  0.10318168549E+03 -0.15234156535E+02  0.12669559666E+03  0.00000000000E+00 0. -1.
</event>
<event>
 7    1  0.2856214E-009  0.8869215E+02  0.7561462E-02  0.1306050E+00
          1   -1    0    0  501    0  0.00000000000E+00  0.00000000000E+00  0.21470300122E+03  0.21470300122E+03  0.00000000000E+00 0. -1.
         -1   -1    0    0    0  501 -0.00000000000E+00 -0.00000000000E+00 -0.70393033819E+02  0.70393033819E+02  0.00000000000E+00 0.  1.
         25    2    1    2    0    0 -0.15836525245E+01  0.45561771429E+02  0.48266450607E+02  0.14161767928E+03  0.12509010297E+03 0.  0.
          5    1    3    3  502    0 -0.22334714501E+02  0.72783382705E+02 -0.69012005139E+01  0.76559514355E+02  0.41800000000E+01 0. -1.
         -5    1    3    3    0  502  0.20751061976E+02 -0.27221611276E+02  0.55167651120E+02  0.65058164927E+02  0.41800000000E+01 0. -1.
        -11    1    1    2    0    0  0.16074722940E+02  0.26669662473E+01 -0.14622236238E+02  0.21893360161E+02  0.00000000000E+00 0.  1.
         11    1    1    2    0    0 -0.14491070415E+02 -0.48228737677E+02  0.11066575304E+03  0.12158499560E+03  0.00000000000E+00 0. -1.
</event>
<event>
 7    1  0.3230302E-009  0.1011233E+03  0.7561462E-02  0.1277951E+00
         -3   -1    0    0    0  501 -0.00000000000E+00  0.00000000000E+00  0.11601051328E+03  0.11601051328E+03  0.00000000000E+00 0.  1.
          3   -1    0    0  501    0  0.00000000000E+00 -0.00000000000E+00 -0.14932601687E+03  0.14932601687E+03  0.00000000000E+00 0. -1.
         25    2    1    2    0    0  0.71271888686E+02 -0.11317469325E+01 -0.39007900774E+02  0.14917126680E+03  0.12509791185E+03 0.  0.
          5    1    3    3  502    0 -0.14051835388E+02 -0.35865700636E+02 -0.41689607546E+02  0.56914834070E+02  0.41800000000E+01 0. -1.
         -5    1    3    3    0  502  0.85323724074E+02  0.34733953703E+02  0.26817067728E+01  0.92256432734E+02  0.41800000000E+01 0. -1.
        -11    1    1    2    0    0 -0.45686169931E+02  0.46402226341E+00  0.48284680432E+02  0.66474444744E+02  0.00000000000E+00 0.  1.
         11    1    1    2    0    0 -0.25585718755E+02  0.66772466911E+00 -0.42592283254E+02  0.49690818601E+02  0.00000000000E+00 0. -1.
</event>
<event>
 7    1  0.2856214E-009  0.6872202E+02  0.7561462E-02  0.1364494E+00
          2   -1    0    0  501    0  0.00000000000E+00  0.00000000000E+00  0.65721251407E+03  0.65721251407E+03  0.00000000000E+00 0. -1.
         -2   -1    0    0    0  501 -0.00000000000E+00 -0.00000000000E+00 -0.18955322981E+02  0.18955322981E+02  0.00000000000E+00 0.  1.
         25    2    1    2    0    0  0.85622361787E+01  0.12865713562E+02  0.42687597003E+03  0.44509412392E+03  0.12508735701E+03 0.  0.
          5    1    3    3  502    0 -0.55649949231E+01 -0.15482698709E+02 -0.49217776610E-01  0.16975215763E+02  0.41800000000E+01 0. -1.
         -5    1    3    3    0  502  0.14127231102E+02  0.28348412271E+02  0.42692518780E+03  0.42811890815E+03  0.41800000000E+01 0. -1.
        -11    1    1    2    0    0 -0.42819882341E+02 -0.27902158731E+02  0.15665800138E+03  0.16478410779E+03  0.00000000000E+00 0. -1.
         11    1    1    2    0    0  0.34257646163E+02  0.15036445168E+02  0.54723219685E+02  0.66289605343E+02  0.00000000000E+00 0.  1.
</event>
<event>
 7    1  0.2898068E-009  0.8944467E+02  0.7561462E-02  0.1304202E+00
          2   -1    0    0  501    0  0.00000000000E+00  0.00000000000E+00  0.24960297528E+03  0.24960297528E+03  0.00000000000E+00 0. -1.
         -2   -1    0    0    0  501 -0.00000000000E+00 -0.00000000000E+00 -0.57766455491E+02  0.57766455491E+02  0.00000000000E+00 0.  1.
         25    2    1    2    0    0  0.21983276277E+02 -0.42863703414E+02  0.13542415771E+03  0.19054681728E+03  0.12509126900E+03 0.  0.
          5    1    3    3  502    0  0.40701981922E+02  0.21883571804E+02  0.90685004282E+01  0.47278453309E+02  0.41800000000E+01 0. -1.
         -5    1    3    3    0  502 -0.18718705645E+02 -0.64747275218E+02  0.12635565728E+03  0.14326836398E+03  0.41800000000E+01 0. -1.
        -11    1    1    2    0    0 -0.28429989069E+01  0.45544673067E+02  0.76417855486E+02  0.89006115097E+02  0.00000000000E+00 0. -1.
         11    1    1    2    0    0 -0.19140277370E+02 -0.26809696523E+01 -0.20005493408E+02  0.27816498389E+02  0.00000000000E+00 0.  1.
</event>
<event>
 7    1  0.2856214E-009  0.1154400E+03  0.7561462E-02  0.1250815E+00
         -2   -1    0    0    0  501 -0.00000000000E+00  0.00000000000E+00  0.29412921608E+02  0.29412921608E+02  0.00000000000E+00 0. -1.
          2   -1    0    0  501    0  0.00000000000E+00 -0.00000000000E+00 -0.53498484935E+03  0.53498484935E+03  0.00000000000E+00 0.  1.
         25    2    1    2    0    0 -0.58281665367E+02  0.25952355835E+02 -0.29812876895E+03  0.32954400009E+03  0.12509279686E+03 0.  0.
          5    1    3    3  502    0 -0.33960308063E+02 -0.47682533087E+02 -0.16854766835E+03  0.17847329042E+03  0.41800000000E+01 0.  1.
         -5    1    3    3    0  502 -0.24321357304E+02  0.73634888922E+02 -0.12958110060E+03  0.15107070967E+03  0.41800000000E+01 0.  1.
        -11    1    1    2    0    0 -0.95526572385E+01 -0.24920457912E+02 -0.12628684418E+03  0.12907613837E+03  0.00000000000E+00 0.  1.
         11    1    1    2    0    0  0.67834322606E+02 -0.10318979232E+01 -0.81156314609E+02  0.10577763250E+03  0.00000000000E+00 0. -1.
</event>
<event>
 7    1  0.2856214E-009  0.1268877E+03  0.7561462E-02  0.1232148E+00
         -2   -1    0    0    0  501 -0.00000000000E+00  0.00000000000E+00  0.21146903493E+02  0.21146903493E+02  0.00000000000E+00 0.  1.
          2   -1    0    0  501    0  0.00000000000E+00 -0.00000000000E+00 -0.11050375146E+04  0.11050375146E+04  0.00000000000E+00 0. -1.
         25    2    1    2    0    0 -0.10145721353E+03  0.24422832886E+02 -0.67064631268E+03  0.69014753391E+03  0.12508837242E+03 0.  0.
          5    1    3    3  502    0  0.11364199626E+02  0.33847347932E+02 -0.31121776544E+03  0.31328702163E+03  0.41800000000E+01 0. -1.
         -5    1    3    3    0  502 -0.11282141316E+03 -0.94245150461E+01 -0.35942854723E+03  0.37686051228E+03  0.41800000000E+01 0. -1.
        -11    1    1    2    0    0  0.29410488715E+02 -0.42314189627E+01 -0.20188834128E+02  0.35923123143E+02  0.00000000000E+00 0.  1.
         11    1    1    2    0    0  0.72046724817E+02 -0.20191413924E+02 -0.39305546429E+03  0.40011376103E+03  0.00000000000E+00 0. -1.
</event>
<event>
 7    1  0.2856214E-009  0.1640511E+03  0.7561462E-02  0.1184198E+00
          1   -1    0    0  501    0  0.00000000000E+00  0.00000000000E+00  0.77245628602E+03  0.77245628602E+03  0.00000000000E+00 0. -1.
         -1   -1    0    0    0  501 -0.00000000000E+00 -0.00000000000E+00 -0.41703629253E+02  0.41703629253E+02  0.00000000000E+00 0.  1.
         25    2    1    2    0    0 -0.70431988430E+02 -0.11577209674E+03  0.47673931542E+03  0.51116649813E+03  0.12508785137E+03 0.  0.
          5    1    3    3  502    0  0.23378577457E+02 -0.80786632986E+02  0.21565237871E+03  0.23150909010E+03  0.41800000000E+01 0.  1.
         -5    1    3    3    0  502 -0.93810565887E+02 -0.34985463751E+02  0.26108693671E+03  0.27965740803E+03  0.41800000000E+01 0.  1.
        -11    1    1    2    0    0  0.31104310088E+02  0.13116577984E+02  0.14234992592E+03  0.14629772430E+03  0.00000000000E+00 0.  1.
         11    1    1    2    0    0  0.39327678342E+02  0.10265551875E+03  0.11166341543E+03  0.15669569285E+03  0.00000000000E+00 0. -1.
</event>
<event>
 7    1  0.2856214E-009  0.9472912E+02  0.7561462E-02  0.1291787E+00
          3   -1    0    0  501    0  0.00000000000E+00  0.00000000000E+00  0.15648769840E+03  0.15648769840E+03  0.00000000000E+00 0. -1.
         -3   -1    0    0    0  501 -0.00000000000E+00 -0.00000000000E+00 -0.11787140299E+03  0.11787140299E+03  0.00000000000E+00 0.  1.
         25    2    1    2    0    0  0.77859655846E+02  0.13383919995E+02  0.59106563799E+01  0.14806957299E+03  0.12509359402E+03 0.  0.
          5    1    3    3  502    0  0.40673387141E+02 -0.21043208733E+02 -0.53053487535E+02  0.70208874047E+02  0.41800000000E+01 0.  1.
         -5    1    3    3    0  502  0.37186268705E+02  0.34427128728E+02  0.58964143915E+02  0.77860698946E+02  0.41800000000E+01 0.  1.
        -11    1    1    2    0    0 -0.18596840762E+02 -0.26066736569E+02  0.53386792779E+02  0.62253247987E+02  0.00000000000E+00 0. -1.
         11    1    1    2    0    0 -0.59262815085E+02  0.12682816574E+02 -0.20681153755E+02  0.64036280409E+02  0.00000000000E+00 0.  1.
</event>
<event>
 7    1  0.2856214E-009  0.1295158E+03  0.7561462E-02  0.1228176E+00
          2   -1    0    0  501    0  0.00000000000E+00  0.00000000000E+00  0.51154549786E+03  0.51154549786E+03  0.00000000000E+00 0.  1.
         -2   -1    0    0    0  501 -0.00000000000E+00 -0.00000000000E+00 -0.42795791013E+02  0.42795791013E+02  0.00000000000E+00 0. -1.
         25    2    1    2    0    0  0.78652742031E+02 -0.48484478042E+02  0.18037036290E+03  0.23816108850E+03  0.12510091056E+03 0.  0.
          5    1    3    3  502    0  0.10468624961E+03 -0.60466607377E+01  0.11203275178E+03  0.15350759863E+03  0.41800000000E+01 0. -1.
         -5    1    3    3    0  502 -0.26033507581E+02 -0.42437817304E+02  0.68337611113E+02  0.84653489870E+02  0.41800000000E+01 0. -1.
        -11    1    1    2    0    0 -0.56209654753E+02  0.65848237058E+01  0.58334106097E+02  0.81275784369E+02  0.00000000000E+00 0. -1.
         11    1    1    2    0    0 -0.22443087278E+02  0.41899654336E+02  0.23004523786E+03  0.23490441601E+03  0.00000000000E+00 0.  1.
</event>
<event>
 7    1  0.2856214E-009  0.1253520E+03  0.7561462E-02  0.1234520E+00
         -2   -1    0    0    0  501 -0.00000000000E+00  0.00000000000E+00  0.10623283954E+03  0.10623283954E+03  0.00000000000E+00 0.  1.
          2   -1    0    0  501    0  0.00000000000E+00 -0.00000000000E+00 -0.27416409432E+03  0.27416409432E+03  0.00000000000E+00 0. -1.
         25    2    1    2    0    0 -0.16271961152E+02 -0.86470784948E+02  0.20115349480E+02  0.15425223392E+03  0.12508857268E+03 0.  0.
          5    1    3    3  502    0  0.24064593415E+01 -0.10098183904E+03  0.52512976963E+02  0.11392193824E+03  0.41800000000E+01 0.  1.
         -5    1    3    3    0  502 -0.18678420493E+02  0.14511054092E+02 -0.32397627483E+02  0.40330295679E+02  0.41800000000E+01 0.  1.
        -11    1    1    2    0    0 -0.36999494672E+02  0.43783152021E+02 -0.88308307671E+02  0.10528192727E+03  0.00000000000E+00 0.  1.
         11    1    1    2    0    0  0.53271455824E+02  0.42687632927E+02 -0.99738296591E+02  0.12086277267E+03  0.00000000000E+00 0. -1.
</event>
<event>
 7    1  0.2856214E-009  0.1114274E+03  0.7561462E-02  0.1257949E+00
         -1   -1    0    0    0  501 -0.00000000000E+00  0.00000000000E+00  0.13365660156E+03  0.13365660156E+03  0.00000000000E+00 0.  1.
          1   -1    0    0  501    0  0.00000000000E+00 -0.00000000000E+00 -0.13800701019E+03  0.13800701019E+03  0.00000000000E+00 0. -1.
         25    2    1    2    0    0  0.17609441607E+02 -0.44138282012E+02  0.63925841803E+02  0.14829286223E+03  0.12508388931E+03 0.  0.
          5    1    3    3  502    0 -0.53774754889E+02 -0.25447506531E+02  0.33147775492E+02  0.68231570934E+02  0.41800000000E+01 0. -1.
         -5    1    3    3    0  502  0.71384196496E+02 -0.18690775481E+02  0.30778066311E+02  0.80061291292E+02  0.41800000000E+01 0. -1.
        -11    1    1    2    0    0  0.27314915632E+02  0.33344990923E+02 -0.63738971837E+02  0.76945757300E+02  0.00000000000E+00 0. -1.
         11    1    1    2    0    0 -0.44924357239E+02  0.10793291089E+02 -0.45372786020E+01  0.46424992224E+02  0.00000000000E+00 0.  1.
</event>
<event>
 7    1  0.3478198E-009  0.8805134E+02  0.7561462E-02  0.1307640E+00
         -2   -1    0    0    0  501 -0.00000000000E+00  0.00000000000E+00  0.93576825798E+02  0.93576825798E+02  0.00000000000E+00 0. -1.
          2   -1    0    0  501    0  0.00000000000E+00 -0.00000000000E+00 -0.16657014386E+03  0.16657014386E+03  0.00000000000E+00 0.  1.
         25    2    1    2    0    0  0.10866025842E+02  0.57960611514E+02 -0.61357350017E+02  0.15129085208E+03  0.12508674797E+03 0.  0.
          5    1    3    3  502    0 -0.21501566036E+02  0.46953863502E+02  0.25577931270E+02  0.57781360384E+02  0.41800000000E+01 0.  1.
         -5    1    3    3    0  502  0.32367591878E+02  0.11006748012E+02 -0.86935281287E+02  0.93509491701E+02  0.41800000000E+01 0.  1.
        -11    1    1    2    0    0 -0.31421920572E+02 -0.34740490206E+01  0.24783984570E+02  0.40170287529E+02  0.00000000000E+00 0. -1.
         11    1    1    2    0    0  0.20555894730E+02 -0.54486562494E+02 -0.36419952619E+02  0.68685830048E+02  0.00000000000E+00 0.  1.
</event>
<event>
 7    1  0.2856214E-009  0.4134248E+02  0.7561462E-02  0.1498558E+00
         -4   -1    0    0    0  501 -0.00000000000E+00  0.00000000000E+00  0.65148272121E+02  0.65148272121E+02  0.00000000000E+00 0.  1.
          4   -1    0    0  501    0  0.00000000000E+00 -0.00000000000E+00 -0.17968660103E+03  0.17968660103E+03  0.00000000000E+00 0. -1.
         25    2    1    2    0    0 -0.24878268456E+02 -0.10056349419E+02 -0.63620956918E+02  0.14288274557E+03  0.12509114444E+03 0.  0.
          5    1    3    3  502    0 -0.29984082967E+02 -0.11256150355E+02  0.32914326758E+02  0.46114763993E+02  0.41800000000E+01 0. -1.
         -5    1    3    3    0  502  0.51058145103E+01  0.11998009366E+01 -0.96535283676E+02  0.96767981577E+02  0.41800000000E+01 0. -1.
        -11    1    1    2    0    0  0.24367150522E+02  0.21336013628E+02 -0.71490099927E+02  0.78484507323E+02  0.00000000000E+00 0. -1.
         11    1    1    2    0    0  0.51111793386E+00 -0.11279664209E+02  0.20572727931E+02  0.23467620262E+02  0.00000000000E+00 0.  1.
</event>
<event>
 7    1  0.2856214E-009  0.1187975E+03  0.7561462E-02  0.1245094E+00
          2   -1    0    0  501    0  0.00000000000E+00  0.00000000000E+00  0.81202848900E+03  0.81202848900E+03  0.00000000000E+00 0.  1.
         -2   -1    0    0    0  501 -0.00000000000E+00 -0.00000000000E+00 -0.27099822322E+02  0.27099822322E+02  0.00000000000E+00 0. -1.
         25    2    1    2    0    0  0.54753698296E+02  0.78485470669E+02  0.52077641807E+03  0.54407118608E+03  0.12508973308E+03 0.  0.
          5    1    3    3  502    0 -0.13628605222E+02 -0.14457036893E+02  0.23463669042E+03  0.23551346816E+03  0.41800000000E+01 0.  1.
         -5    1    3    3    0  502  0.68382303518E+02  0.92942507562E+02  0.28613972766E+03  0.30855771792E+03  0.41800000000E+01 0.  1.
        -11    1    1    2    0    0 -0.37744713218E+02 -0.75705749138E+02  0.26462375684E+03  0.27781604797E+03  0.00000000000E+00 0.  1.
         11    1    1    2    0    0 -0.17008985078E+02 -0.27797215305E+01 -0.47150823404E+00  0.17241077263E+02  0.00000000000E+00 0. -1.
</event>
<event>
 7    1  0.2856214E-009  0.1024112E+03  0.7561462E-02  0.1275306E+00
          2   -1    0    0  501    0  0.00000000000E+00  0.00000000000E+00  0.12717910375E+02  0.12717910375E+02  0.00000000000E+00 0. -1.
         -2   -1    0    0    0  501 -0.00000000000E+00 -0.00000000000E+00 -0.99777320866E+03  0.99777320866E+03  0.00000000000E+00 0.  1.
         25    2    1    2    0    0  0.28210176976E+01  0.26916381582E+02 -0.63373235135E+03  0.64652753545E+03  0.12509480892E+03 0.  0.
          5    1    3    3  502    0 -0.42917539797E+02 -0.16908665010E+02 -0.11580479646E+03  0.12472386082E+03  0.41800000000E+01 0. -1.
         -5    1    3    3    0  502  0.45738557494E+02  0.43825046592E+02 -0.51792755489E+03  0.52180367463E+03  0.41800000000E+01 0. -1.
        -11    1    1    2    0    0  0.11814989635E+02 -0.58781056458E+02 -0.21508035775E+03  0.22328091470E+03  0.00000000000E+00 0.  1.
         11    1    1    2    0    0 -0.14636007332E+02  0.31864674876E+02 -0.13624258918E+03  0.14068266888E+03  0.00000000000E+00 0. -1.
</event>
<event>
 7    1  0.2856214E-009  0.7501262E+02  0.7561462E-02  0.1343832E+00
          1   -1    0    0  501    0  0.00000000000E+00  0.00000000000E+00  0.15945837523E+03  0.15945837523E+03  0.00000000000E+00 0. -1.
         -1   -1    0    0    0  501 -0.00000000000E+00 -0.00000000000E+00 -0.71516870491E+02  0.71516870491E+02  0.00000000000E+00 0.  1.
         25    2    1    2    0    0 -0.71636106693E+01 -0.34391134225E+02  0.68376927995E+02  0.14681817343E+03  0.12508438885E+03 0.  0.
          5    1    3    3  502    0  0.34589764007E+02 -0.98412658173E+01  0.87408479996E+02  0.94609814830E+02  0.41800000000E+01 0. -1.
         -5    1    3    3    0  502 -0.41753374676E+02 -0.24549868408E+02 -0.19031552000E+02  0.52208358596E+02  0.41800000000E+01 0. -1.
        -11    1    1    2    0    0  0.16563733348E+02 -0.10320276714E+02 -0.16809625852E+02  0.25757113487E+02  0.00000000000E+00 0.  1.
         11    1    1    2    0    0 -0.94001226789E+01  0.44711410939E+02  0.36374202597E+02  0.58399958810E+02  0.00000000000E+00 0. -1.
</event>
<event>
 7    1  0.2856214E-009  0.8331541E+02  0.7561462E-02  0.1319898E+00
         -1   -1    0    0    0  501 -0.00000000000E+00  0.00000000000E+00  0.89622088732E+02  0.89622088732E+02  0.00000000000E+00 0.  1.
          1   -1    0    0  501    0  0.00000000000E+00 -0.00000000000E+00 -0.13670480077E+03  0.13670480077E+03  0.00000000000E+00 0. -1.
         25    2    1    2    0    0 -0.71977088517E+01  0.18799335685E+02 -0.14724376679E+02  0.12755316983E+03  0.12509109413E+03 0.  0.
          5    1    3    3  502    0  0.14354523675E+02 -0.47588788508E+02 -0.26751171018E+02  0.56602497228E+02  0.41800000000E+01 0. -1.
         -5    1    3    3    0  502 -0.21552232527E+02  0.66388124194E+02  0.12026794339E+02  0.70950672603E+02  0.41800000000E+01 0. -1.
        -11    1    1    2    0    0  0.12829523139E+02  0.10753489551E+02 -0.57299619510E+02  0.59694895908E+02  0.00000000000E+00 0. -1.
         11    1    1    2    0    0 -0.56318142869E+01 -0.29552825236E+02  0.24941284151E+02  0.39078823763E+02  0.00000000000E+00 0.  1.
</event>
<event>
 7    1  0.2856214E-009  0.1097925E+03  0.7561462E-02  0.1260955E+00
          2   -1    0    0  501    0  0.00000000000E+00  0.00000000000E+00  0.26890766494E+03  0.26890766494E+03  0.00000000000E+00 0. -1.
         -2   -1    0    0    0  501 -0.00000000000E+00 -0.00000000000E+00 -0.11470212350E+03  0.11470212350E+03  0.00000000000E+00 0.  1.
         25    2    1    2    0    0  0.80085965270E+02  0.26540839708E+02 -0.39214483021E+02  0.15589544351E+03  0.12508971030E+03 0.  0.
          5    1    3    3  502    0  0.96663222884E+02  0.13218565050E+02 -0.68630347706E+02  0.11935705319E+03  0.41800000000E+01 0.  1.
         -5    1    3    3    0  502 -0.16577257614E+02  0.13322274658E+02  0.29415864685E+02  0.36538390321E+02  0.41800000000E+01 0.  1.
        -11    1    1    2    0    0 -0.11371033048E+02 -0.29360879077E+02  0.11997609959E+02  0.33694276331E+02  0.00000000000E+00 0.  1.
         11    1    1    2    0    0 -0.68714932223E+02  0.28200393691E+01  0.18142241450E+03  0.19402006859E+03  0.00000000000E+00 0. -1.
</event>
<event>
 7    1  0.2856214E-009  0.1055288E+03  0.7561462E-02  0.1269081E+00
         -1   -1    0    0    0  501 -0.00000000000E+00  0.00000000000E+00  0.28719117867E+02  0.28719117867E+02  0.00000000000E+00 0.  1.
          1   -1    0    0  501    0  0.00000000000E+00 -0.00000000000E+00 -0.53796898662E+03  0.53796898662E+03  0.00000000000E+00 0. -1.
         25    2    1    2    0    0  0.39121485909E+02 -0.12158283153E+02 -0.17742948912E+03  0.22092045521E+03  0.12508520861E+03 0.  0.
          5    1    3    3  502    0  0.69009420291E+02 -0.37099445829E+02 -0.15971785784E+03  0.17794924974E+03  0.41800000000E+01 0.  1.
         -5    1    3    3    0  502 -0.29887934382E+02  0.24941162676E+02 -0.17711631284E+02  0.42971205475E+02  0.41800000000E+01 0.  1.
        -11    1    1    2    0    0 -0.65860468914E+02  0.10055324533E+02 -0.18771460696E+03  0.19918705927E+03  0.00000000000E+00 0.  1.
         11    1    1    2    0    0  0.26738983005E+02  0.21029586197E+01 -0.14410577268E+03  0.14658059000E+03  0.00000000000E+00 0. -1.
</event>
<event>
 7    1  0.2856214E-009  0.9569872E+02  0.7561462E-02  0.1289610E+00
          2   -1    0    0  501    0  0.00000000000E+00  0.00000000000E+00  0.18040222765E+02  0.18040222765E+02  0.00000000000E+00 0. -1.
         -2   -1    0    0    0  501 -0.00000000000E+00 -0.00000000000E+00 -0.83795507393E+03  0.83795507393E+03  0.00000000000E+00 0.  1.
         25    2    1    2    0    0  0.41643179990E+02 -0.32419427666E+02 -0.39751848957E+03  0.42006509575E+03  0.12509421005E+03 0.  0.
          5    1    3    3  502    0  0.50151617120E+02 -0.45501852915E+02 -0.39815737592E+03  0.40389648639E+03  0.41800000000E+01 0. -1.
         -5    1    3    3    0  502 -0.85084371304E+01  0.13082425249E+02  0.63888635224E+00  0.16168609358E+02  0.41800000000E+01 0. -1.
        -11    1    1    2    0    0 -0.72883906130E+01  0.61777132866E+02 -0.26257864249E+03  0.26984639756E+03  0.00000000000E+00 0. -1.
         11    1    1    2    0    0 -0.34354789377E+02 -0.29357705200E+02 -0.15981771911E+03  0.16608380339E+03  0.00000000000E+00 0.  1.
</event>
<event>
 7    1  0.2856214E-009  0.1013162E+03  0.7561462E-02  0.1277552E+00
         -1   -1    0    0    0  501 -0.00000000000E+00  0.00000000000E+00  0.51002352120E+03  0.51002352120E+03  0.00000000000E+00 0.  1.
          1   -1    0    0  501    0  0.00000000000E+00 -0.00000000000E+00 -0.24065533598E+02  0.24065533598E+02  0.00000000000E+00 0. -1.
         25    2    1    2    0    0 -0.54135320288E+00 -0.11326788140E+02  0.25862667117E+03  0.28751301781E+03  0.12508953264E+03 0.  0.
          5    1    3    3  502    0  0.24266269706E+02  0.49697009391E+02  0.15526387024E+03  0.16487263687E+03  0.41800000000E+01 0.  1.
         -5    1    3    3    0  502 -0.24807622909E+02 -0.61023797531E+02  0.10336280093E+03  0.12264038094E+03  0.41800000000E+01 0.  1.
        -11    1    1    2    0    0  0.39576084273E+02 -0.27422446357E+01  0.46865521162E+02  0.61401656540E+02  0.00000000000E+00 0.  1.
         11    1    1    2    0    0 -0.39034731070E+02  0.14069032776E+02  0.18046579527E+03  0.18517438045E+03  0.00000000000E+00 0. -1.
</event>
<event>
 7    1  0.2856214E-009  0.1343197E+03  0.7561462E-02  0.1221183E+00
          1   -1    0    0  501    0  0.00000000000E+00  0.00000000000E+00  0.13578408218E+04  0.13578408218E+04  0.00000000000E+00 0. -1.
         -1   -1    0    0    0  501 -0.00000000000E+00 -0.00000000000E+00 -0.20558884296E+02  0.20558884296E+02  0.00000000000E+00 0.  1.
         25    2    1    2    0    0 -0.88446393741E+02  0.84860982729E+02  0.89062355986E+03  0.90767910309E+03  0.12508748082E+03 0.  0.
          5    1    3    3  502    0 -0.48053875968E+02  0.80043240437E+01  0.90641747054E+02  0.10298855717E+03  0.41800000000E+01 0.  1.
         -5    1    3    3    0  502 -0.40392517773E+02  0.76856658685E+02  0.79998181280E+03  0.80469054592E+03  0.41800000000E+01 0.  1.
        -11    1    1    2    0    0  0.87244696110E+01  0.70023040872E+01  0.43668193009E+01  0.12009069212E+02  0.00000000000E+00 0.  1.
         11    1    1    2    0    0  0.79721924130E+02 -0.91863286816E+02  0.44229155830E+03  0.45871153375E+03  0.00000000000E+00 0. -1.
</event>
<event>
 7    1  0.2856214E-009  0.1029635E+03  0.7561462E-02  0.1274185E+00
         -4   -1    0    0    0  501 -0.00000000000E+00  0.00000000000E+00  0.34585902540E+03  0.34585902540E+03  0.00000000000E+00 0. -1.
          4   -1    0    0  501    0  0.00000000000E+00 -0.00000000000E+00 -0.56717739258E+02  0.56717739258E+02  0.00000000000E+00 0.  1.
         25    2    1    2    0    0  0.14841942891E+02 -0.91816653143E+01  0.36636763549E+02  0.13150453328E+03  0.12508638448E+03 0.  0.
          5    1    3    3  502    0 -0.50332417777E+02 -0.23240890907E+02  0.59903598356E+00  0.55599663070E+02  0.41800000000E+01 0.  1.
         -5    1    3    3    0  502  0.65174360668E+02  0.14059225593E+02  0.36037727565E+02  0.75904870205E+02  0.41800000000E+01 0.  1.
        -11    1    1    2    0    0 -0.39941483897E+02 -0.20302533653E+02  0.20473563742E+03  0.20958100162E+03  0.00000000000E+00 0.  1.
         11    1    1    2    0    0  0.25099541006E+02  0.29484198968E+02  0.47768885167E+02  0.61491229761E+02  0.00000000000E+00 0. -1.
</event>
<event>
 7    1  0.2856214E-009  0.7811467E+02  0.7561462E-02  0.1334488E+00
         -2   -1    0    0    0  501 -0.00000000000E+00  0.00000000000E+00  0.16833074034E+02  0.16833074034E+02  0.00000000000E+00 0.  1.
          2   -1    0    0  501    0  0.00000000000E+00 -0.00000000000E+00 -0.83774004283E+03  0.83774004283E+03  0.00000000000E+00 0. -1.
         25    2    1    2    0    0  0.71591347868E+01 -0.14059000523E+02 -0.63935863632E+03  0.65167212879E+03  0.12509272122E+03 0.  0.
          5    1    3    3  502    0 -0.36267737469E+02 -0.29977186805E+02 -0.53925940990E+03  0.54132445361E+03  0.41800000000E+01 0.  1.
         -5    1    3    3    0  502  0.43426872256E+02  0.15918186282E+02 -0.10009922642E+03  0.11034767518E+03  0.41800000000E+01 0.  1.
        -11    1    1    2    0    0  0.15638629015E+02  0.30613027835E+02 -0.16828671040E+03  0.17176187321E+03  0.00000000000E+00 0. -1.
         11    1    1    2    0    0 -0.22797763801E+02 -0.16554027312E+02 -0.13261622082E+02  0.31139114869E+02  0.00000000000E+00 0.  1.
</event>
<event>
 7    1  0.2856214E-009  0.1479278E+03  0.7561462E-02  0.1203043E+00
         -1   -1    0    0    0  501 -0.00000000000E+00  0.00000000000E+00  0.56826479638E+03  0.56826479638E+03  0.00000000000E+00 0.  1.
          1   -1    0    0  501    0  0.00000000000E+00 -0.00000000000E+00 -0.49194850200E+02  0.49194850200E+02  0.00000000000E+00 0. -1.
         25    2    1    2    0    0  0.10513177117E+03  0.24804598014E+02  0.39643854074E+03  0.42951071574E+03  0.12509189005E+03 0.  0.
          5    1    3    3  502    0  0.12166853310E+03 -0.74000776145E+01  0.24410328328E+03  0.27287703899E+03  0.41800000000E+01 0. -1.
         -5    1    3    3    0  502 -0.16536761937E+02  0.32204675628E+02  0.15233525746E+03  0.15663367675E+03  0.41800000000E+01 0. -1.
        -11    1    1    2    0    0 -0.10927097105E+02  0.27574387239E+02  0.82580712739E+01  0.30788699614E+02  0.00000000000E+00 0. -1.
         11    1    1    2    0    0 -0.94204674062E+02 -0.52378985253E+02  0.11437333416E+03  0.15716023122E+03  0.00000000000E+00 0.  1.
</event>
<event>
 7    1  0.2856214E-009  0.2123967E+03  0.7561462E-02  0.1139682E+00
         -2   -1    0    0    0  501 -0.00000000000E+00  0.00000000000E+00  0.65635081536E+02  0.65635081536E+02  0.00000000000E+00 0.  1.
          2   -1    0    0  501    0  0.00000000000E+00 -0.00000000000E+00 -0.89911585204E+03  0.89911585204E+03  0.00000000000E+00 0. -1.
         25    2    1    2    0    0 -0.59089576276E+02  0.19706661340E+03 -0.51607652701E+03  0.56948233071E+03  0.12509322574E+03 0.  0.
          5    1    3    3  502    0  0.12228906275E+02  0.98805626153E+01 -0.42383398036E+00  0.16273404730E+02  0.41800000000E+01 0.  1.
         -5    1    3    3    0  502 -0.71318482551E+02  0.18718605079E+03 -0.51565269303E+03  0.55320892598E+03  0.41800000000E+01 0.  1.
        -11    1    1    2    0    0  0.37543527161E+01 -0.63278913950E+02 -0.23439038262E+02  0.67584795847E+02  0.00000000000E+00 0.  1.
         11    1    1    2    0    0  0.55335223560E+02 -0.13378769945E+03 -0.29396520524E+03  0.32768380702E+03  0.00000000000E+00 0. -1.
</event>
<event>
 7    1  0.2856214E-009  0.8189316E+02  0.7561462E-02  0.1323763E+00
          1   -1    0    0  501    0  0.00000000000E+00  0.00000000000E+00  0.29133772430E+03  0.29133772430E+03  0.00000000000E+00 0. -1.
         -1   -1    0    0    0  501 -0.00000000000E+00 -0.00000000000E+00 -0.48353471561E+02  0.48353471561E+02  0.00000000000E+00 0.  1.
         25    2    1    2    0    0  0.37243923459E+02  0.60713312990E+01  0.18140349972E+03  0.22355946344E+03  0.12509049958E+03 0.  0.
          5    1    3    3  502    0  0.45742240095E+02  0.54774063013E+02  0.14614885627E+03  0.16269453309E+03  0.41800000000E+01 0.  1.
         -5    1    3    3    0  502 -0.84983166361E+01 -0.48702731714E+02  0.35254643454E+02  0.60864930355E+02  0.41800000000E+01 0.  1.
        -11    1    1    2    0    0 -0.29959806065E+02  0.40337176405E+01  0.84665493102E+02  0.89900537149E+02  0.00000000000E+00 0. -1.
         11    1    1    2    0    0 -0.72841173932E+01 -0.10105048939E+02 -0.23084740087E+02  0.26231195268E+02  0.00000000000E+00 0.  1.
</event>
<event>
 7    1  0.2856214E-009  0.1276508E+03  0.7561462E-02  0.1230984E+00
         -1   -1    0    0    0  501 -0.00000000000E+00  0.00000000000E+00  0.29084859292E+02  0.29084859292E+02  0.00000000000E+00 0.  1.
          1   -1    0    0  501    0  0.00000000000E+00 -0.00000000000E+00 -0.73187643187E+03  0.73187643187E+03  0.00000000000E+00 0. -1.
         25    2    1    2    0    0 -0.37910019291E+02  0.67511655170E+02 -0.22556926250E+03  0.26930051155E+03  0.12508509179E+03 0.  0.
          5    1    3    3  502    0  0.33998167430E+02  0.56758519535E+02 -0.15177088486E+03  0.16561786987E+03  0.41800000000E+01 0. -1.
         -5    1    3    3    0  502 -0.71908186721E+02  0.10753135635E+02 -0.73798377639E+02  0.10368264168E+03  0.41800000000E+01 0. -1.
        -11    1    1    2    0    0  0.54049071727E+02 -0.81459296537E+01 -0.27101297437E+03  0.27647005371E+03  0.00000000000E+00 0.  1.
         11    1    1    2    0    0 -0.16139052436E+02 -0.59365725516E+02 -0.20620933571E+03  0.21519072590E+03  0.00000000000E+00 0. -1.
</event>
<event>
 7    1  0.2856214E-009  0.9714033E+02  0.7561462E-02  0.1286427E+00
          2   -1    0    0  501    0  0.00000000000E+00  0.00000000000E+00  0.41428146735E+02  0.41428146735E+02  0.00000000000E+00 0. -1.
         -2   -1    0    0    0  501 -0.00000000000E+00 -0.00000000000E+00 -0.33572343949E+03  0.33572343949E+03  0.00000000000E+00 0.  1.
         25    2    1    2    0    0 -0.44615162926E+02 -0.10288341690E+02 -0.16663726473E+03  0.21333474299E+03  0.12508945531E+03 0.  0.
          5    1    3    3  502    0 -0.80563369448E+02  0.15869489178E+02 -0.74515526824E+02  0.11096095404E+03  0.41800000000E+01 0.  1.
         -5    1    3    3    0  502  0.35948206521E+02 -0.26157830868E+02 -0.92121737911E+02  0.10237378895E+03  0.41800000000E+01 0.  1.
        -11    1    1    2    0    0  0.38683629627E+02  0.28633916906E+02 -0.13489437528E+03  0.14322296213E+03  0.00000000000E+00 0.  1.
         11    1    1    2    0    0  0.59315332999E+01 -0.18345575216E+02  0.72363472634E+01  0.20593881106E+02  0.00000000000E+00 0. -1.
</event>
<event>
 7    1  0.2856214E-009  0.6076221E+02  0.7561462E-02  0.1394661E+00
         -1   -1    0    0    0  501 -0.00000000000E+00  0.00000000000E+00  0.10006358844E+03  0.10006358844E+03  0.00000000000E+00 0.  1.
          1   -1    0    0  501    0  0.00000000000E+00 -0.00000000000E+00 -0.14358293416E+03  0.14358293416E+03  0.00000000000E+00 0. -1.
         25    2    1    2    0    0 -0.56947645957E+01 -0.32187467727E+02 -0.66321839960E+02  0.14530842009E+03  0.12508991595E+03 0.  0.
          5    1    3    3  502    0 -0.20081469839E+02 -0.34251980242E+02 -0.10038835994E+03  0.10803591437E+03  0.41800000000E+01 0. -1.
         -5    1    3    3    0  502  0.14386705243E+02  0.20645125151E+01  0.34066519980E+02  0.37272505728E+02  0.41800000000E+01 0. -1.
        -11    1    1    2    0    0 -0.19816895937E+02  0.35594274571E+02 -0.22274400407E+02  0.46430708161E+02  0.00000000000E+00 0. -1.
         11    1    1    2    0    0  0.25511660533E+02 -0.34068068445E+01  0.45076894653E+02  0.51907394344E+02  0.00000000000E+00 0.  1.
</event>
<event>
 7    1  0.2856214E-009  0.1021876E+03  0.7561462E-02  0.1275762E+00
          2   -1    0    0  501    0  0.00000000000E+00  0.00000000000E+00  0.40815222012E+02  0.40815222012E+02  0.00000000000E+00 0. -1.
         -2   -1    0    0    0  501 -0.00000000000E+00 -0.00000000000E+00 -0.41745603633E+03  0.41745603633E+03  0.00000000000E+00 0.  1.
         25    2    1    2    0    0  0.69981308565E+02  0.20386762986E+02 -0.19065991227E+03  0.23940025439E+03  0.12509306936E+03 0.  0.
          5    1    3    3  502    0  0.90391985947E+02  0.21868300058E+01 -0.66817849125E+02  0.11250595856E+03  0.41800000000E+01 0.  1.
         -5    1    3    3    0  502 -0.20410677381E+02  0.18199932980E+02 -0.12384206314E+03  0.12689429583E+03  0.41800000000E+01 0.  1.
        -11    1    1    2    0    0 -0.16083270337E+02 -0.27472618949E+02 -0.15078818260E+03  0.15411194758E+03  0.00000000000E+00 0.  1.
         11    1    1    2    0    0 -0.53898038228E+02  0.70858559625E+01 -0.35192719457E+02  0.64759056373E+02  0.00000000000E+00 0. -1.
</event>
<event>
 7    1  0.2856214E-009  0.1279851E+03  0.7561462E-02  0.1230476E+00
          1   -1    0    0  501    0  0.00000000000E+00  0.00000000000E+00  0.18249285007E+02  0.18249285007E+02  0.00000000000E+00 0. -1.
         -1   -1    0    0    0  501 -0.00000000000E+00 -0.00000000000E+00 -0.11191832924E+04  0.11191832924E+04  0.00000000000E+00 0.  1.
         25    2    1    2    0    0  0.37425652512E+02  0.72581521775E+02 -0.77808376015E+03  0.79229460065E+03  0.12509052584E+03 0.  0.
          5    1    3    3  502    0 -0.37576943241E+02  0.37106297480E+02 -0.15739200269E+03  0.16606811520E+03  0.41800000000E+01 0. -1.
         -5    1    3    3    0  502  0.75002595753E+02  0.35475224295E+02 -0.62069175746E+03  0.62622648545E+03  0.41800000000E+01 0. -1.
        -11    1    1    2    0    0 -0.29227051127E+01  0.20470378920E+02 -0.34905351590E+02  0.40570459548E+02  0.00000000000E+00 0. -1.
         11    1    1    2    0    0 -0.34502947399E+02 -0.93051900695E+02 -0.28794489570E+03  0.30456751725E+03  0.00000000000E+00 0.  1.
</event>
<event>
 7    1  0.2856214E-009  0.7474866E+02  0.7561462E-02  0.1344651E+00
          1   -1    0    0  501    0  0.00000000000E+00  0.00000000000E+00  0.11501732420E+03  0.11501732420E+03  0.00000000000E+00 0. -1.
         -1   -1    0    0    0  501 -0.00000000000E+00 -0.00000000000E+00 -0.94852721931E+02  0.94852721931E+02  0.00000000000E+00 0.  1.
         25    2    1    2    0    0  0.93018532492E+01 -0.33719173523E+02  0.28292975356E+02  0.13294661332E+03  0.12510316703E+03 0.  0.
          5    1    3    3  502    0  0.35072745846E+02  0.74312347861E+01  0.63351783157E+02  0.72912561200E+02  0.41800000000E+01 0.  1.
         -5    1    3    3    0  502 -0.25770892597E+02 -0.41150408310E+02 -0.35058807801E+02  0.60034052118E+02  0.41800000000E+01 0.  1.
        -11    1    1    2    0    0 -0.12271042134E+02 -0.12987981919E+02 -0.21780074163E+02  0.28171577519E+02  0.00000000000E+00 0.  1.
         11    1    1    2    0    0  0.29691888853E+01  0.46707155442E+02  0.13651701075E+02  0.48751855292E+02  0.00000000000E+00 0. -1.
</event>
<event>
 7    1  0.2856214E-009  0.1060553E+03  0.7561462E-02  0.1268054E+00
          2   -1    0    0  501    0  0.00000000000E+00  0.00000000000E+00  0.24538948880E+02  0.24538948880E+02  0.00000000000E+00 0. -1.
         -2   -1    0    0    0  501 -0.00000000000E+00 -0.00000000000E+00 -0.87731472375E+03  0.87731472375E+03  0.00000000000E+00 0.  1.
         25    2    1    2    0    0  0.45618759312E+02  0.82780266076E+02 -0.55077623604E+03  0.57265632979E+03  0.12508863342E+03 0.  0.
          5    1    3    3  502    0  0.17311032446E+02  0.45492870602E+02 -0.50814494689E+02  0.70490129738E+02  0.41800000000E+01 0. -1.
         -5    1    3    3    0  502  0.28307726866E+02  0.37287395474E+02 -0.49996174135E+03  0.50216620005E+03  0.41800000000E+01 0. -1.
        -11    1    1    2    0    0  0.17887395594E+02 -0.21946519004E+02 -0.22425154895E+02  0.36117809867E+02  0.00000000000E+00 0. -1.
         11    1    1    2    0    0 -0.63506154906E+02 -0.60833747072E+02 -0.27957438393E+03  0.29307953297E+03  0.00000000000E+00 0.  1.
</event>
<event>
 7    1  0.2856214E-009  0.1727661E+03  0.7561462E-02  0.1174994E+00
          2   -1    0    0  501    0  0.00000000000E+00  0.00000000000E+00  0.35353545378E+03  0.35353545378E+03  0.00000000000E+00 0. -1.
         -2   -1    0    0    0  501 -0.00000000000E+00 -0.00000000000E+00 -0.95468207343E+02  0.95468207343E+02  0.00000000000E+00 0.  1.
         25    2    1    2    0    0  0.11846054852E+03  0.82761730344E+02  0.18068762558E+03  0.26301708783E+03  0.12509022699E+03 0.  0.
          5    1    3    3  502    0  0.40042471386E+02  0.98743625516E+02  0.74944725072E+02  0.13033758978E+03  0.41800000000E+01 0.  1.
         -5    1    3    3    0  502  0.78418077132E+02 -0.15981895171E+02  0.10574290051E+03  0.13267949805E+03  0.41800000000E+01 0.  1.
        -11    1    1    2    0    0 -0.44870059663E+02 -0.71351596393E+02  0.87929053493E+01  0.84744839055E+02  0.00000000000E+00 0.  1.
         11    1    1    2    0    0 -0.73590488855E+02 -0.11410133951E+02  0.68586715501E+02  0.10124173423E+03  0.00000000000E+00 0. -1.
</event>
<event>
 7    1  0.2856214E-009  0.1168889E+03  0.7561462E-02  0.1248319E+00
          3   -1    0    0  501    0  0.00000000000E+00  0.00000000000E+00  0.39741705284E+03  0.39741705284E+03  0.00000000000E+00 0. -1.
         -3   -1    0    0    0  501 -0.00000000000E+00 -0.00000000000E+00 -0.57268738698E+02  0.57268738698E+02  0.00000000000E+00 0.  1.
         25    2    1    2    0    0 -0.40634636921E+02 -0.73257282688E+02  0.27855089485E+03  0.31663529817E+03  0.12509799297E+03 0.  0.
          5    1    3    3  502    0  0.10391017524E+02  0.13712249461E+02 -0.26233158366E+01  0.17898413797E+02  0.41800000000E+01 0. -1.
         -5    1    3    3    0  502 -0.51025654445E+02 -0.86969532149E+02  0.28117421068E+03  0.29873688438E+03  0.41800000000E+01 0. -1.
        -11    1    1    2    0    0 -0.11627908564E+02 -0.10997922525E+02 -0.70171015894E+01  0.17475762420E+02  0.00000000000E+00 0.  1.
         11    1    1    2    0    0  0.52262545484E+02  0.84255205214E+02  0.68614520887E+02  0.12057473095E+03  0.00000000000E+00 0. -1.
</event>
<event>
 7    1  0.2856214E-009  0.1052543E+03  0.7561462E-02  0.1269619E+00
          3   -1    0    0  501    0  0.00000000000E+00  0.00000000000E+00  0.72325840164E+02  0.72325840164E+02  0.00000000000E+00 0. -1.
         -3   -1    0    0    0  501 -0.00000000000E+00 -0.00000000000E+00 -0.22283444537E+03  0.22283444537E+03  0.00000000000E+00 0.  1.
         25    2    1    2    0    0  0.77109996184E+02  0.68675935506E+01 -0.77073280415E+02  0.16607488665E+03  0.12508981600E+03 0.  0.
          5    1    3    3  502    0  0.10179959408E+03 -0.21003150550E+01 -0.90489746867E+02  0.13628439150E+03  0.41800000000E+01 0.  1.
         -5    1    3    3    0  502 -0.24689597896E+02  0.89679086056E+01  0.13416466452E+02  0.29790495147E+02  0.41800000000E+01 0.  1.
        -11    1    1    2    0    0 -0.55567423126E+02  0.75546590012E+01 -0.84075811512E+02  0.10106212677E+03  0.00000000000E+00 0.  1.
         11    1    1    2    0    0 -0.21542573058E+02 -0.14422252552E+02  0.10640486721E+02  0.28023272120E+02  0.00000000000E+00 0. -1.
</event>
<event>
 7    1  0.2856214E-009  0.1037063E+03  0.7561462E-02  0.1272690E+00
         -2   -1    0    0    0  501 -0.00000000000E+00  0.00000000000E+00  0.55845405481E+02  0.55845405481E+02  0.00000000000E+00 0. -1.
          2   -1    0    0  501    0  0.00000000000E+00 -0.00000000000E+00 -0.21622521991E+03  0.21622521991E+03  0.00000000000E+00 0.  1.
         25    2    1    2    0    0  0.16057019064E+02 -0.10075313022E+01 -0.10537101913E+03  0.16434551737E+03  0.12509018518E+03 0.  0.
          5    1    3    3  502    0 -0.51614927357E+02  0.24715041278E+01 -0.20711746180E+02  0.55827035462E+02  0.41800000000E+01 0. -1.
         -5    1    3    3    0  502  0.67671946420E+02 -0.34790354300E+01 -0.84659272952E+02  0.10851848191E+03  0.41800000000E+01 0. -1.
        -11    1    1    2    0    0  0.33488099803E+02 -0.13419468994E+02 -0.40252864333E+02  0.54053936614E+02  0.00000000000E+00 0.  1.
         11    1    1    2    0    0 -0.49545118866E+02  0.14427000296E+02 -0.14755930964E+02  0.53671171402E+02  0.00000000000E+00 0. -1.
</event>
<event>
 7    1  0.2856214E-009  0.1372715E+03  0.7561462E-02  0.1217048E+00
          1   -1    0    0  501    0  0.00000000000E+00  0.00000000000E+00  0.58323257834E+02  0.58323257834E+02  0.00000000000E+00 0. -1.
         -1   -1    0    0    0  501 -0.00000000000E+00 -0.00000000000E+00 -0.56887307328E+03  0.56887307328E+03  0.00000000000E+00 0.  1.
         25    2    1    2    0    0 -0.11761744441E+02  0.10778205559E+03 -0.43792538956E+03  0.46816787742E+03  0.12508878645E+03 0.  0.
          5    1    3    3  502    0 -0.46203591574E+02  0.11011378810E+03 -0.39634119853E+03  0.41396091151E+03  0.41800000000E+01 0. -1.
         -5    1    3    3    0  502  0.34441847133E+02 -0.23317325112E+01 -0.41584191021E+02  0.54206965912E+02  0.41800000000E+01 0. -1.
        -11    1    1    2    0    0 -0.20237203521E+02 -0.30126386252E+02 -0.65315172843E+02  0.74720916473E+02  0.00000000000E+00 0.  1.
         11    1    1    2    0    0  0.31998947962E+02 -0.77655669342E+02 -0.73092530469E+01  0.84307537217E+02  0.00000000000E+00 0. -1.
</event>
<event>
 7    1  0.2856214E-009  0.2085300E+03  0.7561462E-02  0.1142735E+00
         -1   -1    0    0    0  501 -0.00000000000E+00  0.00000000000E+00  0.51498349872E+02  0.51498349872E+02  0.00000000000E+00 0.  1.
          1   -1    0    0  501    0  0.00000000000E+00 -0.00000000000E+00 -0.10022763683E+04  0.10022763683E+04  0.00000000000E+00 0. -1.
         25    2    1    2    0    0 -0.14774724376E+03 -0.12399749405E+03 -0.60286621271E+03  0.64521638868E+03  0.12510751869E+03 0.  0.
          5    1    3    3  502    0 -0.16288280652E+03 -0.12521186466E+03 -0.59037481712E+03  0.62511496287E+03  0.41800000000E+01 0.  1.
         -5    1    3    3    0  502  0.15135562761E+02  0.12143706061E+01 -0.12491395582E+02  0.20101425811E+02  0.41800000000E+01 0.  1.
        -11    1    1    2    0    0  0.41009935005E+02  0.16124555937E+02 -0.16554399844E+03  0.17130858558E+03  0.00000000000E+00 0. -1.
         11    1    1    2    0    0  0.10673730875E+03  0.10787293812E+03 -0.18236780732E+03  0.23724974395E+03  0.00000000000E+00 0.  1.
</event>
<event>
 7    1  0.2856214E-009  0.1040177E+03  0.7561462E-02  0.1272067E+00
         -1   -1    0    0    0  501 -0.00000000000E+00  0.00000000000E+00  0.39320561304E+02  0.39320561304E+02  0.00000000000E+00 0.  1.
          1   -1    0    0  501    0  0.00000000000E+00 -0.00000000000E+00 -0.40664179593E+03  0.40664179593E+03  0.00000000000E+00 0. -1.
         25    2    1    2    0    0  0.19266535201E+02  0.58007004533E+02 -0.21384621865E+03  0.25517420923E+03  0.12509060665E+03 0.  0.
          5    1    3    3  502    0  0.44983329957E+02  0.21558726717E+02 -0.20299506894E+03  0.20907594095E+03  0.41800000000E+01 0.  1.
         -5    1    3    3    0  502 -0.25716794757E+02  0.36448277817E+02 -0.10851149710E+02  0.46098268280E+02  0.41800000000E+01 0.  1.
        -11    1    1    2    0    0  0.38739142240E+02 -0.18042331190E+02 -0.62968997394E+02  0.76100863918E+02  0.00000000000E+00 0. -1.
         11    1    1    2    0    0 -0.58005677441E+02 -0.39964673343E+02 -0.90506018585E+02  0.11468728409E+03  0.00000000000E+00 0.  1.
</event>
<event>
 7    1  0.2856214E-009  0.1358540E+03  0.7561462E-02  0.1219019E+00
         -1   -1    0    0    0  501 -0.00000000000E+00  0.00000000000E+00  0.48285546459E+02  0.48285546459E+02  0.00000000000E+00 0.  1.
          1   -1    0    0  501    0  0.00000000000E+00 -0.00000000000E+00 -0.49805612386E+03  0.49805612386E+03  0.00000000000E+00 0. -1.
         25    2    1    2    0    0  0.99672580090E+02 -0.47334206228E+02 -0.22264020434E+03  0.27819156276E+03  0.12508690859E+03 0.  0.
          5    1    3    3  502    0  0.49937237083E+02  0.36259096570E+02 -0.12921981819E+03  0.14326089329E+03  0.41800000000E+01 0. -1.
         -5    1    3    3    0  502  0.49735343007E+02 -0.83593302797E+02 -0.93420386144E+02  0.13493066947E+03  0.41800000000E+01 0. -1.
        -11    1    1    2    0    0 -0.35021653654E+02  0.54028850402E+01 -0.86468150305E+01  0.36475674107E+02  0.00000000000E+00 0.  1.
         11    1    1    2    0    0 -0.64650926436E+02  0.41931321187E+02 -0.21848355803E+03  0.23167443345E+03  0.00000000000E+00 0. -1.
</event>
<event>
 7    1  0.2856214E-009  0.1244348E+03  0.7561462E-02  0.1235955E+00
          2   -1    0    0  501    0  0.00000000000E+00  0.00000000000E+00  0.48416400847E+03  0.48416400847E+03  0.00000000000E+00 0. -1.
         -2   -1    0    0    0  501 -0.00000000000E+00 -0.00000000000E+00 -0.47371092017E+02  0.47371092017E+02  0.00000000000E+00 0.  1.
         25    2    1    2    0    0 -0.33627419679E+02 -0.97584202863E+02  0.19507675579E+03  0.25368672725E+03  0.12509410431E+03 0.  0.
          5    1    3    3  502    0  0.18185905047E+02 -0.43662004158E+02  0.16713110688E+03  0.17374514968E+03  0.41800000000E+01 0. -1.
         -5    1    3    3    0  502 -0.51813324727E+02 -0.53922198705E+02  0.27945648909E+02  0.79941577576E+02  0.41800000000E+01 0. -1.
        -11    1    1    2    0    0 -0.20263575278E+02  0.52334609060E+02  0.56147507537E+02  0.79385555305E+02  0.00000000000E+00 0.  1.
         11    1    1    2    0    0  0.53890994958E+02  0.45249593803E+02  0.18556865313E+03  0.19846281793E+03  0.00000000000E+00 0. -1.
</event>
<event>
 7    1  0.2856214E-009  0.1270667E+03  0.7561462E-02  0.1231874E+00
         -2   -1    0    0    0  501 -0.00000000000E+00  0.00000000000E+00  0.22796420352E+02  0.22796420352E+02  0.00000000000E+00 0.  1.
          2   -1    0    0  501    0  0.00000000000E+00 -0.00000000000E+00 -0.77749889308E+03  0.77749889308E+03  0.00000000000E+00 0. -1.
         25    2    1    2    0    0  0.29076161174E+01  0.75894382223E+02 -0.39203855647E+03  0.41846158758E+03  0.12508980388E+03 0.  0.
          5    1    3    3  502    0  0.56839308609E+02  0.43208951588E+02 -0.28785135727E+03  0.29660343353E+03  0.41800000000E+01 0.  1.
         -5    1    3    3    0  502 -0.53931692491E+02  0.32685430635E+02 -0.10418719920E+03  0.12185815405E+03  0.41800000000E+01 0.  1.
        -11    1    1    2    0    0  0.65966057711E+01  0.21020608962E+02 -0.71455659852E+02  0.74774945895E+02  0.00000000000E+00 0.  1.
         11    1    1    2    0    0 -0.95042218885E+01 -0.96914991185E+02 -0.29120825641E+03  0.30705877996E+03  0.00000000000E+00 0. -1.
</event>
<event>
 7    1  0.2856214E-009  0.1251867E+03  0.7561462E-02  0.1234778E+00
          3   -1    0    0  501    0  0.00000000000E+00  0.00000000000E+00  0.32759294184E+03  0.32759294184E+03  0.00000000000E+00 0. -1.
         -3   -1    0    0    0  501 -0.00000000000E+00 -0.00000000000E+00 -0.58935377249E+02  0.58935377249E+02  0.00000000000E+00 0.  1.
         25    2    1    2    0    0 -0.53714775769E+02  0.67989294114E+02  0.13980595453E+03  0.20664155866E+03  0.12508879884E+03 0.  0.
          5    1    3    3  502    0 -0.71711848828E+02  0.81342657400E+02  0.60756270231E+02  0.12437047056E+03  0.41800000000E+01 0. -1.
         -5    1    3    3    0  502  0.17997073059E+02 -0.13353363286E+02  0.79049684300E+02  0.82271088103E+02  0.41800000000E+01 0. -1.
        -11    1    1    2    0    0  0.67191161558E+02 -0.21338459983E+02  0.47044361770E+02  0.84753489842E+02  0.00000000000E+00 0.  1.
         11    1    1    2    0    0 -0.13476385789E+02 -0.46650834130E+02  0.81807248288E+02  0.95133270581E+02  0.00000000000E+00 0. -1.
</event>
<event>
 7    1  0.2856214E-009  0.1017009E+03  0.7561462E-02  0.1276759E+00
         -1   -1    0    0    0  501 -0.00000000000E+00  0.00000000000E+00  0.31904098481E+02  0.31904098481E+02  0.00000000000E+00 0.  1.
          1   -1    0    0  501    0  0.00000000000E+00 -0.00000000000E+00 -0.44576693974E+03  0.44576693974E+03  0.00000000000E+00 0. -1.
         25    2    1    2    0    0  0.70652700905E+00 -0.26713358515E+02 -0.31963103769E+03  0.34427478017E+03  0.12508805422E+03 0.  0.
          5    1    3    3  502    0 -0.20718194305E+01  0.48986145279E+02 -0.16250928007E+03  0.16979597573E+03  0.41800000000E+01 0. -1.
         -5    1    3    3    0  502  0.27783464395E+01 -0.75699503794E+02 -0.15712175761E+03  0.17447880444E+03  0.41800000000E+01 0. -1.
        -11    1    1    2    0    0 -0.81652786483E+01 -0.24886721865E+02 -0.56622687428E+00  0.26198116602E+02  0.00000000000E+00 0.  1.
         11    1    1    2    0    0  0.74587516393E+01  0.51600080380E+02 -0.93665576697E+02  0.10719814145E+03  0.00000000000E+00 0. -1.
</event>
<event>
 7    1  0.2856214E-009  0.1825880E+03  0.7561462E-02  0.1165322E+00
          1   -1    0    0  501    0  0.00000000000E+00  0.00000000000E+00  0.14549757361E+03  0.14549757361E+03  0.00000000000E+00 0. -1.
         -1   -1    0    0    0  501 -0.00000000000E+00 -0.00000000000E+00 -0.34667401483E+03  0.34667401483E+03  0.00000000000E+00 0.  1.
         25    2    1    2    0    0 -0.31561446560E+02  0.16758953436E+03  0.19461725884E+01  0.21150499866E+03  0.12509276531E+03 0.  0.
          5    1    3    3  502    0 -0.22436756724E+02  0.15813962111E+02  0.45484247960E+02  0.53289573675E+02  0.41800000000E+01 0.  1.
         -5    1    3    3    0  502 -0.91246898355E+01  0.15177557224E+03 -0.43538075372E+02  0.15821542498E+03  0.41800000000E+01 0.  1.
        -11    1    1    2    0    0 -0.20517164753E+02 -0.19431974188E+02 -0.67462195289E+02  0.73141667083E+02  0.00000000000E+00 0. -1.
         11    1    1    2    0    0  0.52078611313E+02 -0.14815756017E+03 -0.13566041852E+03  0.20752492271E+03  0.00000000000E+00 0.  1.
</event>
<event>
 7    1  0.2856214E-009  0.1873458E+03  0.7561462E-02  0.1160877E+00
         -1   -1    0    0    0  501 -0.00000000000E+00  0.00000000000E+00  0.36431954380E+02  0.36431954380E+02  0.00000000000E+00 0.  1.
          1   -1    0    0  501    0  0.00000000000E+00 -0.00000000000E+00 -0.11939737940E+04  0.11939737940E+04  0.00000000000E+00 0. -1.
         25    2    1    2    0    0 -0.13390269718E+03  0.81553723589E+02 -0.34495519221E+03  0.39902637495E+03  0.12508805351E+03 0.  0.
          5    1    3    3  502    0 -0.15208817856E+03  0.44680457704E+02 -0.28620991112E+03  0.32720137985E+03  0.41800000000E+01 0. -1.
         -5    1    3    3    0  502  0.18185481377E+02  0.36873265884E+02 -0.58745281097E+02  0.71824995099E+02  0.41800000000E+01 0. -1.
        -11    1    1    2    0    0  0.80171639291E+02 -0.37731870128E+01 -0.41702284813E+03  0.42467609368E+03  0.00000000000E+00 0. -1.
         11    1    1    2    0    0  0.53731057890E+02 -0.77780536576E+02 -0.39556379925E+03  0.40670327972E+03  0.00000000000E+00 0.  1.
</event>
<event>
 7    1  0.2856214E-009  0.2345510E+03  0.7561462E-02  0.1123477E+00
         -2   -1    0    0    0  501 -0.00000000000E+00  0.00000000000E+00  0.36565118759E+03  0.36565118759E+03  0.00000000000E+00 0.  1.
          2   -1    0    0  501    0  0.00000000000E+00 -0.00000000000E+00 -0.19003765718E+03  0.19003765718E+03  0.00000000000E+00 0. -1.
         25    2    1    2    0    0  0.15952326171E+03  0.16029105715E+03  0.17465874226E+03  0.31192021137E+03  0.12509055913E+03 0.  0.
          5    1    3    3  502    0  0.59388589655E+02  0.62286321681E+02 -0.22691437207E+01  0.86192875941E+02  0.41800000000E+01 0.  1.
         -5    1    3    3    0  502  0.10013467206E+03  0.98004735467E+02  0.17692788598E+03  0.22572733543E+03  0.41800000000E+01 0.  1.
        -11    1    1    2    0    0 -0.96999495567E+01 -0.63851887541E+02 -0.95213702868E+01  0.65282532550E+02  0.00000000000E+00 0.  1.
         11    1    1    2    0    0 -0.14982331216E+03 -0.96439169608E+02  0.10476158430E+02  0.17848610085E+03  0.00000000000E+00 0. -1.
</event>
<event>
 7    1  0.2856214E-009  0.1170958E+03  0.7561462E-02  0.1247966E+00
         -2   -1    0    0    0  501 -0.00000000000E+00  0.00000000000E+00  0.32551160657E+02  0.32551160657E+02  0.00000000000E+00 0.  1.
          2   -1    0    0  501    0  0.00000000000E+00 -0.00000000000E+00 -0.56783768019E+03  0.56783768019E+03  0.00000000000E+00 0. -1.
         25    2    1    2    0    0  0.28842342490E+02 -0.73291164965E+02 -0.34008617657E+03  0.37082309882E+03  0.12509071726E+03 0.  0.
          5    1    3    3  502    0  0.56584738561E+02 -0.61103394372E+02 -0.32715404721E+03  0.33761324092E+03  0.41800000000E+01 0. -1.
         -5    1    3    3    0  502 -0.27742396071E+02 -0.12187770593E+02 -0.12932129361E+02  0.33209857898E+02  0.41800000000E+01 0. -1.
        -11    1    1    2    0    0 -0.61362646980E+02  0.37749333700E+02 -0.12798832348E+03  0.14687204494E+03  0.00000000000E+00 0. -1.
         11    1    1    2    0    0  0.32520304490E+02  0.35541831265E+02 -0.67212019478E+02  0.82693697076E+02  0.00000000000E+00 0.  1.
</event>
<event>
 7    1  0.2856214E-009  0.9770270E+02  0.7561462E-02  0.1285202E+00
         -2   -1    0    0    0  501 -0.00000000000E+00  0.00000000000E+00  0.80305254316E+02  0.80305254316E+02  0.00000000000E+00 0.  1.
          2   -1    0    0  501    0  0.00000000000E+00 -0.00000000000E+00 -0.17089150634E+03  0.17089150634E+03  0.00000000000E+00 0. -1.
         25    2    1    2    0    0  0.42746136953E+02  0.24472926677E+01 -0.76808887195E+02  0.15290398524E+03  0.12508717794E+03 0.  0.
          5    1    3    3  502    0  0.61492716397E+02 -0.45263538426E+02 -0.26427939403E+02  0.80907666273E+02  0.41800000000E+01 0. -1.
         -5    1    3    3    0  502 -0.18746579444E+02  0.47710831093E+02 -0.50380947793E+02  0.71996318968E+02  0.41800000000E+01 0. -1.
        -11    1    1    2    0    0 -0.16710106380E+02  0.24743839258E+02  0.28782735029E+02  0.41472051700E+02  0.00000000000E+00 0.  1.
         11    1    1    2    0    0 -0.26036030573E+02 -0.27191131926E+02 -0.42560099854E+02  0.56820723711E+02  0.00000000000E+00 0. -1.
</event>
<event>
 7    1  0.2856214E-009  0.1048937E+03  0.7561462E-02  0.1270329E+00
         -1   -1    0    0    0  501 -0.00000000000E+00  0.00000000000E+00  0.86774775184E+02  0.86774775184E+02  0.00000000000E+00 0. -1.
          1   -1    0    0  501    0  0.00000000000E+00 -0.00000000000E+00 -0.15607490802E+03  0.15607490802E+03  0.00000000000E+00 0.  1.
         25    2    1    2    0    0 -0.15460826426E+02 -0.32421927978E+02 -0.15402574083E+02  0.13105272451E+03  0.12508940301E+03 0.  0.
          5    1    3    3  502    0 -0.23600666152E+02 -0.77869656775E+02 -0.21577224219E+02  0.84283592081E+02  0.41800000000E+01 0.  1.
         -5    1    3    3    0  502  0.81398397256E+01  0.45447728796E+02  0.61746501364E+01  0.46769132425E+02  0.41800000000E+01 0.  1.
        -11    1    1    2    0    0 -0.27029789212E+02 -0.22331719058E+01 -0.49932367146E+02  0.56822863800E+02  0.00000000000E+00 0.  1.
         11    1    1    2    0    0  0.42490615639E+02  0.34655099884E+02 -0.39651916068E+01  0.54974094898E+02  0.00000000000E+00 0. -1.
</event>
<event>
 7    1  0.2856214E-009  0.7845905E+02  0.7561462E-02  0.1333482E+00
         -2   -1    0    0    0  501 -0.00000000000E+00  0.00000000000E+00  0.17696387754E+03  0.17696387754E+03  0.00000000000E+00 0.  1.
          2   -1    0    0  501    0  0.00000000000E+00 -0.00000000000E+00 -0.77940925914E+02  0.77940925914E+02  0.00000000000E+00 0. -1.
         25    2    1    2    0    0  0.29331663895E+02 -0.14342397208E+02  0.46661147634E+02  0.13742672978E+03  0.12507114973E+03 0.  0.
          5    1    3    3  502    0 -0.69645697446E+00  0.15197986579E+02 -0.38894165545E+02  0.41972519127E+02  0.41800000000E+01 0.  1.
         -5    1    3    3    0  502  0.30028120870E+02 -0.29540383787E+02  0.85555313180E+02  0.95454210648E+02  0.41800000000E+01 0.  1.
        -11    1    1    2    0    0 -0.20465989132E+01 -0.38916067841E+02  0.15927651084E+01  0.39002382030E+02  0.00000000000E+00 0. -1.
         11    1    1    2    0    0 -0.27285064982E+02  0.53258465049E+02  0.50769038879E+02  0.78475691645E+02  0.00000000000E+00 0.  1.
</event>
<event>
 7    1  0.2856214E-009  0.1261211E+03  0.7561462E-02  0.1233328E+00
          1   -1    0    0  501    0  0.00000000000E+00  0.00000000000E+00  0.45531081930E+02  0.45531081930E+02  0.00000000000E+00 0. -1.
         -1   -1    0    0    0  501 -0.00000000000E+00 -0.00000000000E+00 -0.41029919407E+03  0.41029919407E+03  0.00000000000E+00 0.  1.
         25    2    1    2    0    0  0.43444849859E+01  0.66244949117E+02 -0.11434848853E+03  0.18201751145E+03  0.12509008679E+03 0.  0.
          5    1    3    3  502    0  0.61488239255E+02  0.56249390856E+02 -0.68590824672E+02  0.10801375453E+03  0.41800000000E+01 0. -1.
         -5    1    3    3    0  502 -0.57143754269E+02  0.99955582607E+01 -0.45757663861E+02  0.74003756924E+02  0.41800000000E+01 0. -1.
        -11    1    1    2    0    0 -0.45076136354E+02 -0.48495188638E+02 -0.14410015362E+03  0.15858277228E+03  0.00000000000E+00 0.  1.
         11    1    1    2    0    0  0.40731651368E+02 -0.17749760479E+02 -0.10631946999E+03  0.11522999227E+03  0.00000000000E+00 0. -1.
</event>
<event>
 7    1  0.2856214E-009  0.9626353E+02  0.7561462E-02  0.1288355E+00
          2   -1    0    0  501    0  0.00000000000E+00  0.00000000000E+00  0.97321986870E+03  0.97321986870E+03  0.00000000000E+00 0. -1.
         -2   -1    0    0    0  501 -0.00000000000E+00 -0.00000000000E+00 -0.20384977324E+02  0.20384977324E+02  0.00000000000E+00 0.  1.
         25    2    1    2    0    0  0.71200960738E+02  0.36308521254E+02  0.65770646127E+03  0.67425045604E+03  0.12509197714E+03 0.  0.
          5    1    3    3  502    0  0.12832906539E+02  0.36124182076E+02  0.47220396463E+02  0.60966205910E+02  0.41800000000E+01 0.  1.
         -5    1    3    3    0  502  0.58368054199E+02  0.18433917796E+00  0.61048606481E+03  0.61328425013E+03  0.41800000000E+01 0.  1.
        -11    1    1    2    0    0  0.38331385552E+01 -0.17738937761E+02  0.46046949765E+01  0.18723409943E+02  0.00000000000E+00 0.  1.
         11    1    1    2    0    0 -0.75034099293E+02 -0.18569583493E+02  0.29052373513E+03  0.30063098004E+03  0.00000000000E+00 0. -1.
</event>
<event>
 7    1  0.2856214E-009  0.1082661E+03  0.7561462E-02  0.1263815E+00
          2   -1    0    0  501    0  0.00000000000E+00  0.00000000000E+00  0.57824498052E+03  0.57824498052E+03  0.00000000000E+00 0. -1.
         -2   -1    0    0    0  501 -0.00000000000E+00 -0.00000000000E+00 -0.22020512334E+02  0.22020512334E+02  0.00000000000E+00 0.  1.
         25    2    1    2    0    0  0.30331757895E+02 -0.10848980981E+02  0.32637884800E+03  0.35101047472E+03  0.12508990773E+03 0.  0.
          5    1    3    3  502    0  0.77026480733E+02 -0.23387385802E+02  0.20765212926E+03  0.22274857516E+03  0.41800000000E+01 0.  1.
         -5    1    3    3    0  502 -0.46694722838E+02  0.12538404821E+02  0.11872671873E+03  0.12826189956E+03  0.41800000000E+01 0.  1.
        -11    1    1    2    0    0 -0.10517180789E+02 -0.35480749938E+02  0.15263143742E+03  0.15705365451E+03  0.00000000000E+00 0. -1.
         11    1    1    2    0    0 -0.19814577106E+02  0.46329730919E+02  0.77214182772E+02  0.92201363624E+02  0.00000000000E+00 0.  1.
</event>
<event>
 7    1  0.2856214E-009  0.2118234E+03  0.7561462E-02  0.1140130E+00
          2   -1    0    0  501    0  0.00000000000E+00  0.00000000000E+00  0.39210295038E+03  0.39210295038E+03  0.00000000000E+00 0. -1.
         -2   -1    0    0    0  501 -0.00000000000E+00 -0.00000000000E+00 -0.17029644918E+03  0.17029644918E+03  0.00000000000E+00 0.  1.
         25    2    1    2    0    0 -0.11028632776E+03 -0.17016887810E+03 -0.12812432068E+02  0.23860701310E+03  0.12509447278E+03 0.  0.
          5    1    3    3  502    0 -0.93751390587E+02 -0.17862939665E+03 -0.39712910156E+02  0.20565109340E+03  0.41800000000E+01 0.  1.
         -5    1    3    3    0  502 -0.16534937172E+02  0.84605185512E+01  0.26900478088E+02  0.32955919693E+02  0.41800000000E+01 0.  1.
        -11    1    1    2    0    0  0.63405852177E+02  0.10175344880E+03  0.68399895712E+02  0.13803119997E+03  0.00000000000E+00 0.  1.
         11    1    1    2    0    0  0.46880475582E+02  0.68415429303E+02  0.16621903757E+03  0.18576118649E+03  0.00000000000E+00 0. -1.
</event>
<event>
 7    1  0.2856214E-009  0.7737768E+02  0.7561462E-02  0.1336662E+00
          2   -1    0    0  501    0  0.00000000000E+00  0.00000000000E+00  0.17437537607E+03  0.17437537607E+03  0.00000000000E+00 0. -1.
         -2   -1    0    0    0  501 -0.00000000000E+00 -0.00000000000E+00 -0.82911656936E+02  0.82911656936E+02  0.00000000000E+00 0.  1.
         25    2    1    2    0    0  0.14045675038E+02  0.48988972495E+02  0.55225866267E+02  0.14592409418E+03  0.12508694793E+03 0.  0.
          5    1    3    3  502    0  0.18833208031E+02  0.13310557318E+02  0.91616102146E+02  0.94566607391E+02  0.41800000000E+01 0. -1.
         -5    1    3    3    0  502 -0.47875329928E+01  0.35678415177E+02 -0.36390235879E+02  0.51357486787E+02  0.41800000000E+01 0. -1.
        -11    1    1    2    0    0  0.30669156211E+02 -0.28102084346E+01  0.35609508998E+02  0.47080054643E+02  0.00000000000E+00 0.  1.
         11    1    1    2    0    0 -0.44714831249E+02 -0.46178764060E+02  0.62834387305E+00  0.64282884190E+02  0.00000000000E+00 0. -1.
</event>
<event>
 7    1  0.2856214E-009  0.6782874E+02  0.7561462E-02  0.1367636E+00
          2   -1    0    0  501    0  0.00000000000E+00  0.00000000000E+00  0.20980678630E+03  0.20980678630E+03  0.00000000000E+00 0. -1.
         -2   -1    0    0    0  501 -0.00000000000E+00 -0.00000000000E+00 -0.70346726249E+02  0.70346726249E+02  0.00000000000E+00 0.  1.
         25    2    1    2    0    0  0.12815466778E+02 -0.41367571316E+02  0.11630021344E+03  0.17620514930E+03  0.12508798043E+03 0.  0.
          5    1    3    3  502    0  0.47846684783E+01 -0.41185953825E+02  0.14250845558E+03  0.14847662495E+03  0.41800000000E+01 0.  1.
         -5    1    3    3    0  502  0.80307982992E+01 -0.18161749145E+00 -0.26208242144E+02  0.27728524348E+02  0.41800000000E+01 0.  1.
        -11    1    1    2    0    0  0.15006155686E+02 -0.15528825738E+02  0.33418535277E+02  0.39788536507E+02  0.00000000000E+00 0. -1.
         11    1    1    2    0    0 -0.27821622464E+02  0.56896397055E+02 -0.10258688665E+02  0.64159826741E+02  0.00000000000E+00 0.  1.
</event>
<event>
 7    1  0.2856214E-009  0.1054972E+03  0.7561462E-02  0.1269143E+00
         -2   -1    0    0    0  501 -0.00000000000E+00  0.00000000000E+00  0.11913165703E+02  0.11913165703E+02  0.00000000000E+00 0.  1.
          2   -1    0    0  501    0  0.00000000000E+00 -0.00000000000E+00 -0.13512767682E+04  0.13512767682E+04  0.00000000000E+00 0. -1.
         25    2    1    2    0    0  0.17133283398E+02  0.61090100097E+01 -0.10868606471E+04  0.10941866687E+04  0.12509008930E+03 0.  0.
          5    1    3    3  502    0  0.56773540142E+02  0.37703747018E+02 -0.79502792431E+03  0.79795468557E+03  0.41800000000E+01 0.  1.
         -5    1    3    3    0  502 -0.39640256744E+02 -0.31594737008E+02 -0.29183272279E+03  0.29623198317E+03  0.41800000000E+01 0.  1.
        -11    1    1    2    0    0 -0.19782949490E+02 -0.46937433963E+02 -0.12104505249E+03  0.13132552124E+03  0.00000000000E+00 0. -1.
         11    1    1    2    0    0  0.26496660921E+01  0.40828423953E+02 -0.13145790291E+03  0.13767774392E+03  0.00000000000E+00 0.  1.
</event>
<event>
 7    1  0.2856214E-009  0.1042531E+03  0.7561462E-02  0.1271598E+00
         -1   -1    0    0    0  501 -0.00000000000E+00  0.00000000000E+00  0.10578509454E+03  0.10578509454E+03  0.00000000000E+00 0.  1.
          1   -1    0    0  501    0  0.00000000000E+00 -0.00000000000E+00 -0.16973353006E+03  0.16973353006E+03  0.00000000000E+00 0. -1.
         25    2    1    2    0    0 -0.76308469097E+02  0.17189305592E+02 -0.22349248378E+02  0.14920709663E+03  0.12507923129E+03 0.  0.
          5    1    3    3  502    0 -0.38597956374E+02 -0.25019760453E+02  0.42684443222E+02  0.62890577534E+02  0.41800000000E+01 0. -1.
         -5    1    3    3    0  502 -0.37710512722E+02  0.42209066045E+02 -0.65033691600E+02  0.86316519098E+02  0.41800000000E+01 0. -1.
        -11    1    1    2    0    0  0.79499596066E+02  0.82485477552E+01 -0.30108539139E+01  0.79983057931E+02  0.00000000000E+00 0. -1.
         11    1    1    2    0    0 -0.31911269687E+01 -0.25437853348E+02 -0.38588333232E+02  0.46328470036E+02  0.00000000000E+00 0.  1.
</event>
<event>
 7    1  0.2856214E-009  0.1228476E+03  0.7561462E-02  0.1238472E+00
          1   -1    0    0  501    0  0.00000000000E+00  0.00000000000E+00  0.58710726326E+03  0.58710726326E+03  0.00000000000E+00 0. -1.
         -1   -1    0    0    0  501 -0.00000000000E+00 -0.00000000000E+00 -0.35212275810E+02  0.35212275810E+02  0.00000000000E+00 0.  1.
         25    2    1    2    0    0 -0.83930257029E+02 -0.17093524790E+02  0.21684423466E+03  0.26458614831E+03  0.12509169091E+03 0.  0.
          5    1    3    3  502    0  0.17866312287E+02 -0.19748765539E+02  0.12341639367E+03  0.12632615518E+03  0.41800000000E+01 0. -1.
         -5    1    3    3    0  502 -0.10179656932E+03  0.26552407488E+01  0.93427840988E+02  0.13825999313E+03  0.41800000000E+01 0. -1.
        -11    1    1    2    0    0  0.87282370012E+01 -0.27868197878E+02  0.15217336622E+03  0.15495015960E+03  0.00000000000E+00 0.  1.
         11    1    1    2    0    0  0.75202020028E+02  0.44961722668E+02  0.18287738657E+03  0.20278323117E+03  0.00000000000E+00 0. -1.
</event>
<event>
 7    1  0.3015312E-009  0.1484587E+03  0.7561462E-02  0.1202380E+00
          1   -1    0    0  501    0  0.00000000000E+00  0.00000000000E+00  0.56549788717E+03  0.56549788717E+03  0.00000000000E+00 0. -1.
         -1   -1    0    0    0  501 -0.00000000000E+00 -0.00000000000E+00 -0.49677803988E+02  0.49677803988E+02  0.00000000000E+00 0.  1.
         25    2    1    2    0    0  0.86003666517E+02  0.94228975758E+02  0.28206283257E+03  0.33388955056E+03  0.12508820859E+03 0.  0.
          5    1    3    3  502    0  0.13903621738E+02  0.93991615529E+02  0.21599918125E+03  0.23601028195E+03  0.41800000000E+01 0.  1.
         -5    1    3    3    0  502  0.72100044778E+02  0.23736022959E+00  0.66063651316E+02  0.97879268602E+02  0.41800000000E+01 0.  1.
        -11    1    1    2    0    0 -0.20510005368E+02 -0.38381269616E+02  0.14712270219E+02  0.45937273238E+02  0.00000000000E+00 0.  1.
         11    1    1    2    0    0 -0.65493661149E+02 -0.55847706142E+02  0.21904498039E+03  0.23534886736E+03  0.00000000000E+00 0. -1.
</event>
<event>
 7    1  0.2856214E-009  0.1516760E+03  0.7561462E-02  0.1198429E+00
          2   -1    0    0  501    0  0.00000000000E+00  0.00000000000E+00  0.19768667842E+03  0.19768667842E+03  0.00000000000E+00 0. -1.
         -2   -1    0    0    0  501 -0.00000000000E+00 -0.00000000000E+00 -0.14880851859E+03  0.14880851859E+03  0.00000000000E+00 0.  1.
         25    2    1    2    0    0 -0.76213511109E+02  0.80071189694E+02  0.97029637969E+02  0.19308706874E+03  0.12509184936E+03 0.  0.
          5    1    3    3  502    0  0.10234500565E+02 -0.25478567726E+02  0.30462697997E+02  0.41223182609E+02  0.41800000000E+01 0. -1.
         -5    1    3    3    0  502 -0.86448011675E+02  0.10554975742E+03  0.66566939973E+02  0.15186388613E+03  0.41800000000E+01 0. -1.
        -11    1    1    2    0    0  0.92743252355E+02 -0.51526210907E+02 -0.55321117229E+02  0.11965236011E+03  0.00000000000E+00 0.  1.
         11    1    1    2    0    0 -0.16529741246E+02 -0.28544978787E+02  0.71696390933E+01  0.33755768164E+02  0.00000000000E+00 0. -1.
</event>
<event>
 7    1  0.2856214E-009  0.1415321E+03  0.7561462E-02  0.1211282E+00
         -2   -1    0    0    0  501 -0.00000000000E+00  0.00000000000E+00  0.38557406010E+02  0.38557406010E+02  0.00000000000E+00 0.  1.
          2   -1    0    0  501    0  0.00000000000E+00 -0.00000000000E+00 -0.71449743127E+03  0.71449743127E+03  0.00000000000E+00 0. -1.
         25    2    1    2    0    0 -0.48859292816E+02 -0.11402728033E+03 -0.31877648124E+03  0.36422015534E+03  0.12509366655E+03 0.  0.
          5    1    3    3  502    0 -0.28198821778E+02 -0.12744844364E+03 -0.31214804384E+03  0.33836689112E+03  0.41800000000E+01 0. -1.
         -5    1    3    3    0  502 -0.20660471037E+02  0.13421163310E+02 -0.66284373964E+01  0.25853264212E+02  0.41800000000E+01 0. -1.
        -11    1    1    2    0    0  0.17010338954E+02  0.75973353148E+02 -0.31256515438E+03  0.32211531747E+03  0.00000000000E+00 0. -1.
         11    1    1    2    0    0  0.31848953862E+02  0.38053927183E+02 -0.44598389645E+02  0.66719364469E+02  0.00000000000E+00 0.  1.
</event>
<event>
 7    1  0.2856214E-009  0.1151283E+03  0.7561462E-02  0.1251357E+00
         -2   -1    0    0    0  501 -0.00000000000E+00  0.00000000000E+00  0.71433157556E+02  0.71433157556E+02  0.00000000000E+00 0. -1.
          2   -1    0    0  501    0  0.00000000000E+00 -0.00000000000E+00 -0.21402905110E+03  0.21402905110E+03  0.00000000000E+00 0.  1.
         25    2    1    2    0    0  0.39789475806E+02 -0.42015342103E+02 -0.63414082607E+02  0.15171594425E+03  0.12509152852E+03 0.  0.
          5    1    3    3  502    0  0.69016680881E+02  0.15766113039E+02 -0.46007394318E+02  0.84534166419E+02  0.41800000000E+01 0.  1.
         -5    1    3    3    0  502 -0.29227205074E+02 -0.57781455142E+02 -0.17406688289E+02  0.67181777827E+02  0.41800000000E+01 0.  1.
        -11    1    1    2    0    0 -0.30619596812E+02 -0.16799799860E+02 -0.63044101351E+02  0.72071850951E+02  0.00000000000E+00 0.  1.
         11    1    1    2    0    0 -0.91698789941E+01  0.58815141963E+02 -0.16137709585E+02  0.61674413459E+02  0.00000000000E+00 0. -1.
</event>
<event>
 7    1  0.2963577E-009  0.8489895E+02  0.7561462E-02  0.1315697E+00
         -2   -1    0    0    0  501 -0.00000000000E+00  0.00000000000E+00  0.28844638991E+02  0.28844638991E+02  0.00000000000E+00 0.  1.
          2   -1    0    0  501    0  0.00000000000E+00 -0.00000000000E+00 -0.51527533838E+03  0.51527533838E+03  0.00000000000E+00 0. -1.
         25    2    1    2    0    0  0.96346415542E+01 -0.35664593483E+02 -0.18356252794E+03  0.22518697557E+03  0.12509669364E+03 0.  0.
          5    1    3    3  502    0 -0.23700933884E+02 -0.30428122155E+01  0.98532260430E+01  0.26183037192E+02  0.41800000000E+01 0. -1.
         -5    1    3    3    0  502  0.33335575438E+02 -0.32621781268E+02 -0.19341575398E+03  0.19900393838E+03  0.41800000000E+01 0. -1.
        -11    1    1    2    0    0 -0.13631077383E+02  0.66365601593E+02 -0.22972266657E+03  0.23950512078E+03  0.00000000000E+00 0. -1.
         11    1    1    2    0    0  0.39964358285E+01 -0.30701008109E+02 -0.73145504880E+02  0.79427881015E+02  0.00000000000E+00 0.  1.
</event>
<event>
 7    1  0.2856214E-009  0.1124199E+03  0.7561462E-02  0.1256153E+00
         -1   -1    0    0    0  501 -0.00000000000E+00  0.00000000000E+00  0.66677554983E+02  0.66677554983E+02  0.00000000000E+00 0.  1.
          1   -1    0    0  501    0  0.00000000000E+00 -0.00000000000E+00 -0.24813118745E+03  0.24813118745E+03  0.00000000000E+00 0. -1.
         25    2    1    2    0    0  0.63943198824E+02  0.14416318017E+02 -0.12921581087E+03  0.19141512847E+03  0.12508582145E+03 0.  0.
          5    1    3    3  502    0 -0.10223027344E+02  0.34426005886E+02 -0.10455187753E+03  0.11062652333E+03  0.41800000000E+01 0. -1.
         -5    1    3    3    0  502  0.74166226168E+02 -0.20009687869E+02 -0.24663933347E+02  0.80788605142E+02  0.41800000000E+01 0. -1.
        -11    1    1    2    0    0 -0.43582606106E+02 -0.52703622925E+02 -0.33510934909E+02  0.76158375659E+02  0.00000000000E+00 0.  1.
         11    1    1    2    0    0 -0.20360592718E+02  0.38287304909E+02 -0.18726886689E+02  0.47235238308E+02  0.00000000000E+00 0. -1.
</event>
<event>
 7    1  0.2856214E-009  0.1142147E+03  0.7561462E-02  0.1252958E+00
         -1   -1    0    0    0  501 -0.00000000000E+00  0.00000000000E+00  0.15280951463E+02  0.15280951463E+02  0.00000000000E+00 0.  1.
          1   -1    0    0  501    0  0.00000000000E+00 -0.00000000000E+00 -0.93299887711E+03  0.93299887711E+03  0.00000000000E+00 0. -1.
         25    2    1    2    0    0 -0.29843062475E+01 -0.43172825831E+02 -0.42119891519E+03  0.44150675180E+03  0.12508751640E+03 0.  0.
          5    1    3    3  502    0  0.15111539513E+02  0.39378884775E+02 -0.20507196062E+03  0.20940639108E+03  0.41800000000E+01 0. -1.
         -5    1    3    3    0  502 -0.18095845760E+02 -0.82551710607E+02 -0.21612695457E+03  0.23210036072E+03  0.41800000000E+01 0. -1.
        -11    1    1    2    0    0 -0.79050863472E+01  0.71056219379E+02 -0.35010365296E+03  0.35732904237E+03  0.00000000000E+00 0.  1.
         11    1    1    2    0    0  0.10889392595E+02 -0.27883393548E+02 -0.14641535749E+03  0.14944403440E+03  0.00000000000E+00 0. -1.
</event>
<event>
 7    1  0.2856214E-009  0.1326903E+03  0.7561462E-02  0.1223518E+00
          2   -1    0    0  501    0  0.00000000000E+00  0.00000000000E+00  0.21675736890E+02  0.21675736890E+02  0.00000000000E+00 0. -1.
         -2   -1    0    0    0  501 -0.00000000000E+00 -0.00000000000E+00 -0.93072142310E+03  0.93072142310E+03  0.00000000000E+00 0.  1.
         25    2    1    2    0    0 -0.30599252507E+02 -0.87149129009E+02 -0.38596672327E+03  0.41611755490E+03  0.12510884494E+03 0.  0.
          5    1    3    3  502    0  0.42615364738E+02 -0.46837189012E+02 -0.10248568885E+03  0.12054285713E+03  0.41800000000E+01 0.  1.
         -5    1    3    3    0  502 -0.73214617245E+02 -0.40311939997E+02 -0.28348103441E+03  0.29557469776E+03  0.41800000000E+01 0.  1.
        -11    1    1    2    0    0 -0.19007551160E+02  0.57233971762E+02 -0.27152252538E+03  0.27813934694E+03  0.00000000000E+00 0.  1.
         11    1    1    2    0    0  0.49606803667E+02  0.29915157247E+02 -0.25155643756E+03  0.25814025815E+03  0.00000000000E+00 0. -1.
</event>
<event>
 7    1  0.2856214E-009  0.2135773E+03  0.7561462E-02  0.1138764E+00
         -2   -1    0    0    0  501 -0.00000000000E+00  0.00000000000E+00  0.56009953022E+02  0.56009953022E+02  0.00000000000E+00 0. -1.
          2   -1    0    0  501    0  0.00000000000E+00 -0.00000000000E+00 -0.10945466075E+04  0.10945466075E+04  0.00000000000E+00 0.  1.
         25    2    1    2    0    0  0.86523716307E+02  0.18584760386E+03 -0.33702802149E+03  0.41383682842E+03  0.12508935984E+03 0.  0.
          5    1    3    3  502    0  0.62925037226E+02  0.13877581145E+03 -0.32599837042E+03  0.35987594539E+03  0.41800000000E+01 0.  1.
         -5    1    3    3    0  502  0.23598679081E+02  0.47071792407E+02 -0.11029651068E+02  0.53960883031E+02  0.41800000000E+01 0.  1.
        -11    1    1    2    0    0 -0.10346639401E+03 -0.16789072623E+03 -0.65526241573E+03  0.68429629848E+03  0.00000000000E+00 0.  1.
         11    1    1    2    0    0  0.16942677700E+02 -0.17956877632E+02 -0.46246217248E+02  0.52423433612E+02  0.00000000000E+00 0. -1.
</event>
<event>
 7    1  0.2856214E-009  0.1469406E+03  0.7561462E-02  0.1204283E+00
         -2   -1    0    0    0  501 -0.00000000000E+00  0.00000000000E+00  0.64243231456E+02  0.64243231456E+02  0.00000000000E+00 0.  1.
          2   -1    0    0  501    0  0.00000000000E+00 -0.00000000000E+00 -0.76305586234E+03  0.76305586234E+03  0.00000000000E+00 0. -1.
         25    2    1    2    0    0 -0.54279786405E+02 -0.84663052094E+02 -0.66872370078E+03  0.68771466740E+03  0.12508376464E+03 0.  0.
          5    1    3    3  502    0 -0.89168809537E+02 -0.87542964295E+02 -0.50642425453E+03  0.52162998876E+03  0.41800000000E+01 0. -1.
         -5    1    3    3    0  502  0.34889023131E+02  0.28799122018E+01 -0.16229944625E+03  0.16608467865E+03  0.41800000000E+01 0. -1.
        -11    1    1    2    0    0  0.59362622041E+02  0.11760783568E+02  0.96525026138E-01  0.60516495626E+02  0.00000000000E+00 0.  1.
         11    1    1    2    0    0 -0.50828356360E+01  0.72902268526E+02 -0.30185455133E+02  0.79067930768E+02  0.00000000000E+00 0. -1.
</event>
<event>
 7    1  0.2856214E-009  0.9060901E+02  0.7561462E-02  0.1301384E+00
          2   -1    0    0  501    0  0.00000000000E+00  0.00000000000E+00  0.61149864163E+03  0.61149864163E+03  0.00000000000E+00 0. -1.
         -2   -1    0    0    0  501 -0.00000000000E+00 -0.00000000000E+00 -0.24041751046E+02  0.24041751046E+02  0.00000000000E+00 0.  1.
         25    2    1    2    0    0  0.44011368709E+02  0.16512419812E+02  0.41573563993E+03  0.43668302082E+03  0.12508508217E+03 0.  0.
          5    1    3    3  502    0  0.87150194589E+02  0.34960982416E+01  0.24683247244E+03  0.26182268995E+03  0.41800000000E+01 0.  1.
         -5    1    3    3    0  502 -0.43138825880E+02  0.13016321570E+02  0.16890316748E+03  0.17486033087E+03  0.41800000000E+01 0.  1.
        -11    1    1    2    0    0 -0.10915341229E+02 -0.10224943781E+02 -0.73359830083E+01  0.16658655293E+02  0.00000000000E+00 0.  1.
         11    1    1    2    0    0 -0.33096027480E+02 -0.62874760309E+01  0.17905723367E+03  0.18219871657E+03  0.00000000000E+00 0. -1.
</event>
<event>
 7    1  0.2856214E-009  0.1082137E+03  0.7561462E-02  0.1263914E+00
          2   -1    0    0  501    0  0.00000000000E+00  0.00000000000E+00  0.59692277270E+03  0.59692277270E+03  0.00000000000E+00 0. -1.
         -2   -1    0    0    0  501 -0.00000000000E+00 -0.00000000000E+00 -0.23573375835E+02  0.23573375835E+02  0.00000000000E+00 0.  1.
         25    2    1    2    0    0 -0.47877194603E+02 -0.40072786465E+02  0.34790457910E+03  0.37494409425E+03  0.12508966256E+03 0.  0.
          5    1    3    3  502    0  0.30106867478E+02 -0.27802198582E+02  0.22549302579E+03  0.22922469936E+03  0.41800000000E+01 0. -1.
         -5    1    3    3    0  502 -0.77984062081E+02 -0.12270587883E+02  0.12241155331E+03  0.14571939489E+03  0.41800000000E+01 0. -1.
        -11    1    1    2    0    0 -0.90234980120E+00 -0.19310175922E+02  0.61963936306E+02  0.64909371680E+02  0.00000000000E+00 0. -1.
         11    1    1    2    0    0  0.48779544404E+02  0.59382962387E+02  0.16348088146E+03  0.18064268260E+03  0.00000000000E+00 0.  1.
</event>
<event>
 7    1  0.4067035E-009  0.1206143E+03  0.7561462E-02  0.1242087E+00
         -2   -1    0    0    0  501 -0.00000000000E+00  0.00000000000E+00  0.47994228355E+02  0.47994228355E+02  0.00000000000E+00 0.  1.
          2   -1    0    0  501    0  0.00000000000E+00 -0.00000000000E+00 -0.45142368456E+03  0.45142368456E+03  0.00000000000E+00 0. -1.
         25    2    1    2    0    0  0.45682855743E+02  0.76872491218E+02 -0.14631322285E+03  0.21225365470E+03  0.12509097305E+03 0.  0.
          5    1    3    3  502    0  0.25184602873E+02 -0.13009074013E+02 -0.10901444902E+03  0.11271700282E+03  0.41800000000E+01 0. -1.
         -5    1    3    3    0  502  0.20498252869E+02  0.89881565232E+02 -0.37298773825E+02  0.99536651883E+02  0.41800000000E+01 0. -1.
        -11    1    1    2    0    0  0.18057368012E+02 -0.46103715013E+02 -0.15651080750E+03  0.16415618765E+03  0.00000000000E+00 0. -1.
         11    1    1    2    0    0 -0.63740223755E+02 -0.30768776205E+02 -0.10060542585E+03  0.12300807057E+03  0.00000000000E+00 0.  1.
</event>
<event>
 7    1  0.2856214E-009  0.1116048E+03  0.7561462E-02  0.1257627E+00
          2   -1    0    0  501    0  0.00000000000E+00  0.00000000000E+00  0.68149661772E+03  0.68149661772E+03  0.00000000000E+00 0. -1.
         -2   -1    0    0    0  501 -0.00000000000E+00 -0.00000000000E+00 -0.22481656709E+02  0.22481656709E+02  0.00000000000E+00 0.  1.
         25    2    1    2    0    0 -0.52938334340E+02 -0.21502045361E+02  0.34035865716E+03  0.36709231861E+03  0.12509176505E+03 0.  0.
          5    1    3    3  502    0  0.41046094250E+02 -0.89872760872E+01  0.11796269572E+03  0.12529254952E+03  0.41800000000E+01 0.  1.
         -5    1    3    3    0  502 -0.93984428589E+02 -0.12514769274E+02  0.22239596144E+03  0.24179976909E+03  0.41800000000E+01 0.  1.
        -11    1    1    2    0    0 -0.66856894945E+01  0.25459246550E+02  0.22101408955E+02  0.34370684554E+02  0.00000000000E+00 0.  1.
         11    1    1    2    0    0  0.59624023834E+02 -0.39572011894E+01  0.29655489490E+03  0.30251527127E+03  0.00000000000E+00 0. -1.
</event>
<event>
 7    1  0.2856214E-009  0.9336635E+02  0.7561462E-02  0.1294898E+00
         -2   -1    0    0    0  501 -0.00000000000E+00  0.00000000000E+00  0.46817948953E+02  0.46817948953E+02  0.00000000000E+00 0.  1.
          2   -1    0    0  501    0  0.00000000000E+00 -0.00000000000E+00 -0.54930039652E+03  0.54930039652E+03  0.00000000000E+00 0. -1.
         25    2    1    2    0    0  0.31820324134E+02  0.44208661288E+02 -0.74434356808E+02  0.15541807806E+03  0.12508943502E+03 0.  0.
          5    1    3    3  502    0 -0.17585500780E+02  0.29134244131E+01 -0.87658539988E+02  0.89550153056E+02  0.41800000000E+01 0. -1.
         -5    1    3    3    0  502  0.49405824914E+02  0.41295236875E+02  0.13224183180E+02  0.65867925007E+02  0.41800000000E+01 0. -1.
        -11    1    1    2    0    0  0.20466653938E+02 -0.47280359062E+02 -0.24178378521E+03  0.24721188294E+03  0.00000000000E+00 0. -1.
         11    1    1    2    0    0 -0.52286978072E+02  0.30716977736E+01 -0.18626430555E+03  0.19348838447E+03  0.00000000000E+00 0.  1.
</event>
<event>
 7    1  0.2856214E-009  0.1147647E+03  0.7561462E-02  0.1251992E+00
         -3   -1    0    0    0  501 -0.00000000000E+00  0.00000000000E+00  0.43404616981E+03  0.43404616981E+03  0.00000000000E+00 0.  1.
          3   -1    0    0  501    0  0.00000000000E+00 -0.00000000000E+00 -0.40459114748E+02  0.40459114748E+02  0.00000000000E+00 0. -1.
         25    2    1    2    0    0  0.54683501438E+02  0.33018348148E+02  0.27115079378E+03  0.30536887948E+03  0.12508758111E+03 0.  0.
          5    1    3    3  502    0  0.77082911992E+01 -0.32414062597E+02  0.14922639143E+02  0.36745704052E+02  0.41800000000E+01 0.  1.
         -5    1    3    3    0  502  0.46975210238E+02  0.65432410745E+02  0.25622815463E+03  0.26862317543E+03  0.41800000000E+01 0.  1.
        -11    1    1    2    0    0 -0.68298350156E+02  0.11034908839E+02  0.85965634956E+02  0.11034728923E+03  0.00000000000E+00 0. -1.
         11    1    1    2    0    0  0.13614848719E+02 -0.44053256987E+02  0.36470626331E+02  0.58789115844E+02  0.00000000000E+00 0.  1.
</event>
<event>
 7    1  0.2856214E-009  0.7553407E+02  0.7561462E-02  0.1342225E+00
          4   -1    0    0  501    0  0.00000000000E+00  0.00000000000E+00  0.20845764197E+03  0.20845764197E+03  0.00000000000E+00 0. -1.
         -4   -1    0    0    0  501 -0.00000000000E+00 -0.00000000000E+00 -0.76557583486E+02  0.76557583486E+02  0.00000000000E+00 0.  1.
         25    2    1    2    0    0  0.59530303779E+02 -0.23318997684E+02  0.71711480093E+02  0.15772747971E+03  0.12509112181E+03 0.  0.
          5    1    3    3  502    0  0.43690545460E+02 -0.28769804461E+02 -0.25955111590E+02  0.58546610739E+02  0.41800000000E+01 0.  1.
         -5    1    3    3    0  502  0.15839758319E+02  0.54508067770E+01  0.97666591683E+02  0.99180868967E+02  0.41800000000E+01 0.  1.
        -11    1    1    2    0    0 -0.53155679613E+01  0.26488779465E+02 -0.17726999057E+02  0.32313421297E+02  0.00000000000E+00 0.  1.
         11    1    1    2    0    0 -0.54214735818E+02 -0.31697817810E+01  0.77915577443E+02  0.94974324449E+02  0.00000000000E+00 0. -1.
</event>
<event>
 7    1  0.2856214E-009  0.7921442E+02  0.7561462E-02  0.1331296E+00
          2   -1    0    0  501    0  0.00000000000E+00  0.00000000000E+00  0.42609811628E+02  0.42609811628E+02  0.00000000000E+00 0. -1.
         -2   -1    0    0    0  501 -0.00000000000E+00 -0.00000000000E+00 -0.45236141839E+03  0.45236141839E+03  0.00000000000E+00 0.  1.
         25    2    1    2    0    0  0.35020622450E+01  0.35867932878E+02 -0.36594421622E+03  0.38840583239E+03  0.12508056686E+03 0.  0.
          5    1    3    3  502    0  0.39420744350E+02  0.57725077249E+02 -0.12065307976E+03  0.13950203469E+03  0.41800000000E+01 0.  1.
         -5    1    3    3    0  502 -0.35918682105E+02 -0.21857144371E+02 -0.24529113646E+03  0.24890379770E+03  0.41800000000E+01 0.  1.
        -11    1    1    2    0    0 -0.11515792358E+02 -0.24364548015E+01  0.26116933400E+02  0.28646884575E+02  0.00000000000E+00 0. -1.
         11    1    1    2    0    0  0.80137301133E+01 -0.33431478077E+02 -0.69924323946E+02  0.77918513051E+02  0.00000000000E+00 0.  1.
</event>
<event>
 7    1  0.2856214E-009  0.1359023E+03  0.7561462E-02  0.1218952E+00
          1   -1    0    0  501    0  0.00000000000E+00  0.00000000000E+00  0.18152915725E+03  0.18152915725E+03  0.00000000000E+00 0.  1.
         -1   -1    0    0    0  501 -0.00000000000E+00 -0.00000000000E+00 -0.16744661962E+03  0.16744661962E+03  0.00000000000E+00 0. -1.
         25    2    1    2    0    0 -0.42004513944E+02 -0.12846482525E+03  0.22371016417E+02  0.18551683198E+03  0.12509373307E+03 0.  0.
          5    1    3    3  502    0 -0.26905626742E+01 -0.27337688374E+02  0.63574350973E+02  0.69381257085E+02  0.41800000000E+01 0.  1.
         -5    1    3    3    0  502 -0.39313951269E+02 -0.10112713688E+03 -0.41203334556E+02  0.11613557489E+03  0.41800000000E+01 0.  1.
        -11    1    1    2    0    0  0.11563251426E+02  0.48898841892E+02 -0.47979998394E+02  0.69475792675E+02  0.00000000000E+00 0. -1.
         11    1    1    2    0    0  0.30441262518E+02  0.79565983360E+02  0.39691519609E+02  0.93983152217E+02  0.00000000000E+00 0.  1.
</event>
<event>
 7    1  0.2856214E-009  0.6513292E+02  0.7561462E-02  0.1377472E+00
         -2   -1    0    0    0  501 -0.00000000000E+00  0.00000000000E+00  0.17100689960E+02  0.17100689960E+02  0.00000000000E+00 0.  1.
          2   -1    0    0  501    0  0.00000000000E+00 -0.00000000000E+00 -0.81406272018E+03  0.81406272018E+03  0.00000000000E+00 0. -1.
         25    2    1    2    0    0  0.21022687991E+02  0.26204784050E+01 -0.58564613330E+03  0.59923134891E+03  0.12509194918E+03 0.  0.
          5    1    3    3  502    0  0.79640557395E+01  0.24493946987E+02 -0.56647533114E+03  0.56707596741E+03  0.41800000000E+01 0. -1.
         -5    1    3    3    0  502  0.13058632252E+02 -0.21873468582E+02 -0.19170802163E+02  0.32155381504E+02  0.41800000000E+01 0. -1.
        -11    1    1    2    0    0  0.25395653985E+02  0.14065620927E+02 -0.22358716811E+02  0.36642777608E+02  0.00000000000E+00 0.  1.
         11    1    1    2    0    0 -0.46418341977E+02 -0.16686099332E+02 -0.18895718011E+03  0.19528928362E+03  0.00000000000E+00 0. -1.
</event>
<event>
 7    1  0.2856214E-009  0.1577952E+03  0.7561462E-02  0.1191209E+00
         -1   -1    0    0    0  501 -0.00000000000E+00  0.00000000000E+00  0.27327549477E+03  0.27327549477E+03  0.00000000000E+00 0.  1.
          1   -1    0    0  501    0  0.00000000000E+00 -0.00000000000E+00 -0.10791724982E+03  0.10791724982E+03  0.00000000000E+00 0. -1.
         25    2    1    2    0    0 -0.12286866781E+03 -0.16192470195E+00  0.14333726919E+03  0.22647358886E+03  0.12509187809E+03 0.  0.
          5    1    3    3  502    0 -0.12689835400E+03  0.40228975063E+02  0.97228449702E+02  0.16490120228E+03  0.41800000000E+01 0.  1.
         -5    1    3    3    0  502  0.40296861889E+01 -0.40390899765E+02  0.46108819487E+02  0.61572386579E+02  0.41800000000E+01 0.  1.
        -11    1    1    2    0    0  0.75379958628E+01 -0.22789786804E+02  0.28116054604E+02  0.36969017984E+02  0.00000000000E+00 0.  1.
         11    1    1    2    0    0  0.11533067195E+03  0.22951711506E+02 -0.60950788370E+01  0.11775013775E+03  0.00000000000E+00 0. -1.
</event>
<event>
 7    1  0.2856214E-009  0.1121430E+03  0.7561462E-02  0.1256652E+00
         -2   -1    0    0    0  501 -0.00000000000E+00  0.00000000000E+00  0.60794121395E+03  0.60794121395E+03  0.00000000000E+00 0. -1.
          2   -1    0    0  501    0  0.00000000000E+00 -0.00000000000E+00 -0.33670248738E+02  0.33670248738E+02  0.00000000000E+00 0.  1.
         25    2    1    2    0    0 -0.62113061043E+02  0.61979843113E+02  0.22221989247E+03  0.26968317506E+03  0.12509117073E+03 0.  0.
          5    1    3    3  502    0 -0.34976987225E+02 -0.24634458387E+02  0.14238084750E+03  0.14872802126E+03  0.41800000000E+01 0.  1.
         -5    1    3    3    0  502 -0.27136073818E+02  0.86614301501E+02  0.79839044973E+02  0.12095515379E+03  0.41800000000E+01 0.  1.
        -11    1    1    2    0    0  0.10283435151E+02 -0.24222013518E+02  0.18249973288E+02  0.32023686583E+02  0.00000000000E+00 0.  1.
         11    1    1    2    0    0  0.51829625892E+02 -0.37757829595E+02  0.33380109946E+03  0.33990460105E+03  0.00000000000E+00 0. -1.
</event>
<event>
 7    1  0.2856214E-009  0.1727439E+03  0.7561462E-02  0.1175016E+00
         -1   -1    0    0    0  501 -0.00000000000E+00  0.00000000000E+00  0.25652295926E+03  0.25652295926E+03  0.00000000000E+00 0.  1.
          1   -1    0    0  501    0  0.00000000000E+00 -0.00000000000E+00 -0.19415566791E+03  0.19415566791E+03  0.00000000000E+00 0. -1.
         25    2    1    2    0    0 -0.82771921437E+02  0.15051677673E+03  0.12559569335E+03  0.24683810982E+03  0.12509309819E+03 0.  0.
          5    1    3    3  502    0 -0.46633323195E+01  0.37113530131E+01  0.71572388891E+02  0.71941643442E+02  0.41800000000E+01 0.  1.
         -5    1    3    3    0  502 -0.78108589117E+02  0.14680542372E+03  0.54023304461E+02  0.17489646638E+03  0.41800000000E+01 0.  1.
        -11    1    1    2    0    0  0.68661906681E+02 -0.12897349134E+03 -0.12123675644E+02  0.14661378656E+03  0.00000000000E+00 0.  1.
         11    1    1    2    0    0  0.14110014756E+02 -0.21543285396E+02 -0.51104726354E+02  0.57226730797E+02  0.00000000000E+00 0. -1.
</event>
<event>
 7    1  0.2856214E-009  0.2036128E+03  0.7561462E-02  0.1146726E+00
          2   -1    0    0  501    0  0.00000000000E+00  0.00000000000E+00  0.17770785951E+03  0.17770785951E+03  0.00000000000E+00 0. -1.
         -2   -1    0    0    0  501 -0.00000000000E+00 -0.00000000000E+00 -0.33977853551E+03  0.33977853551E+03  0.00000000000E+00 0.  1.
         25    2    1    2    0    0  0.40315202882E+02 -0.14479693446E+03 -0.22009243474E+03  0.29441339205E+03  0.12508835988E+03 0.  0.
          5    1    3    3  502    0  0.17935793652E+00  0.22789447472E+02 -0.25905844038E+02  0.34755952594E+02  0.41800000000E+01 0. -1.
         -5    1    3    3    0  502  0.40135844945E+02 -0.16758638193E+03 -0.19418659070E+03  0.25965743945E+03  0.41800000000E+01 0. -1.
        -11    1    1    2    0    0 -0.37896208270E+02 -0.22693372081E+02  0.29597488325E+02  0.53170697313E+02  0.00000000000E+00 0. -1.
         11    1    1    2    0    0 -0.24189946119E+01  0.16749030654E+03  0.28424270409E+02  0.16990230566E+03  0.00000000000E+00 0.  1.
</event>
<event>
 7    1  0.2856214E-009  0.1085517E+03  0.7561462E-02  0.1263276E+00
         -2   -1    0    0    0  501 -0.00000000000E+00  0.00000000000E+00  0.74052841410E+02  0.74052841410E+02  0.00000000000E+00 0.  1.
          2   -1    0    0  501    0  0.00000000000E+00 -0.00000000000E+00 -0.17508140465E+03  0.17508140465E+03  0.00000000000E+00 0. -1.
         25    2    1    2    0    0  0.22312038752E+02 -0.16762043637E+02 -0.81167767841E+02  0.15170373011E+03  0.12508805703E+03 0.  0.
          5    1    3    3  502    0  0.18677860500E+02  0.53590444142E+02 -0.44080030267E+02  0.71981384014E+02  0.41800000000E+01 0. -1.
         -5    1    3    3    0  502  0.36341782528E+01 -0.70352487779E+02 -0.37087737574E+02  0.79722346093E+02  0.41800000000E+01 0. -1.
        -11    1    1    2    0    0  0.31253258690E+02  0.17964821820E+02  0.81691455590E+01  0.36962628978E+02  0.00000000000E+00 0.  1.
         11    1    1    2    0    0 -0.53565297443E+02 -0.12027781831E+01 -0.28029940963E+02  0.60467886980E+02  0.00000000000E+00 0. -1.
</event>
<event>
 7    1  0.2856214E-009  0.1610376E+03  0.7561462E-02  0.1187530E+00
         -1   -1    0    0    0  501 -0.00000000000E+00  0.00000000000E+00  0.13700114229E+03  0.13700114229E+03  0.00000000000E+00 0.  1.
          1   -1    0    0  501    0  0.00000000000E+00 -0.00000000000E+00 -0.29466345276E+03  0.29466345276E+03  0.00000000000E+00 0. -1.
         25    2    1    2    0    0  0.28908865508E+02 -0.14751619014E+03  0.20759002557E+01  0.19557613371E+03  0.12509582670E+03 0.  0.
          5    1    3    3  502    0  0.20416080060E+02 -0.65513879825E+02  0.62788891248E+02  0.93106401707E+02  0.41800000000E+01 0. -1.
         -5    1    3    3    0  502  0.84927854479E+01 -0.82002310311E+02 -0.60712990992E+02  0.10246973200E+03  0.41800000000E+01 0. -1.
        -11    1    1    2    0    0 -0.57404594654E+02  0.93737188823E+02 -0.12317554133E+03  0.16508834616E+03  0.00000000000E+00 0. -1.
         11    1    1    2    0    0  0.28495729146E+02  0.53779001313E+02 -0.36562669399E+02  0.71000115178E+02  0.00000000000E+00 0.  1.
</event>
<event>
 7    1  0.2856214E-009  0.1015906E+03  0.7561462E-02  0.1276986E+00
          2   -1    0    0  501    0  0.00000000000E+00  0.00000000000E+00  0.55733523881E+02  0.55733523881E+02  0.00000000000E+00 0. -1.
         -2   -1    0    0    0  501 -0.00000000000E+00 -0.00000000000E+00 -0.23257597468E+03  0.23257597468E+03  0.00000000000E+00 0.  1.
         25    2    1    2    0    0 -0.22080410001E+02 -0.13759799163E+02 -0.82042282043E+02  0.15184136963E+03  0.12509192183E+03 0.  0.
          5    1    3    3  502    0 -0.49911160863E+02 -0.43317543265E+02 -0.88488662465E+02  0.11052261903E+03  0.41800000000E+01 0.  1.
         -5    1    3    3    0  502  0.27830750863E+02  0.29557744101E+02  0.64463804219E+01  0.41318750592E+02  0.41800000000E+01 0.  1.
        -11    1    1    2    0    0  0.48144892037E+02 -0.21147272001E+02 -0.37964900516E+02  0.64857315806E+02  0.00000000000E+00 0. -1.
         11    1    1    2    0    0 -0.26064482036E+02  0.34907071164E+02 -0.56835268242E+02  0.71610813131E+02  0.00000000000E+00 0.  1.
</event>
<event>
 7    1  0.3243645E-009  0.1776762E+03  0.7561462E-02  0.1170071E+00
         -2   -1    0    0    0  501 -0.00000000000E+00  0.00000000000E+00  0.27349210275E+02  0.27349210275E+02  0.00000000000E+00 0.  1.
          2   -1    0    0  501    0  0.00000000000E+00 -0.00000000000E+00 -0.15027092459E+04  0.15027092459E+04  0.00000000000E+00 0. -1.
         25    2    1    2    0    0  0.16039493881E+03  0.44115592021E+02 -0.62518526225E+03  0.65891960055E+03  0.12508279659E+03 0.  0.
          5    1    3    3  502    0  0.30117376085E+02  0.16136946611E+02 -0.36451979227E+03  0.36614151464E+03  0.41800000000E+01 0.  1.
         -5    1    3    3    0  502  0.13027756273E+03  0.27978645411E+02 -0.26066546998E+03  0.29277808591E+03  0.41800000000E+01 0.  1.
        -11    1    1    2    0    0 -0.71401328342E+02 -0.64608402911E+02 -0.36784427947E+03  0.38023914758E+03  0.00000000000E+00 0.  1.
         11    1    1    2    0    0 -0.88993610470E+02  0.20492810890E+02 -0.48233049390E+03  0.49089970803E+03  0.00000000000E+00 0. -1.
</event>
<event>
 7    1  0.2856214E-009  0.1100115E+03  0.7561462E-02  0.1260549E+00
          2   -1    0    0  501    0  0.00000000000E+00  0.00000000000E+00  0.10439121850E+04  0.10439121850E+04  0.00000000000E+00 0. -1.
         -2   -1    0    0    0  501 -0.00000000000E+00 -0.00000000000E+00 -0.16830426730E+02  0.16830426730E+02  0.00000000000E+00 0.  1.
         25    2    1    2    0    0 -0.55863581743E+02 -0.45196013007E+02  0.61496751949E+03  0.63166147814E+03  0.12509098123E+03 0.  0.
          5    1    3    3  502    0  0.17798336606E+02  0.28258922762E+02  0.82325503236E+02  0.88939914463E+02  0.41800000000E+01 0. -1.
         -5    1    3    3    0  502 -0.73661918349E+02 -0.73454935769E+02  0.53264201626E+03  0.54272156368E+03  0.41800000000E+01 0. -1.
        -11    1    1    2    0    0  0.11428405224E+02 -0.72353829202E+01  0.25177332893E+01  0.13758567981E+02  0.00000000000E+00 0.  1.
         11    1    1    2    0    0  0.44435176519E+02  0.52431395928E+02  0.40959650546E+03  0.41532256558E+03  0.00000000000E+00 0. -1.
</event>
<event>
 7    1  0.2856214E-009  0.9589292E+02  0.7561462E-02  0.1289178E+00
          2   -1    0    0  501    0  0.00000000000E+00  0.00000000000E+00  0.56202482370E+03  0.56202482370E+03  0.00000000000E+00 0. -1.
         -2   -1    0    0    0  501 -0.00000000000E+00 -0.00000000000E+00 -0.22375301575E+02  0.22375301575E+02  0.00000000000E+00 0.  1.
         25    2    1    2    0    0 -0.26570508293E+01 -0.11230171621E+02  0.38519900056E+03  0.40516518976E+03  0.12508950510E+03 0.  0.
          5    1    3    3  502    0  0.49318509904E+02 -0.10410818401E+02  0.74041480662E+02  0.89667796993E+02  0.41800000000E+01 0. -1.
         -5    1    3    3    0  502 -0.51975560734E+02 -0.81935322025E+00  0.31115751990E+03  0.31549739277E+03  0.41800000000E+01 0. -1.
        -11    1    1    2    0    0  0.28605152550E+02  0.40728936350E+02  0.10396455238E+03  0.11526373740E+03  0.00000000000E+00 0. -1.
         11    1    1    2    0    0 -0.25948101720E+02 -0.29498764729E+02  0.50485969185E+02  0.63971198113E+02  0.00000000000E+00 0.  1.
</event>
<event>
 7    1  0.2856214E-009  0.1154168E+03  0.7561462E-02  0.1250855E+00
         -1   -1    0    0    0  501 -0.00000000000E+00  0.00000000000E+00  0.54163414723E+03  0.54163414723E+03  0.00000000000E+00 0.  1.
          1   -1    0    0  501    0  0.00000000000E+00 -0.00000000000E+00 -0.40948390626E+02  0.40948390626E+02  0.00000000000E+00 0. -1.
         25    2    1    2    0    0  0.43397087444E+00  0.64033972525E+02  0.11715752864E+03  0.18295345182E+03  0.12508213721E+03 0.  0.
          5    1    3    3  502    0 -0.46522871983E+02  0.52214922102E+02  0.17706317084E+02  0.72261758713E+02  0.41800000000E+01 0. -1.
         -5    1    3    3    0  502  0.46956842857E+02  0.11819050423E+02  0.99451211554E+02  0.11069169311E+03  0.41800000000E+01 0. -1.
        -11    1    1    2    0    0  0.42943116177E+02 -0.51431866700E+02  0.21999288133E+03  0.22997003278E+03  0.00000000000E+00 0.  1.
         11    1    1    2    0    0 -0.43377087051E+02 -0.12602105825E+02  0.16353534663E+03  0.16965905325E+03  0.00000000000E+00 0. -1.
</event>
<event>
 7    1  0.2856214E-009  0.1119595E+03  0.7561462E-02  0.1256984E+00
          2   -1    0    0  501    0  0.00000000000E+00  0.00000000000E+00  0.12495680424E+03  0.12495680424E+03  0.00000000000E+00 0. -1.
         -2   -1    0    0    0  501 -0.00000000000E+00 -0.00000000000E+00 -0.13155741851E+03  0.13155741851E+03  0.00000000000E+00 0.  1.
         25    2    1    2    0    0  0.99152406408E+00 -0.44029251533E+02  0.48223740558E+02  0.14111037584E+03  0.12508817252E+03 0.  0.
          5    1    3    3  502    0 -0.41609801530E+02 -0.69486239602E+02  0.40706784787E+02  0.90742646011E+02  0.41800000000E+01 0.  1.
         -5    1    3    3    0  502  0.42601325595E+02  0.25456988068E+02  0.75169557710E+01  0.50367729828E+02  0.41800000000E+01 0.  1.
        -11    1    1    2    0    0 -0.41256513422E+02  0.26944207119E+02 -0.51900555248E+02  0.71566457451E+02  0.00000000000E+00 0.  1.
         11    1    1    2    0    0  0.40264989358E+02  0.17085044415E+02 -0.29237995762E+01  0.43837389459E+02  0.00000000000E+00 0. -1.
</event>
<event>
 7    1  0.2856214E-009  0.1091824E+03  0.7561462E-02  0.1262091E+00
          1   -1    0    0  501    0  0.00000000000E+00  0.00000000000E+00  0.82221022849E+02  0.82221022849E+02  0.00000000000E+00 0. -1.
         -1   -1    0    0    0  501 -0.00000000000E+00 -0.00000000000E+00 -0.17987636220E+03  0.17987636220E+03  0.00000000000E+00 0.  1.
         25    2    1    2    0    0  0.10127348357E+02  0.56120833000E+02 -0.35056766611E+02  0.14187391442E+03  0.12508844721E+03 0.  0.
          5    1    3    3  502    0 -0.55758813101E+02  0.27413851157E+02 -0.31521718904E+02  0.69797246625E+02  0.41800000000E+01 0.  1.
         -5    1    3    3    0  502  0.65886161459E+02  0.28706981843E+02 -0.35350477070E+01  0.72076667796E+02  0.41800000000E+01 0.  1.
        -11    1    1    2    0    0 -0.36189804016E+02 -0.27975525625E+02 -0.67514446164E+02  0.81550796376E+02  0.00000000000E+00 0.  1.
         11    1    1    2    0    0  0.26062455658E+02 -0.28145307375E+02  0.49158734257E+01  0.38672674251E+02  0.00000000000E+00 0. -1.
</event>
<event>
 7    1  0.2856214E-009  0.1630698E+03  0.7561462E-02  0.1185274E+00
          1   -1    0    0  501    0  0.00000000000E+00  0.00000000000E+00  0.93858411927E+03  0.93858411927E+03  0.00000000000E+00 0. -1.
         -1   -1    0    0    0  501 -0.00000000000E+00 -0.00000000000E+00 -0.31376114184E+02  0.31376114184E+02  0.00000000000E+00 0.  1.
         25    2    1    2    0    0 -0.78549460748E+02 -0.10461733042E+03  0.42548555534E+03  0.46238584475E+03  0.12509159849E+03 0.  0.
          5    1    3    3  502    0  0.18644311245E+02  0.13836285047E+02  0.29527861117E+02  0.37794445463E+02  0.41800000000E+01 0.  1.
         -5    1    3    3    0  502 -0.97193771993E+02 -0.11845361547E+03  0.39595769422E+03  0.42459139929E+03  0.41800000000E+01 0.  1.
        -11    1    1    2    0    0  0.39797252962E+02  0.10306694504E+03  0.26023356299E+03  0.28271562357E+03  0.00000000000E+00 0.  1.
         11    1    1    2    0    0  0.38752207786E+02  0.15503853891E+01  0.22148888675E+03  0.22485876514E+03  0.00000000000E+00 0. -1.
</event>
<event>
 7    1  0.2856214E-009  0.9577248E+02  0.7561462E-02  0.1289446E+00
          2   -1    0    0  501    0  0.00000000000E+00  0.00000000000E+00  0.16781166499E+04  0.16781166499E+04  0.00000000000E+00 0. -1.
         -2   -1    0    0    0  501 -0.00000000000E+00 -0.00000000000E+00 -0.15152563163E+02  0.15152563163E+02  0.00000000000E+00 0.  1.
         25    2    1    2    0    0 -0.27213938319E+02 -0.65485878652E+02  0.13773648992E+04  0.13848504384E+04  0.12509065709E+03 0.  0.
          5    1    3    3  502    0 -0.56332285614E+02 -0.40717405778E+02  0.35511979242E+03  0.36188226387E+03  0.41800000000E+01 0. -1.
         -5    1    3    3    0  502  0.29118347295E+02 -0.24768472874E+02  0.10222451068E+04  0.10229681745E+04  0.41800000000E+01 0. -1.
        -11    1    1    2    0    0  0.85818864986E+01  0.64210149826E+02  0.28206902718E+03  0.28941238434E+03  0.00000000000E+00 0. -1.
         11    1    1    2    0    0  0.18632051821E+02  0.12757288260E+01  0.35301603204E+01  0.19006390267E+02  0.00000000000E+00 0.  1.
</event>
<event>
 7    1  0.2856214E-009  0.1119376E+03  0.7561462E-02  0.1257023E+00
         -2   -1    0    0    0  501 -0.00000000000E+00  0.00000000000E+00  0.61261877586E+02  0.61261877586E+02  0.00000000000E+00 0.  1.
          2   -1    0    0  501    0  0.00000000000E+00 -0.00000000000E+00 -0.24861308245E+03  0.24861308245E+03  0.00000000000E+00 0. -1.
         25    2    1    2    0    0  0.40835526160E+02 -0.38836948829E+02 -0.82910395439E+02  0.16030416481E+03  0.12508973896E+03 0.  0.
          5    1    3    3  502    0  0.19543058206E+02 -0.81072144282E+02 -0.28829000973E+02  0.88335765122E+02  0.41800000000E+01 0. -1.
         -5    1    3    3    0  502  0.21292467954E+02  0.42235195454E+02 -0.54081394466E+02  0.71968399690E+02  0.41800000000E+01 0. -1.
        -11    1    1    2    0    0 -0.54218897003E+02  0.26198007105E+01 -0.95638330271E+02  0.10996927919E+03  0.00000000000E+00 0. -1.
         11    1    1    2    0    0  0.13383370843E+02  0.36217148118E+02 -0.88024791507E+01  0.39601516033E+02  0.00000000000E+00 0.  1.
</event>
<event>
 7    1  0.2856214E-009  0.1830786E+03  0.7561462E-02  0.1164856E+00
          2   -1    0    0  501    0  0.00000000000E+00  0.00000000000E+00  0.32831777325E+03  0.32831777325E+03  0.00000000000E+00 0. -1.
         -2   -1    0    0    0  501 -0.00000000000E+00 -0.00000000000E+00 -0.14946328677E+03  0.14946328677E+03  0.00000000000E+00 0.  1.
         25    2    1    2    0    0  0.16835616036E+03 -0.67564295841E+00 -0.11203763362E+02  0.21004425104E+03  0.12509520319E+03 0.  0.
          5    1    3    3  502    0  0.14386856796E+03 -0.25939318835E+02 -0.52723742091E+02  0.15546150163E+03  0.41800000000E+01 0.  1.
         -5    1    3    3    0  502  0.24487592396E+02  0.25263675877E+02  0.41519978729E+02  0.54582749416E+02  0.41800000000E+01 0.  1.
        -11    1    1    2    0    0 -0.84628678603E+02 -0.37369396799E+02  0.12305456139E+03  0.15395099914E+03  0.00000000000E+00 0. -1.
         11    1    1    2    0    0 -0.83727481753E+02  0.38045039757E+02  0.67003688455E+02  0.11378580982E+03  0.00000000000E+00 0.  1.
</event>
<event>
 7    1  0.2856214E-009  0.1562749E+03  0.7561462E-02  0.1192968E+00
         -2   -1    0    0    0  501 -0.00000000000E+00  0.00000000000E+00  0.32165586722E+03  0.32165586722E+03  0.00000000000E+00 0.  1.
          2   -1    0    0  501    0  0.00000000000E+00 -0.00000000000E+00 -0.10248478577E+03  0.10248478577E+03  0.00000000000E+00 0. -1.
         25    2    1    2    0    0  0.98702871112E+02 -0.89675605877E+02  0.48334738424E+02  0.18912389809E+03  0.12509049059E+03 0.  0.
          5    1    3    3  502    0  0.36628095020E+02  0.12052093760E+02  0.57686526385E+02  0.69513150087E+02  0.41800000000E+01 0. -1.
         -5    1    3    3    0  502  0.62074776092E+02 -0.10172769964E+03 -0.93517879603E+01  0.11961074801E+03  0.41800000000E+01 0. -1.
        -11    1    1    2    0    0 -0.21891998641E+02 -0.13629248028E+02  0.71244066885E+01  0.26753937597E+02  0.00000000000E+00 0. -1.
         11    1    1    2    0    0 -0.76810872471E+02  0.10330485391E+03  0.16371193634E+03  0.20826281730E+03  0.00000000000E+00 0.  1.
</event>
<event>
 7    1  0.2856214E-009  0.1487912E+03  0.7561462E-02  0.1201966E+00
          2   -1    0    0  501    0  0.00000000000E+00  0.00000000000E+00  0.48314344606E+03  0.48314344606E+03  0.00000000000E+00 0. -1.
         -2   -1    0    0    0  501 -0.00000000000E+00 -0.00000000000E+00 -0.60382574956E+02  0.60382574956E+02  0.00000000000E+00 0.  1.
         25    2    1    2    0    0 -0.15402855904E+01 -0.13143225895E+03  0.21735489310E+03  0.28313415911E+03  0.12507993974E+03 0.  0.
          5    1    3    3  502    0 -0.22349058242E+02 -0.75079771840E+02  0.26180524997E+02  0.82700331517E+02  0.41800000000E+01 0.  1.
         -5    1    3    3    0  502  0.20808772652E+02 -0.56352487113E+02  0.19117436810E+03  0.20043382759E+03  0.41800000000E+01 0.  1.
        -11    1    1    2    0    0  0.45268845774E+02  0.59948419399E+02  0.81820436632E+02  0.11107504327E+03  0.00000000000E+00 0. -1.
         11    1    1    2    0    0 -0.43728560183E+02  0.71483839553E+02  0.12358554138E+03  0.14931681864E+03  0.00000000000E+00 0.  1.
</event>
<event>
 7    1  0.2856214E-009  0.2942785E+03  0.7561462E-02  0.1088136E+00
          1   -1    0    0  501    0  0.00000000000E+00  0.00000000000E+00  0.68886698648E+03  0.68886698648E+03  0.00000000000E+00 0. -1.
         -1   -1    0    0    0  501 -0.00000000000E+00 -0.00000000000E+00 -0.15906891070E+03  0.15906891070E+03  0.00000000000E+00 0.  1.
         25    2    1    2    0    0  0.70566677868E+02  0.28184931390E+03  0.11580986530E+03  0.33686508376E+03  0.12508983967E+03 0.  0.
          5    1    3    3  502    0 -0.35365908734E+01  0.11214151770E+03  0.10104556271E+03  0.15104934826E+03  0.41800000000E+01 0.  1.
         -5    1    3    3    0  502  0.74103268741E+02  0.16970779620E+03  0.14764302585E+02  0.18581573550E+03  0.41800000000E+01 0.  1.
        -11    1    1    2    0    0 -0.44499087152E+02 -0.20889292851E+03  0.35252512354E+03  0.41217761592E+03  0.00000000000E+00 0. -1.
         11    1    1    2    0    0 -0.26067590717E+02 -0.72956385390E+02  0.61463086940E+02  0.98893197496E+02  0.00000000000E+00 0.  1.
</event>
<event>
 7    1  0.2856214E-009  0.1045798E+03  0.7561462E-02  0.1270950E+00
          1   -1    0    0  501    0  0.00000000000E+00  0.00000000000E+00  0.78511713856E+02  0.78511713856E+02  0.00000000000E+00 0. -1.
         -1   -1    0    0    0  501 -0.00000000000E+00 -0.00000000000E+00 -0.31777092335E+03  0.31777092335E+03  0.00000000000E+00 0.  1.
         25    2    1    2    0    0  0.41558615170E+02  0.71017811836E+02 -0.26911454742E+02  0.15211061924E+03  0.12507104379E+03 0.  0.
          5    1    3    3  502    0  0.43789943738E+02  0.71435815417E+02 -0.69693142913E+02  0.10906530826E+03  0.41800000000E+01 0.  1.
         -5    1    3    3    0  502 -0.22313285681E+01 -0.41800358120E+00  0.42781688172E+02  0.43045310976E+02  0.41800000000E+01 0.  1.
        -11    1    1    2    0    0 -0.59156885049E+02 -0.13935764259E+02 -0.10955035323E+03  0.12527977677E+03  0.00000000000E+00 0.  1.
         11    1    1    2    0    0  0.17598269879E+02 -0.57082047577E+02 -0.10279740153E+03  0.11889224121E+03  0.00000000000E+00 0. -1.
</event>
<event>
 7    1  0.2856214E-009  0.1560167E+03  0.7561462E-02  0.1193269E+00
          1   -1    0    0  501    0  0.00000000000E+00  0.00000000000E+00  0.88138055007E+03  0.88138055007E+03  0.00000000000E+00 0. -1.
         -1   -1    0    0    0  501 -0.00000000000E+00 -0.00000000000E+00 -0.38341305494E+02  0.38341305494E+02  0.00000000000E+00 0.  1.
         25    2    1    2    0    0 -0.13031941272E+03 -0.22036480312E+02  0.60096166573E+03  0.62791009979E+03  0.12508962367E+03 0.  0.
          5    1    3    3  502    0 -0.13298417355E+03 -0.17189841326E+01  0.58894683489E+03  0.60379101686E+03  0.41800000000E+01 0.  1.
         -5    1    3    3    0  502  0.26647608244E+01 -0.20317496179E+02  0.12014830840E+02  0.24119082929E+02  0.41800000000E+01 0.  1.
        -11    1    1    2    0    0  0.22262800010E+02  0.42596830729E+02  0.10923217814E+03  0.11933897516E+03  0.00000000000E+00 0. -1.
         11    1    1    2    0    0  0.10805661271E+03 -0.20560350417E+02  0.13284540071E+03  0.17247278060E+03  0.00000000000E+00 0.  1.
</event>
<event>
 7    1  0.2856214E-009  0.1023151E+03  0.7561462E-02  0.1275502E+00
         -1   -1    0    0    0  501 -0.00000000000E+00  0.00000000000E+00  0.82839387869E+03  0.82839387869E+03  0.00000000000E+00 0.  1.
          1   -1    0    0  501    0  0.00000000000E+00 -0.00000000000E+00 -0.14228790162E+02  0.14228790162E+02  0.00000000000E+00 0. -1.
         25    2    1    2    0    0  0.72000225203E+01 -0.29354589147E+02  0.58756063637E+03  0.60148852225E+03  0.12508960293E+03 0.  0.
          5    1    3    3  502    0 -0.47891939829E+02  0.17841753051E+02  0.16695478033E+03  0.17465204587E+03  0.41800000000E+01 0.  1.
         -5    1    3    3    0  502  0.55091962349E+02 -0.47196342198E+02  0.42060585604E+03  0.42683647638E+03  0.41800000000E+01 0.  1.
        -11    1    1    2    0    0 -0.37948776234E+02 -0.32760457653E+00  0.82189862581E+02  0.90528395840E+02  0.00000000000E+00 0. -1.
         11    1    1    2    0    0  0.30748753713E+02  0.29682193724E+02  0.14441458958E+03  0.15060575076E+03  0.00000000000E+00 0.  1.
</event>
<event>
 7    1  0.2856214E-009  0.1147410E+03  0.7561462E-02  0.1252034E+00
         -1   -1    0    0    0  501 -0.00000000000E+00  0.00000000000E+00  0.71204297155E+03  0.71204297155E+03  0.00000000000E+00 0.  1.
          1   -1    0    0  501    0  0.00000000000E+00 -0.00000000000E+00 -0.28003514604E+02  0.28003514604E+02  0.00000000000E+00 0. -1.
         25    2    1    2    0    0 -0.54895415640E+02  0.58254818348E+02  0.47960311586E+03  0.50206958682E+03  0.12509033035E+03 0.  0.
          5    1    3    3  502    0 -0.80516571520E+02  0.50642932442E+02  0.20380600982E+03  0.22494885404E+03  0.41800000000E+01 0. -1.
         -5    1    3    3    0  502  0.25621155880E+02  0.76118859064E+01  0.27579710605E+03  0.27712073279E+03  0.41800000000E+01 0. -1.
        -11    1    1    2    0    0  0.14116354278E+02  0.16713300145E+02  0.10355133657E+03  0.10583706896E+03  0.00000000000E+00 0.  1.
         11    1    1    2    0    0  0.40779061362E+02 -0.74968118493E+02  0.10088500452E+03  0.13213983038E+03  0.00000000000E+00 0. -1.
</event>
<event>
 7    1  0.2856214E-009  0.8754167E+02  0.7561462E-02  0.1308916E+00
          2   -1    0    0  501    0  0.00000000000E+00  0.00000000000E+00  0.58802265329E+02  0.58802265329E+02  0.00000000000E+00 0.  1.
         -2   -1    0    0    0  501 -0.00000000000E+00 -0.00000000000E+00 -0.29218307345E+03  0.29218307345E+03  0.00000000000E+00 0. -1.
         25    2    1    2    0    0  0.35883174578E+02 -0.12662009316E+02 -0.21476869936E+03  0.25144099594E+03  0.12509616907E+03 0.  0.
          5    1    3    3  502    0  0.32412727246E+02  0.47547849512E+02 -0.51493886995E+02  0.77333535279E+02  0.41800000000E+01 0. -1.
         -5    1    3    3    0  502  0.34704473320E+01 -0.60209858829E+02 -0.16327481237E+03  0.17410746066E+03  0.41800000000E+01 0. -1.
        -11    1    1    2    0    0 -0.26176698871E+02  0.28285505310E+02  0.29176716777E+02  0.48338082051E+02  0.00000000000E+00 0.  1.
         11    1    1    2    0    0 -0.97064757068E+01 -0.15623495994E+02 -0.47788825534E+02  0.51206260785E+02  0.00000000000E+00 0. -1.
</event>
<event>
 7    1  0.2856214E-009  0.1011908E+03  0.7561462E-02  0.1277812E+00
         -2   -1    0    0    0  501 -0.00000000000E+00  0.00000000000E+00  0.13941228349E+02  0.13941228349E+02  0.00000000000E+00 0.  1.
          2   -1    0    0  501    0  0.00000000000E+00 -0.00000000000E+00 -0.11340991766E+04  0.11340991766E+04  0.00000000000E+00 0. -1.
         25    2    1    2    0    0 -0.64017616764E+01 -0.34953970822E+02 -0.86660566711E+03  0.87630798252E+03  0.12509010881E+03 0.  0.
          5    1    3    3  502    0 -0.40550054319E+02  0.22737182947E+02 -0.16442904485E+03  0.17092591841E+03  0.41800000000E+01 0. -1.
         -5    1    3    3    0  502  0.34148292643E+02 -0.57691153769E+02 -0.70217662226E+03  0.70538206411E+03  0.41800000000E+01 0. -1.
        -11    1    1    2    0    0 -0.15518578548E+02  0.56021487491E+02 -0.10421237104E+03  0.11932917337E+03  0.00000000000E+00 0.  1.
         11    1    1    2    0    0  0.21920340225E+02 -0.21067516669E+02 -0.14933991009E+03  0.15240324905E+03  0.00000000000E+00 0. -1.
</event>
<event>
 7    1  0.2856214E-009  0.8090568E+02  0.7561462E-02  0.1326501E+00
         -1   -1    0    0    0  501 -0.00000000000E+00  0.00000000000E+00  0.14831225185E+02  0.14831225185E+02  0.00000000000E+00 0.  1.
          1   -1    0    0  501    0  0.00000000000E+00 -0.00000000000E+00 -0.10277706988E+04  0.10277706988E+04  0.00000000000E+00 0. -1.
         25    2    1    2    0    0  0.60243825276E+02 -0.23092498922E+02 -0.72182460438E+03  0.73541862874E+03  0.12508884053E+03 0.  0.
          5    1    3    3  502    0  0.57797188029E+02 -0.23425622466E+02 -0.72619890730E+03  0.72888380425E+03  0.41800000000E+01 0. -1.
         -5    1    3    3    0  502  0.24466372473E+01  0.33312354331E+00  0.43743029213E+01  0.65348244936E+01  0.41800000000E+01 0. -1.
        -11    1    1    2    0    0 -0.37224334190E+02  0.47864936484E+02 -0.14426246559E+03  0.15648757835E+03  0.00000000000E+00 0.  1.
         11    1    1    2    0    0 -0.23019491086E+02 -0.24772437561E+02 -0.14685240366E+03  0.15069571691E+03  0.00000000000E+00 0. -1.
</event>
<event>
 7    1  0.2856214E-009  0.2433172E+03  0.7561462E-02  0.1117603E+00
         -2   -1    0    0    0  501 -0.00000000000E+00  0.00000000000E+00  0.47045200391E+02  0.47045200391E+02  0.00000000000E+00 0. -1.
          2   -1    0    0  501    0  0.00000000000E+00 -0.00000000000E+00 -0.12833186642E+04  0.12833186642E+04  0.00000000000E+00 0.  1.
         25    2    1    2    0    0 -0.21990380486E+03 -0.63702790304E+01 -0.65371858982E+03  0.70099494847E+03  0.12509060424E+03 0.  0.
          5    1    3    3  502    0 -0.10763110656E+03  0.54488672371E+02 -0.38431016379E+03  0.40282160433E+03  0.41800000000E+01 0.  1.
         -5    1    3    3    0  502 -0.11227269830E+03 -0.60858951401E+02 -0.26940842602E+03  0.29817334415E+03  0.41800000000E+01 0.  1.
        -11    1    1    2    0    0  0.25082909948E+02 -0.30896207141E+02 -0.93007977269E+02  0.10116428136E+03  0.00000000000E+00 0.  1.
         11    1    1    2    0    0  0.19482089491E+03  0.37266486171E+02 -0.48954689670E+03  0.52820463473E+03  0.00000000000E+00 0. -1.
</event>
<event>
 7    1  0.2856214E-009  0.1311414E+03  0.7561462E-02  0.1225772E+00
          1   -1    0    0  501    0  0.00000000000E+00  0.00000000000E+00  0.42302872941E+03  0.42302872941E+03  0.00000000000E+00 0. -1.
         -1   -1    0    0    0  501 -0.00000000000E+00 -0.00000000000E+00 -0.46660161390E+02  0.46660161390E+02  0.00000000000E+00 0.  1.
         25    2    1    2    0    0 -0.83350557564E+02 -0.36224061250E+02  0.20542941017E+03  0.25711482495E+03  0.12508913856E+03 0.  0.
          5    1    3    3  502    0 -0.69485579548E+02  0.25010507544E+02  0.16882687510E+03  0.18431971519E+03  0.41800000000E+01 0.  1.
         -5    1    3    3    0  502 -0.13864978016E+02 -0.61234568794E+02  0.36602535074E+02  0.72795109757E+02  0.41800000000E+01 0.  1.
        -11    1    1    2    0    0  0.17690552096E+02  0.54447515528E+02  0.65053935779E+02  0.86657383650E+02  0.00000000000E+00 0. -1.
         11    1    1    2    0    0  0.65660005469E+02 -0.18223454278E+02  0.10588522207E+03  0.12591668220E+03  0.00000000000E+00 0.  1.
</event>
<event>
 7    1  0.2856214E-009  0.1286312E+03  0.7561462E-02  0.1229501E+00
          1   -1    0    0  501    0  0.00000000000E+00  0.00000000000E+00  0.68191484606E+02  0.68191484606E+02  0.00000000000E+00 0. -1.
         -1   -1    0    0    0  501 -0.00000000000E+00 -0.00000000000E+00 -0.27641796593E+03  0.27641796593E+03  0.00000000000E+00 0.  1.
         25    2    1    2    0    0  0.50583332083E+02  0.54548195232E+02 -0.64414872721E+02  0.15915837467E+03  0.12509169961E+03 0.  0.
          5    1    3    3  502    0 -0.22159415271E+01  0.84116500440E+02 -0.30093484299E+02  0.89462764547E+02  0.41800000000E+01 0. -1.
         -5    1    3    3    0  502  0.52799273610E+02 -0.29568305208E+02 -0.34321388422E+02  0.69695610119E+02  0.41800000000E+01 0. -1.
        -11    1    1    2    0    0  0.27799241854E+01  0.20267405451E+02 -0.91239019923E+01  0.22399582357E+02  0.00000000000E+00 0. -1.
         11    1    1    2    0    0 -0.53363256268E+02 -0.74815600683E+02 -0.13468770661E+03  0.16305149351E+03  0.00000000000E+00 0.  1.
</event>
<event>
 7    1  0.2856214E-009  0.1053940E+03  0.7561462E-02  0.1269345E+00
         -2   -1    0    0    0  501 -0.00000000000E+00  0.00000000000E+00  0.50283892266E+02  0.50283892266E+02  0.00000000000E+00 0.  1.
          2   -1    0    0  501    0  0.00000000000E+00 -0.00000000000E+00 -0.31501625497E+03  0.31501625497E+03  0.00000000000E+00 0. -1.
         25    2    1    2    0    0 -0.23294442049E+02  0.49713173328E+02 -0.19733971530E+03  0.24000967907E+03  0.12509057590E+03 0.  0.
          5    1    3    3  502    0  0.18993458557E+02  0.73973369353E+02 -0.16353057657E+03  0.18053402094E+03  0.41800000000E+01 0.  1.
         -5    1    3    3    0  502 -0.42287900606E+02 -0.24260196025E+02 -0.33809138731E+02  0.59475658135E+02  0.41800000000E+01 0.  1.
        -11    1    1    2    0    0  0.44382772531E+02 -0.46065673822E+02 -0.78431693099E+02  0.10120971932E+03  0.00000000000E+00 0. -1.
         11    1    1    2    0    0 -0.21088330482E+02 -0.36474995061E+01  0.11039045697E+02  0.24080748847E+02  0.00000000000E+00 0.  1.
</event>
<event>
 7    1  0.2856214E-009  0.1159623E+03  0.7561462E-02  0.1249911E+00
          3   -1    0    0  501    0  0.00000000000E+00  0.00000000000E+00  0.69936108894E+02  0.69936108894E+02  0.00000000000E+00 0. -1.
         -3   -1    0    0    0  501 -0.00000000000E+00 -0.00000000000E+00 -0.22919477295E+03  0.22919477295E+03  0.00000000000E+00 0.  1.
         25    2    1    2    0    0 -0.36992808920E+02  0.50760372323E+02 -0.10857182929E+03  0.17714714448E+03  0.12509270711E+03 0.  0.
          5    1    3    3  502    0 -0.77384500404E+02  0.53848159431E+02 -0.52945388831E+02  0.10820661614E+03  0.41800000000E+01 0.  1.
         -5    1    3    3    0  502  0.40391691484E+02 -0.30877871083E+01 -0.55626440455E+02  0.68940528341E+02  0.41800000000E+01 0.  1.
        -11    1    1    2    0    0  0.25193877152E+02 -0.69925236651E+02 -0.62004347633E+02  0.96792609697E+02  0.00000000000E+00 0.  1.
         11    1    1    2    0    0  0.11798931769E+02  0.19164864328E+02  0.11317512868E+02  0.25191127667E+02  0.00000000000E+00 0. -1.
</event>
<event>
 7    1  0.2856214E-009  0.1212518E+03  0.7561462E-02  0.1241046E+00
          1   -1    0    0  501    0  0.00000000000E+00  0.00000000000E+00  0.24492315690E+03  0.24492315690E+03  0.00000000000E+00 0. -1.
         -1   -1    0    0    0  501 -0.00000000000E+00 -0.00000000000E+00 -0.67935861074E+02  0.67935861074E+02  0.00000000000E+00 0.  1.
         25    2    1    2    0    0  0.43647879712E+02 -0.14129793361E+02  0.86981201438E+02  0.15911937829E+03  0.12509379953E+03 0.  0.
          5    1    3    3  502    0  0.53379377145E+02  0.38174423346E+02  0.82593283045E+02  0.10557351612E+03  0.41800000000E+01 0. -1.
         -5    1    3    3    0  502 -0.97314974330E+01 -0.52304216707E+02  0.43879183929E+01  0.53545862169E+02  0.41800000000E+01 0. -1.
        -11    1    1    2    0    0 -0.11187525384E+02 -0.50142597602E+02  0.48377164681E+02  0.70567633382E+02  0.00000000000E+00 0. -1.
         11    1    1    2    0    0 -0.32460354328E+02  0.64272390964E+02  0.41628929706E+02  0.83172006299E+02  0.00000000000E+00 0.  1.
</event>
<event>
 7    1  0.2856214E-009  0.1367052E+03  0.7561462E-02  0.1217832E+00
          2   -1    0    0  501    0  0.00000000000E+00  0.00000000000E+00  0.36981136221E+03  0.36981136221E+03  0.00000000000E+00 0. -1.
         -2   -1    0    0    0  501 -0.00000000000E+00 -0.00000000000E+00 -0.63904326795E+02  0.63904326795E+02  0.00000000000E+00 0.  1.
         25    2    1    2    0    0 -0.58183655212E+02  0.87984866715E+02  0.17491139582E+03  0.23951659854E+03  0.12509008787E+03 0.  0.
          5    1    3    3  502    0  0.28552749660E+02  0.68914367915E+02  0.78582655280E+02  0.10843041884E+03  0.41800000000E+01 0. -1.
         -5    1    3    3    0  502 -0.86736404872E+02  0.19070498800E+02  0.96328740537E+02  0.13108617970E+03  0.41800000000E+01 0. -1.
        -11    1    1    2    0    0  0.61500654018E+02 -0.78366689677E+02  0.14558969322E+03  0.17640869386E+03  0.00000000000E+00 0. -1.
         11    1    1    2    0    0 -0.33169988069E+01 -0.96181770372E+01 -0.14594053622E+02  0.17790396615E+02  0.00000000000E+00 0.  1.
</event>
<event>
 7    1  0.2856214E-009  0.1046481E+03  0.7561462E-02  0.1270815E+00
         -1   -1    0    0    0  501 -0.00000000000E+00  0.00000000000E+00  0.51185711120E+02  0.51185711120E+02  0.00000000000E+00 0.  1.
          1   -1    0    0  501    0  0.00000000000E+00 -0.00000000000E+00 -0.28858525571E+03  0.28858525571E+03  0.00000000000E+00 0. -1.
         25    2    1    2    0    0  0.19957414668E+02  0.48508948573E+02 -0.16533038858E+03  0.21385234084E+03  0.12508904749E+03 0.  0.
          5    1    3    3  502    0 -0.24695905576E+02 -0.33389990296E+02 -0.60025355618E+02  0.73111523861E+02  0.41800000000E+01 0. -1.
         -5    1    3    3    0  502  0.44653320244E+02  0.81898938869E+02 -0.10530503296E+03  0.14074081698E+03  0.41800000000E+01 0. -1.
        -11    1    1    2    0    0  0.18017357801E+02 -0.13287583148E+02 -0.70642403908E+02  0.74104887004E+02  0.00000000000E+00 0. -1.
         11    1    1    2    0    0 -0.37974772469E+02 -0.35221365425E+02 -0.14267521048E+01  0.51813738989E+02  0.00000000000E+00 0.  1.
</event>
<event>
 7    1  0.2856214E-009  0.1012384E+03  0.7561462E-02  0.1277713E+00
         -2   -1    0    0    0  501 -0.00000000000E+00  0.00000000000E+00  0.31890875731E+02  0.31890875731E+02  0.00000000000E+00 0. -1.
          2   -1    0    0  501    0  0.00000000000E+00 -0.00000000000E+00 -0.44822957510E+03  0.44822957510E+03  0.00000000000E+00 0.  1.
         25    2    1    2    0    0  0.49253117994E+01 -0.48124661034E+02 -0.21624576844E+03  0.25446777981E+03  0.12510546311E+03 0.  0.
          5    1    3    3  502    0 -0.48566525895E+02 -0.30883657921E+02 -0.17599230915E+03  0.18521142795E+03  0.41800000000E+01 0. -1.
         -5    1    3    3    0  502  0.53491837695E+02 -0.17241003114E+02 -0.40253459291E+02  0.69256351862E+02  0.41800000000E+01 0. -1.
        -11    1    1    2    0    0 -0.28043324169E+02 -0.67709059872E+01 -0.13230234591E+03  0.13541116620E+03  0.00000000000E+00 0.  1.
         11    1    1    2    0    0  0.23118012370E+02  0.54895567022E+02 -0.67790585018E+02  0.90241504817E+02  0.00000000000E+00 0. -1.
</event>
<event>
 7    1  0.2856214E-009  0.1163278E+03  0.7561462E-02  0.1249281E+00
         -2   -1    0    0    0  501 -0.00000000000E+00  0.00000000000E+00  0.21737463127E+03  0.21737463127E+03  0.00000000000E+00 0.  1.
          2   -1    0    0  501    0  0.00000000000E+00 -0.00000000000E+00 -0.10976956937E+03  0.10976956937E+03  0.00000000000E+00 0. -1.
         25    2    1    2    0    0 -0.10941609298E+02  0.10975625435E+03  0.56259069450E+02  0.17600711714E+03  0.12508904110E+03 0.  0.
          5    1    3    3  502    0 -0.24004064736E+02  0.10501689182E+03 -0.99144355186E+01  0.10826130945E+03  0.41800000000E+01 0. -1.
         -5    1    3    3    0  502  0.13062455438E+02  0.47393625315E+01  0.66173504969E+02  0.67745807687E+02  0.41800000000E+01 0. -1.
        -11    1    1    2    0    0  0.49837306023E+01 -0.36212303930E+02  0.66433014319E+02  0.75825549244E+02  0.00000000000E+00 0.  1.
         11    1    1    2    0    0  0.59578786958E+01 -0.73543950424E+02 -0.15087021868E+02  0.75311534252E+02  0.00000000000E+00 0. -1.
</event>
<event>
 7    1  0.2856214E-009  0.8867594E+02  0.7561462E-02  0.1306090E+00
         -1   -1    0    0    0  501 -0.00000000000E+00  0.00000000000E+00  0.91331509194E+02  0.91331509194E+02  0.00000000000E+00 0.  1.
          1   -1    0    0  501    0  0.00000000000E+00 -0.00000000000E+00 -0.18201585006E+03  0.18201585006E+03  0.00000000000E+00 0. -1.
         25    2    1    2    0    0  0.86767506261E+01  0.49417332112E+02  0.69630107147E+00  0.13478065116E+03  0.12509188773E+03 0.  0.
          5    1    3    3  502    0  0.41320708074E+02  0.52410273105E+02 -0.43367180261E+02  0.79702085083E+02  0.41800000000E+01 0.  1.
         -5    1    3    3    0  502 -0.32643957448E+02 -0.29929409937E+01  0.44063481332E+02  0.55078566074E+02  0.41800000000E+01 0.  1.
        -11    1    1    2    0    0 -0.32208391497E+02 -0.14484695650E+02 -0.89713858426E+02  0.96414538761E+02  0.00000000000E+00 0. -1.
         11    1    1    2    0    0  0.23531640871E+02 -0.34932636462E+02 -0.16667835100E+01  0.42152169333E+02  0.00000000000E+00 0.  1.
</event>
<event>
 7    1  0.2856214E-009  0.1477980E+03  0.7561462E-02  0.1203205E+00
         -2   -1    0    0    0  501 -0.00000000000E+00  0.00000000000E+00  0.84886703933E+02  0.84886703933E+02  0.00000000000E+00 0.  1.
          2   -1    0    0  501    0  0.00000000000E+00 -0.00000000000E+00 -0.27804584478E+03  0.27804584478E+03  0.00000000000E+00 0. -1.
         25    2    1    2    0    0  0.86647902313E+02 -0.48816501168E+02 -0.15303437682E+03  0.22125294895E+03  0.12506972924E+03 0.  0.
          5    1    3    3  502    0  0.70847678890E+01 -0.75363800917E+02 -0.72969302986E+02  0.10522303932E+03  0.41800000000E+01 0. -1.
         -5    1    3    3    0  502  0.79563134424E+02  0.26547299749E+02 -0.80065073830E+02  0.11602990964E+03  0.41800000000E+01 0. -1.
        -11    1    1    2    0    0 -0.33104930379E+02  0.70619066607E+02 -0.25348173661E+02  0.82009261013E+02  0.00000000000E+00 0.  1.
         11    1    1    2    0    0 -0.53542971934E+02 -0.21802565439E+02 -0.14776590374E+02  0.59670338748E+02  0.00000000000E+00 0. -1.
</event>
<event>
 7    1  0.2856214E-009  0.8968738E+02  0.7561462E-02  0.1303611E+00
          2   -1    0    0  501    0  0.00000000000E+00  0.00000000000E+00  0.25523517656E+03  0.25523517656E+03  0.00000000000E+00 0. -1.
         -2   -1    0    0    0  501 -0.00000000000E+00 -0.00000000000E+00 -0.53316984836E+02  0.53316984836E+02  0.00000000000E+00 0.  1.
         25    2    1    2    0    0  0.30732725210E+02 -0.32555982832E+02  0.11066829478E+03  0.17291124363E+03  0.12508570777E+03 0.  0.
          5    1    3    3  502    0 -0.58962090299E+01  0.31669364392E+02 -0.76095824390E+01  0.33363034437E+02  0.41800000000E+01 0.  1.
         -5    1    3    3    0  502  0.36628934240E+02 -0.64225347224E+02  0.11827787722E+03  0.13954820919E+03  0.41800000000E+01 0.  1.
        -11    1    1    2    0    0  0.28552370988E+01  0.38603316446E+02  0.93744461680E+02  0.10142185423E+03  0.00000000000E+00 0. -1.
         11    1    1    2    0    0 -0.33587962309E+02 -0.60473336142E+01 -0.24945647396E+01  0.34219063534E+02  0.00000000000E+00 0.  1.
</event>
<event>
 7    1  0.2856214E-009  0.1401421E+03  0.7561462E-02  0.1213138E+00
          1   -1    0    0  501    0  0.00000000000E+00  0.00000000000E+00  0.56530849459E+03  0.56530849459E+03  0.00000000000E+00 0. -1.
         -1   -1    0    0    0  501 -0.00000000000E+00 -0.00000000000E+00 -0.46986272436E+02  0.46986272436E+02  0.00000000000E+00 0.  1.
         25    2    1    2    0    0 -0.80846511947E+02  0.37937648230E+02  0.12327930957E+03  0.19702946540E+03  0.12508956159E+03 0.  0.
          5    1    3    3  502    0 -0.23397762252E+02 -0.45620223993E+02  0.32363308544E+02  0.60774305883E+02  0.41800000000E+01 0.  1.
         -5    1    3    3    0  502 -0.57448749695E+02  0.83557872223E+02  0.90916001025E+02  0.13625515951E+03  0.41800000000E+01 0.  1.
        -11    1    1    2    0    0  0.45547463953E+02 -0.67420507727E+02  0.23168813549E+03  0.24555954158E+03  0.00000000000E+00 0.  1.
         11    1    1    2    0    0  0.35299047994E+02  0.29482859497E+02  0.16335477709E+03  0.16970576004E+03  0.00000000000E+00 0. -1.
</event>
<event>
 7    1  0.2856214E-009  0.1097154E+03  0.7561462E-02  0.1261098E+00
         -3   -1    0    0    0  501 -0.00000000000E+00  0.00000000000E+00  0.72552748890E+02  0.72552748890E+02  0.00000000000E+00 0.  1.
          3   -1    0    0  501    0  0.00000000000E+00 -0.00000000000E+00 -0.30357344773E+03  0.30357344773E+03  0.00000000000E+00 0. -1.
         25    2    1    2    0    0  0.56199173643E+02 -0.83137118490E+02 -0.11744536351E+03  0.19877404419E+03  0.12509028598E+03 0.  0.
          5    1    3    3  502    0 -0.70390639437E+00 -0.16992944522E+02  0.25688395075E+02  0.31090540189E+02  0.41800000000E+01 0.  1.
         -5    1    3    3    0  502  0.56903080038E+02 -0.66144173968E+02 -0.14313375859E+03  0.16768350400E+03  0.41800000000E+01 0.  1.
        -11    1    1    2    0    0  0.18999980000E+01  0.45059095340E+02 -0.10489621241E+01  0.45111333242E+02  0.00000000000E+00 0.  1.
         11    1    1    2    0    0 -0.58099171643E+02  0.38078023150E+02 -0.11252637320E+03  0.13224081919E+03  0.00000000000E+00 0. -1.
</event>
<event>
 7    1  0.2856214E-009  0.9072810E+02  0.7561462E-02  0.1301098E+00
         -3   -1    0    0    0  501 -0.00000000000E+00  0.00000000000E+00  0.81908193357E+02  0.81908193357E+02  0.00000000000E+00 0.  1.
          3   -1    0    0  501    0  0.00000000000E+00 -0.00000000000E+00 -0.19165723144E+03  0.19165723144E+03  0.00000000000E+00 0. -1.
         25    2    1    2    0    0 -0.31311688329E+02  0.63916048142E+01 -0.23002641976E+01  0.12912800815E+03  0.12508987503E+03 0.  0.
          5    1    3    3  502    0  0.27199450764E+02 -0.22946098201E+01 -0.47242974092E+02  0.54721534675E+02  0.41800000000E+01 0.  1.
         -5    1    3    3    0  502 -0.58511139093E+02  0.86862146343E+01  0.44942709895E+02  0.74406473477E+02  0.41800000000E+01 0.  1.
        -11    1    1    2    0    0  0.58289547198E+02  0.14912205727E+02 -0.53753792085E+02  0.80681567633E+02  0.00000000000E+00 0.  1.
         11    1    1    2    0    0 -0.26977858868E+02 -0.21303810542E+02 -0.53694981804E+02  0.63755849015E+02  0.00000000000E+00 0. -1.
</event>
<event>
 7    1  0.2856214E-009  0.1786252E+03  0.7561462E-02  0.1169140E+00
          2   -1    0    0  501    0  0.00000000000E+00  0.00000000000E+00  0.38186613247E+03  0.38186613247E+03  0.00000000000E+00 0. -1.
         -2   -1    0    0    0  501 -0.00000000000E+00 -0.00000000000E+00 -0.11090299685E+03  0.11090299685E+03  0.00000000000E+00 0.  1.
         25    2    1    2    0    0  0.17113028593E+03  0.19750035445E+02  0.19065695152E+03  0.28578576787E+03  0.12509113993E+03 0.  0.
          5    1    3    3  502    0  0.13586594178E+03  0.14742947811E+01  0.58973574947E+02  0.14817922467E+03  0.41800000000E+01 0. -1.
         -5    1    3    3    0  502  0.35264344151E+02  0.18275740664E+02  0.13168337657E+03  0.13760654320E+03  0.41800000000E+01 0. -1.
        -11    1    1    2    0    0 -0.10026736366E+03 -0.39567953550E+02  0.78557138445E+02  0.13338062515E+03  0.00000000000E+00 0. -1.
         11    1    1    2    0    0 -0.70862922270E+02  0.19817918104E+02  0.17490456610E+01  0.73602736304E+02  0.00000000000E+00 0.  1.
</event>
<event>
 7    1  0.2856214E-009  0.1206762E+03  0.7561462E-02  0.1241986E+00
         -2   -1    0    0    0  501 -0.00000000000E+00  0.00000000000E+00  0.17861090301E+02  0.17861090301E+02  0.00000000000E+00 0.  1.
          2   -1    0    0  501    0  0.00000000000E+00 -0.00000000000E+00 -0.13925811136E+04  0.13925811136E+04  0.00000000000E+00 0. -1.
         25    2    1    2    0    0  0.35039362748E+02  0.10473471610E+03 -0.87244973396E+03  0.88826456403E+03  0.12509308425E+03 0.  0.
          5    1    3    3  502    0  0.70455083017E+01  0.30253701628E+02 -0.34801160223E+02  0.46835016839E+02  0.41800000000E+01 0.  1.
         -5    1    3    3    0  502  0.27993854447E+02  0.74481014475E+02 -0.83764857374E+03  0.84142954719E+03  0.41800000000E+01 0.  1.
        -11    1    1    2    0    0 -0.31235832782E+02 -0.11511422500E+03 -0.49445869873E+03  0.50864168802E+03  0.00000000000E+00 0. -1.
         11    1    1    2    0    0 -0.38035299664E+01  0.10379508894E+02 -0.78115906558E+01  0.13535951893E+02  0.00000000000E+00 0.  1.
</event>
<event>
 7    1  0.2856214E-009  0.2501058E+03  0.7561462E-02  0.1113238E+00
         -2   -1    0    0    0  501 -0.00000000000E+00  0.00000000000E+00  0.30390891328E+02  0.30390891328E+02  0.00000000000E+00 0. -1.
          2   -1    0    0  501    0  0.00000000000E+00 -0.00000000000E+00 -0.24932916899E+04  0.24932916899E+04  0.00000000000E+00 0.  1.
         25    2    1    2    0    0  0.22559829394E+03 -0.68972021871E+02 -0.16805776703E+04  0.17016582990E+04  0.12509168871E+03 0.  0.
          5    1    3    3  502    0  0.47816251666E+02  0.30091874585E+02 -0.23036679792E+03  0.23723037078E+03  0.41800000000E+01 0.  1.
         -5    1    3    3    0  502  0.17778204227E+03 -0.99063896456E+02 -0.14502108723E+04  0.14644279282E+04  0.41800000000E+01 0.  1.
        -11    1    1    2    0    0 -0.94123128527E+02  0.51716168386E+02 -0.22749732839E+03  0.25157257367E+03  0.00000000000E+00 0. -1.
         11    1    1    2    0    0 -0.13147516541E+03  0.17255853484E+02 -0.55482579994E+03  0.57045170862E+03  0.00000000000E+00 0.  1.
</event>
<event>
 7    1  0.2856214E-009  0.1706520E+03  0.7561462E-02  0.1177170E+00
          1   -1    0    0  501    0  0.00000000000E+00  0.00000000000E+00  0.48106651841E+03  0.48106651841E+03  0.00000000000E+00 0. -1.
         -1   -1    0    0    0  501 -0.00000000000E+00 -0.00000000000E+00 -0.67465449568E+02  0.67465449568E+02  0.00000000000E+00 0.  1.
         25    2    1    2    0    0 -0.83045400784E+02  0.11088083589E+03  0.18030311716E+03  0.25951555318E+03  0.12509200584E+03 0.  0.
          5    1    3    3  502    0 -0.49217841593E+02 -0.15703453633E+02  0.75996388178E+02  0.91988683017E+02  0.41800000000E+01 0.  1.
         -5    1    3    3    0  502 -0.33827559191E+02  0.12658428952E+03  0.10430672898E+03  0.16752687016E+03  0.41800000000E+01 0.  1.
        -11    1    1    2    0    0  0.91153602757E+02 -0.65414906076E+02  0.20806947030E+03  0.23639161090E+03  0.00000000000E+00 0. -1.
         11    1    1    2    0    0 -0.81082019731E+01 -0.45465929813E+02  0.25228481383E+02  0.52624803904E+02  0.00000000000E+00 0.  1.
</event>
<event>
 7    1  0.2856214E-009  0.1681347E+03  0.7561462E-02  0.1179807E+00
          1   -1    0    0  501    0  0.00000000000E+00  0.00000000000E+00  0.27127935468E+02  0.27127935468E+02  0.00000000000E+00 0. -1.
         -1   -1    0    0    0  501 -0.00000000000E+00 -0.00000000000E+00 -0.13479707054E+04  0.13479707054E+04  0.00000000000E+00 0.  1.
         25    2    1    2    0    0  0.14740223901E+03  0.53209476503E+02 -0.73161740586E+03  0.75859711270E+03  0.12508749890E+03 0.  0.
          5    1    3    3  502    0  0.14937746345E+03  0.32999540799E+02 -0.43277141543E+03  0.45903286014E+03  0.41800000000E+01 0.  1.
         -5    1    3    3    0  502 -0.19752244340E+01  0.20209935704E+02 -0.29884599043E+03  0.29956425255E+03  0.41800000000E+01 0.  1.
        -11    1    1    2    0    0 -0.12586907791E+03 -0.27271151150E+02 -0.54954305764E+03  0.56443273529E+03  0.00000000000E+00 0.  1.
         11    1    1    2    0    0 -0.21533161100E+02 -0.25938325354E+02 -0.39682306443E+02  0.52068792897E+02  0.00000000000E+00 0. -1.
</event>
<event>
 7    1  0.2856214E-009  0.1046183E+03  0.7561462E-02  0.1270874E+00
          2   -1    0    0  501    0  0.00000000000E+00  0.00000000000E+00  0.28513793742E+03  0.28513793742E+03  0.00000000000E+00 0. -1.
         -2   -1    0    0    0  501 -0.00000000000E+00 -0.00000000000E+00 -0.87282613710E+02  0.87282613710E+02  0.00000000000E+00 0.  1.
         25    2    1    2    0    0  0.50990523566E+02 -0.25814316774E+02 -0.11144241263E+02  0.13797272070E+03  0.12508343256E+03 0.  0.
          5    1    3    3  502    0  0.65349687916E+02 -0.57201788331E+02  0.22265112923E+02  0.89754297683E+02  0.41800000000E+01 0.  1.
         -5    1    3    3    0  502 -0.14359164350E+02  0.31387471557E+02 -0.33409354186E+02  0.48218423022E+02  0.41800000000E+01 0.  1.
        -11    1    1    2    0    0 -0.44111707380E+02 -0.14645265934E+02  0.42553667886E+02  0.63016991302E+02  0.00000000000E+00 0.  1.
         11    1    1    2    0    0 -0.68788161865E+01  0.40459582708E+02  0.16644589709E+03  0.17143083912E+03  0.00000000000E+00 0. -1.
</event>
<event>
 7    1  0.2856214E-009  0.1102357E+03  0.7561462E-02  0.1260134E+00
         -2   -1    0    0    0  501 -0.00000000000E+00  0.00000000000E+00  0.95505045331E+02  0.95505045331E+02  0.00000000000E+00 0.  1.
          2   -1    0    0  501    0  0.00000000000E+00 -0.00000000000E+00 -0.28256431419E+03  0.28256431419E+03  0.00000000000E+00 0. -1.
         25    2    1    2    0    0  0.72310371420E+02 -0.45884258682E+02 -0.19987729407E+03  0.25086323988E+03  0.12508907798E+03 0.  0.
          5    1    3    3  502    0 -0.75871536887E+01 -0.49122938060E+02 -0.19582054835E+02  0.53586912734E+02  0.41800000000E+01 0. -1.
         -5    1    3    3    0  502  0.79897525109E+02  0.32386793776E+01 -0.18029523923E+03  0.19727632715E+03  0.41800000000E+01 0. -1.
        -11    1    1    2    0    0 -0.32103124017E+02  0.37646215534E+02 -0.37638387705E+02  0.62165073351E+02  0.00000000000E+00 0. -1.
         11    1    1    2    0    0 -0.40207247403E+02  0.82380431488E+01  0.50456412913E+02  0.65041046292E+02  0.00000000000E+00 0.  1.
</event>
<event>
 7    1  0.2856214E-009  0.1508755E+03  0.7561462E-02  0.1199401E+00
          1   -1    0    0  501    0  0.00000000000E+00  0.00000000000E+00  0.23288299629E+03  0.23288299629E+03  0.00000000000E+00 0. -1.
         -1   -1    0    0    0  501 -0.00000000000E+00 -0.00000000000E+00 -0.10295088950E+03  0.10295088950E+03  0.00000000000E+00 0.  1.
         25    2    1    2    0    0  0.32335519238E+01  0.11429112715E+03  0.66035785564E+02  0.18188236756E+03  0.12509017968E+03 0.  0.
          5    1    3    3  502    0 -0.54608545406E+02  0.83144561835E+02  0.58873342796E+02  0.11566613284E+03  0.41800000000E+01 0. -1.
         -5    1    3    3    0  502  0.57842097330E+02  0.31146565316E+02  0.71624427681E+01  0.66216234723E+02  0.41800000000E+01 0. -1.
        -11    1    1    2    0    0  0.21352832854E+02 -0.10918117389E+03  0.64942946803E+02  0.12881792788E+03  0.00000000000E+00 0. -1.
         11    1    1    2    0    0 -0.24586384778E+02 -0.51099532584E+01 -0.10466255789E+01  0.25133590350E+02  0.00000000000E+00 0.  1.
</event>
<event>
 7    1  0.2856214E-009  0.1156603E+03  0.7561462E-02  0.1250433E+00
         -3   -1    0    0    0  501 -0.00000000000E+00  0.00000000000E+00  0.15662476805E+02  0.15662476805E+02  0.00000000000E+00 0.  1.
          3   -1    0    0  501    0  0.00000000000E+00 -0.00000000000E+00 -0.11233519482E+04  0.11233519482E+04  0.00000000000E+00 0. -1.
         25    2    1    2    0    0 -0.47078699792E+02 -0.57296957128E+02 -0.72736574546E+03  0.74176159784E+03  0.12509994043E+03 0.  0.
          5    1    3    3  502    0  0.13416522979E+02 -0.65696185383E+02 -0.20285700943E+03  0.21369237361E+03  0.41800000000E+01 0.  1.
         -5    1    3    3    0  502 -0.60495222771E+02  0.83992282553E+01 -0.52450873603E+03  0.52806922423E+03  0.41800000000E+01 0.  1.
        -11    1    1    2    0    0  0.43679056815E+02 -0.18086713506E+01 -0.25411700468E+03  0.25784992411E+03  0.00000000000E+00 0. -1.
         11    1    1    2    0    0  0.33996429769E+01  0.59105628479E+02 -0.12620672128E+03  0.13940290308E+03  0.00000000000E+00 0.  1.
</event>
<event>
 7    1  0.2856214E-009  0.5990188E+02  0.7561462E-02  0.1398244E+00
          1   -1    0    0  501    0  0.00000000000E+00  0.00000000000E+00  0.92941628543E+02  0.92941628543E+02  0.00000000000E+00 0. -1.
         -1   -1    0    0    0  501 -0.00000000000E+00 -0.00000000000E+00 -0.16894830146E+03  0.16894830146E+03  0.00000000000E+00 0.  1.
         25    2    1    2    0    0  0.18165525087E+02  0.71167322116E+01 -0.10648758532E+03  0.16543404079E+03  0.12509269301E+03 0.  0.
          5    1    3    3  502    0  0.29678910192E+02  0.26580211767E+02 -0.12789080766E+03  0.13401819448E+03  0.41800000000E+01 0.  1.
         -5    1    3    3    0  502 -0.11513385105E+02 -0.19463479556E+02  0.21403222337E+02  0.31415846310E+02  0.41800000000E+01 0.  1.
        -11    1    1    2    0    0  0.94553438161E+01 -0.23011869684E+02 -0.23206987991E+02  0.34022256901E+02  0.00000000000E+00 0.  1.
         11    1    1    2    0    0 -0.27620868903E+02  0.15895137472E+02  0.53687900399E+02  0.62433632310E+02  0.00000000000E+00 0. -1.
</event>
<event>
 7    1  0.2856214E-009  0.1076086E+03  0.7561462E-02  0.1265063E+00
          1   -1    0    0  501    0  0.00000000000E+00  0.00000000000E+00  0.76276493332E+02  0.76276493332E+02  0.00000000000E+00 0. -1.
         -1   -1    0    0    0  501 -0.00000000000E+00 -0.00000000000E+00 -0.27492501613E+03  0.27492501613E+03  0.00000000000E+00 0.  1.
         25    2    1    2    0    0 -0.23757106356E+02  0.66110811254E+02 -0.18960109042E+03  0.23776146379E+03  0.12508757215E+03 0.  0.
          5    1    3    3  502    0 -0.46280716739E+02  0.93303642032E+02 -0.11555530685E+03  0.15562125722E+03  0.41800000000E+01 0.  1.
         -5    1    3    3    0  502  0.22523610382E+02 -0.27192830778E+02 -0.74045783568E+02  0.82140206565E+02  0.41800000000E+01 0.  1.
        -11    1    1    2    0    0 -0.48307991080E+00 -0.39218260771E+02  0.37639249586E+02  0.54360081434E+02  0.00000000000E+00 0. -1.
         11    1    1    2    0    0  0.24240186267E+02 -0.26892550483E+02 -0.46686681970E+02  0.59079964244E+02  0.00000000000E+00 0.  1.
</event>
<event>
 7    1  0.2856214E-009  0.1153385E+03  0.7561462E-02  0.1250991E+00
          2   -1    0    0  501    0  0.00000000000E+00  0.00000000000E+00  0.10335598735E+03  0.10335598735E+03  0.00000000000E+00 0. -1.
         -2   -1    0    0    0  501 -0.00000000000E+00 -0.00000000000E+00 -0.14575824036E+03  0.14575824036E+03  0.00000000000E+00 0.  1.
         25    2    1    2    0    0  0.46540317068E+02  0.10975670746E+02  0.86667083402E+01  0.13419286655E+03  0.12508455995E+03 0.  0.
          5    1    3    3  502    0 -0.50694062075E+01 -0.51822441681E+02  0.76509974230E+01  0.52794644639E+02  0.41800000000E+01 0. -1.
         -5    1    3    3    0  502  0.51609723276E+02  0.62798112427E+02  0.10157109172E+01  0.81398221907E+02  0.41800000000E+01 0. -1.
        -11    1    1    2    0    0 -0.57796338936E+02  0.22277578065E+02 -0.50323126154E+02  0.79806793601E+02  0.00000000000E+00 0.  1.
         11    1    1    2    0    0  0.11256021868E+02 -0.33253248811E+02 -0.74583519224E+00  0.35114567560E+02  0.00000000000E+00 0. -1.
</event>
<event>
 7    1  0.2856214E-009  0.1111389E+03  0.7561462E-02  0.1258475E+00
         -1   -1    0    0    0  501 -0.00000000000E+00  0.00000000000E+00  0.51298281783E+03  0.51298281783E+03  0.00000000000E+00 0. -1.
          1   -1    0    0  501    0  0.00000000000E+00 -0.00000000000E+00 -0.61103686112E+02  0.61103686112E+02  0.00000000000E+00 0.  1.
         25    2    1    2    0    0  0.69574779960E+02  0.63781275228E+02  0.40567462496E+03  0.43488918255E+03  0.12509196090E+03 0.  0.
          5    1    3    3  502    0  0.81774846047E+01  0.97014220764E+01  0.30410077009E+03  0.30439405318E+03  0.41800000000E+01 0. -1.
         -5    1    3    3    0  502  0.61397295355E+02  0.54079853152E+02  0.10157385488E+03  0.13049512937E+03  0.41800000000E+01 0. -1.
        -11    1    1    2    0    0 -0.58943435602E+02  0.33377129896E+01  0.39232575193E+02  0.70884863580E+02  0.00000000000E+00 0.  1.
         11    1    1    2    0    0 -0.10631344358E+02 -0.67118988218E+02  0.69719315567E+01  0.68312457809E+02  0.00000000000E+00 0. -1.
</event>
<event>
 7    1  0.2856214E-009  0.1330829E+03  0.7561462E-02  0.1222952E+00
         -2   -1    0    0    0  501 -0.00000000000E+00  0.00000000000E+00  0.32520190582E+02  0.32520190582E+02  0.00000000000E+00 0.  1.
          2   -1    0    0  501    0  0.00000000000E+00 -0.00000000000E+00 -0.75560154512E+03  0.75560154512E+03  0.00000000000E+00 0. -1.
         25    2    1    2    0    0  0.40671892481E+02 -0.72140913509E+02 -0.19519481693E+03  0.24618498541E+03  0.12509003255E+03 0.  0.
          5    1    3    3  502    0  0.81007856737E+02 -0.61687771252E+02 -0.16721166519E+03  0.19581845509E+03  0.41800000000E+01 0.  1.
         -5    1    3    3    0  502 -0.40335964256E+02 -0.10453142257E+02 -0.27983151740E+02  0.50366530324E+02  0.41800000000E+01 0.  1.
        -11    1    1    2    0    0  0.21390065002E+02  0.53441130183E+02 -0.26458991134E+03  0.27077908054E+03  0.00000000000E+00 0.  1.
         11    1    1    2    0    0 -0.62061957483E+02  0.18699783326E+02 -0.26329662627E+03  0.27115766976E+03  0.00000000000E+00 0. -1.
</event>
<event>
 7    1  0.2856214E-009  0.1856402E+03  0.7561462E-02  0.1162453E+00
         -2   -1    0    0    0  501 -0.00000000000E+00  0.00000000000E+00  0.61121861662E+02  0.61121861662E+02  0.00000000000E+00 0.  1.
          2   -1    0    0  501    0  0.00000000000E+00 -0.00000000000E+00 -0.62247898630E+03  0.62247898630E+03  0.00000000000E+00 0. -1.
         25    2    1    2    0    0 -0.10332252762E+03  0.12491868590E+03 -0.26005607248E+03  0.33099284041E+03  0.12508747645E+03 0.  0.
          5    1    3    3  502    0 -0.10322238121E+03  0.42990494480E+02 -0.95442270724E+02  0.14707053423E+03  0.41800000000E+01 0.  1.
         -5    1    3    3    0  502 -0.10014641164E+00  0.81928191421E+02 -0.16461380176E+03  0.18392230617E+03  0.41800000000E+01 0.  1.
        -11    1    1    2    0    0  0.22607569034E+02 -0.83740145046E+02 -0.10349894718E+03  0.13503905412E+03  0.00000000000E+00 0. -1.
         11    1    1    2    0    0  0.80714958590E+02 -0.41178540855E+02 -0.19780210498E+03  0.21756895344E+03  0.00000000000E+00 0.  1.
</event>
<event>
 7    1  0.2856214E-009  0.1220407E+03  0.7561462E-02  0.1239768E+00
          2   -1    0    0  501    0  0.00000000000E+00  0.00000000000E+00  0.75806969795E+03  0.75806969795E+03  0.00000000000E+00 0. -1.
         -2   -1    0    0    0  501 -0.00000000000E+00 -0.00000000000E+00 -0.33342117009E+02  0.33342117009E+02  0.00000000000E+00 0.  1.
         25    2    1    2    0    0 -0.68812809575E+02 -0.61229999553E+01  0.62188701406E+03  0.63809359007E+03  0.12508907845E+03 0.  0.
          5    1    3    3  502    0  0.14672807270E+02  0.42669338800E+02  0.16820781092E+03  0.17420477549E+03  0.41800000000E+01 0. -1.
         -5    1    3    3    0  502 -0.83485616845E+02 -0.48792338755E+02  0.45367920313E+03  0.46388881458E+03  0.41800000000E+01 0. -1.
        -11    1    1    2    0    0  0.85281785562E+02  0.40350679286E+01  0.52303768707E+02  0.10012466700E+03  0.00000000000E+00 0.  1.
         11    1    1    2    0    0 -0.16468975987E+02  0.20879320268E+01  0.50536798181E+02  0.53193557887E+02  0.00000000000E+00 0. -1.
</event>
<event>
 7    1  0.2856214E-009  0.9984869E+02  0.7561462E-02  0.1280614E+00
         -1   -1    0    0    0  501 -0.00000000000E+00  0.00000000000E+00  0.27582676713E+02  0.27582676713E+02  0.00000000000E+00 0.  1.
          1   -1    0    0  501    0  0.00000000000E+00 -0.00000000000E+00 -0.41132282416E+03  0.41132282416E+03  0.00000000000E+00 0. -1.
         25    2    1    2    0    0  0.19361540814E+01 -0.23688941673E+01 -0.28269419950E+03  0.30914640513E+03  0.12508448753E+03 0.  0.
          5    1    3    3  502    0 -0.58237250571E+02  0.75435670230E+01 -0.18267053224E+03  0.19192310571E+03  0.41800000000E+01 0.  1.
         -5    1    3    3    0  502  0.60173404653E+02 -0.99124611903E+01 -0.10002366727E+03  0.11722329942E+03  0.41800000000E+01 0.  1.
        -11    1    1    2    0    0  0.32863878124E+02  0.22184980822E+02 -0.37055968849E+02  0.54271103607E+02  0.00000000000E+00 0.  1.
         11    1    1    2    0    0 -0.34800032205E+02 -0.19816086654E+02 -0.63989979100E+02  0.75487992138E+02  0.00000000000E+00 0. -1.
</event>
<event>
 7    1  0.2856214E-009  0.1112557E+03  0.7561462E-02  0.1258262E+00
         -1   -1    0    0    0  501 -0.00000000000E+00  0.00000000000E+00  0.92114452524E+03  0.92114452524E+03  0.00000000000E+00 0.  1.
          1   -1    0    0  501    0  0.00000000000E+00 -0.00000000000E+00 -0.16685267580E+02  0.16685267580E+02  0.00000000000E+00 0. -1.
         25    2    1    2    0    0  0.24015060509E+02  0.54834052205E+02  0.51318786096E+03  0.53159382534E+03  0.12508684219E+03 0.  0.
          5    1    3    3  502    0  0.23108747991E+02 -0.30156732480E+02  0.29386473015E+03  0.29633999860E+03  0.41800000000E+01 0. -1.
         -5    1    3    3    0  502  0.90631251814E+00  0.84990784685E+02  0.21932313081E+03  0.23525382673E+03  0.41800000000E+01 0. -1.
        -11    1    1    2    0    0 -0.13658351808E+02  0.19683122124E+02  0.37107406516E+02  0.44169395388E+02  0.00000000000E+00 0.  1.
         11    1    1    2    0    0 -0.10356708701E+02 -0.74517174329E+02  0.35416399019E+03  0.36206657210E+03  0.00000000000E+00 0. -1.
</event>
<event>
 7    1  0.2856214E-009  0.1942590E+03  0.7561462E-02  0.1154675E+00
         -2   -1    0    0    0  501 -0.00000000000E+00  0.00000000000E+00  0.11712874408E+03  0.11712874408E+03  0.00000000000E+00 0. -1.
          2   -1    0    0  501    0  0.00000000000E+00 -0.00000000000E+00 -0.38917634227E+03  0.38917634227E+03  0.00000000000E+00 0.  1.
         25    2    1    2    0    0  0.17082377520E+03 -0.54958647188E+02 -0.95128316961E+02  0.23853412422E+03  0.12509163303E+03 0.  0.
          5    1    3    3  502    0  0.91334960335E+02  0.26070421152E+02 -0.80579696241E+01  0.95415643963E+02  0.41800000000E+01 0.  1.
         -5    1    3    3    0  502  0.79488814863E+02 -0.81029068341E+02 -0.87070347337E+02  0.14311848025E+03  0.41800000000E+01 0.  1.
        -11    1    1    2    0    0 -0.11566361666E+03  0.31194206897E+02 -0.16905407705E+03  0.20719660164E+03  0.00000000000E+00 0.  1.
         11    1    1    2    0    0 -0.55160158537E+02  0.23764440292E+02 -0.78652041785E+01  0.60574360491E+02  0.00000000000E+00 0. -1.
</event>
<event>
 7    1  0.2856214E-009  0.1604826E+03  0.7561462E-02  0.1188153E+00
         -1   -1    0    0    0  501 -0.00000000000E+00  0.00000000000E+00  0.63850050109E+02  0.63850050109E+02  0.00000000000E+00 0.  1.
          1   -1    0    0  501    0  0.00000000000E+00 -0.00000000000E+00 -0.81098263285E+03  0.81098263285E+03  0.00000000000E+00 0. -1.
         25    2    1    2    0    0  0.25205525737E+02  0.11995473793E+03 -0.68960149298E+03  0.71149068415E+03  0.12507724345E+03 0.  0.
          5    1    3    3  502    0  0.72914293459E+02  0.92933588563E+02 -0.51710757252E+03  0.53044402158E+03  0.41800000000E+01 0.  1.
         -5    1    3    3    0  502 -0.47708767723E+02  0.27021149366E+02 -0.17249392046E+03  0.18104666256E+03  0.41800000000E+01 0.  1.
        -11    1    1    2    0    0 -0.52648896098E+02 -0.10256894428E+03 -0.26249347089E+02  0.11824264380E+03  0.00000000000E+00 0.  1.
         11    1    1    2    0    0  0.27443370361E+02 -0.17385793649E+02 -0.31281742675E+02  0.45099355010E+02  0.00000000000E+00 0. -1.
</event>
<event>
 7    1  0.2856214E-009  0.1431934E+03  0.7561462E-02  0.1209095E+00
         -2   -1    0    0    0  501 -0.00000000000E+00  0.00000000000E+00  0.49357456616E+02  0.49357456616E+02  0.00000000000E+00 0.  1.
          2   -1    0    0  501    0  0.00000000000E+00 -0.00000000000E+00 -0.80358762284E+03  0.80358762284E+03  0.00000000000E+00 0. -1.
         25    2    1    2    0    0 -0.82982139136E+02  0.84315827980E+02 -0.14310243917E+03  0.22387659153E+03  0.12508887191E+03 0.  0.
          5    1    3    3  502    0 -0.13394606575E+02 -0.12335105197E+02  0.16340495523E+02  0.24820445191E+02  0.41800000000E+01 0.  1.
         -5    1    3    3    0  502 -0.69587532561E+02  0.96650933177E+02 -0.15944293470E+03  0.19905614634E+03  0.41800000000E+01 0.  1.
        -11    1    1    2    0    0  0.39513350638E+02  0.13288997736E+02 -0.19861824030E+03  0.20294607096E+03  0.00000000000E+00 0. -1.
         11    1    1    2    0    0  0.43468788498E+02 -0.97604825716E+02 -0.41250948675E+03  0.42612241696E+03  0.00000000000E+00 0.  1.
</event>
<event>
 7    1  0.2856214E-009  0.1347016E+03  0.7561462E-02  0.1220642E+00
          4   -1    0    0  501    0  0.00000000000E+00  0.00000000000E+00  0.81695762248E+02  0.81695762248E+02  0.00000000000E+00 0. -1.
         -4   -1    0    0    0  501 -0.00000000000E+00 -0.00000000000E+00 -0.36568957851E+03  0.36568957851E+03  0.00000000000E+00 0.  1.
         25    2    1    2    0    0  0.13094174494E+03  0.10001619260E+02 -0.19185594402E+03  0.26401366967E+03  0.12509493021E+03 0.  0.
          5    1    3    3  502    0  0.68965983566E+02  0.11737812809E+02 -0.18925962297E+03  0.20181863250E+03  0.41800000000E+01 0. -1.
         -5    1    3    3    0  502  0.61975761376E+02 -0.17361935494E+01 -0.25963210511E+01  0.62195037175E+02  0.41800000000E+01 0. -1.
        -11    1    1    2    0    0 -0.10567540649E+03  0.82708147972E+01 -0.10540482286E+03  0.14948536582E+03  0.00000000000E+00 0.  1.
         11    1    1    2    0    0 -0.25266338453E+02 -0.18272434057E+02  0.13266950617E+02  0.33886305256E+02  0.00000000000E+00 0. -1.
</event>
<event>
 7    1  0.2856214E-009  0.1047362E+03  0.7561462E-02  0.1270640E+00
         -2   -1    0    0    0  501 -0.00000000000E+00  0.00000000000E+00  0.14389367510E+02  0.14389367510E+02  0.00000000000E+00 0.  1.
          2   -1    0    0  501    0  0.00000000000E+00 -0.00000000000E+00 -0.88723706519E+03  0.88723706519E+03  0.00000000000E+00 0. -1.
         25    2    1    2    0    0  0.17239512101E+02  0.11962927369E+01 -0.57361435179E+03  0.58734857739E+03  0.12508515058E+03 0.  0.
          5    1    3    3  502    0  0.41516288653E+02  0.53432291379E+02 -0.34082056194E+03  0.34749782708E+03  0.41800000000E+01 0.  1.
         -5    1    3    3    0  502 -0.24276776552E+02 -0.52235998642E+02 -0.23279378985E+03  0.23985075031E+03  0.41800000000E+01 0.  1.
        -11    1    1    2    0    0 -0.37563928195E+02  0.29048518072E+02 -0.88667448028E+02  0.10058221236E+03  0.00000000000E+00 0.  1.
         11    1    1    2    0    0  0.20324416094E+02 -0.30244810809E+02 -0.21056589786E+03  0.21369564294E+03  0.00000000000E+00 0. -1.
</event>
<event>
 7    1  0.2856214E-009  0.1026725E+03  0.7561462E-02  0.1274774E+00
          2   -1    0    0  501    0  0.00000000000E+00  0.00000000000E+00  0.12386301095E+03  0.12386301095E+03  0.00000000000E+00 0. -1.
         -2   -1    0    0    0  501 -0.00000000000E+00 -0.00000000000E+00 -0.10857228986E+03  0.10857228986E+03  0.00000000000E+00 0.  1.
         25    2    1    2    0    0  0.48366853940E+01 -0.39858650750E+02  0.17582671115E+02  0.13254978704E+03  0.12509272623E+03 0.  0.
          5    1    3    3  502    0 -0.36279165549E+02  0.24830061692E+02  0.31880749838E+02  0.54466176906E+02  0.41800000000E+01 0.  1.
         -5    1    3    3    0  502  0.41115850943E+02 -0.64688712442E+02 -0.14298078723E+02  0.78083610133E+02  0.41800000000E+01 0.  1.
        -11    1    1    2    0    0  0.10112391249E+02 -0.20167661654E+02 -0.25288428054E+02  0.33889520900E+02  0.00000000000E+00 0.  1.
         11    1    1    2    0    0 -0.14949076643E+02  0.60026312404E+02  0.22996478031E+02  0.65995992872E+02  0.00000000000E+00 0. -1.
</event>
<event>
 7    1  0.2856214E-009  0.1078538E+03  0.7561462E-02  0.1264597E+00
          1   -1    0    0  501    0  0.00000000000E+00  0.00000000000E+00  0.13234395738E+02  0.13234395738E+02  0.00000000000E+00 0. -1.
         -1   -1    0    0    0  501 -0.00000000000E+00 -0.00000000000E+00 -0.11493334086E+04  0.11493334086E+04  0.00000000000E+00 0.  1.
         25    2    1    2    0    0 -0.15132187402E+02 -0.20325109797E+02 -0.86411069560E+03  0.87348550455E+03  0.12509012440E+03 0.  0.
          5    1    3    3  502    0  0.38375355342E+02  0.33092555298E+02 -0.29338534397E+03  0.29775865658E+03  0.41800000000E+01 0. -1.
         -5    1    3    3    0  502 -0.53507542744E+02 -0.53417665095E+02 -0.57072535163E+03  0.57572684797E+03  0.41800000000E+01 0. -1.
        -11    1    1    2    0    0  0.19381541310E+02 -0.31583842628E+02 -0.17615702855E+03  0.18001244948E+03  0.00000000000E+00 0.  1.
         11    1    1    2    0    0 -0.42493539076E+01  0.51908952426E+02 -0.95831288692E+02  0.10906985029E+03  0.00000000000E+00 0. -1.
</event>
<event>
 7    1  0.2856214E-009  0.1658124E+03  0.7561462E-02  0.1182287E+00
          2   -1    0    0  501    0  0.00000000000E+00  0.00000000000E+00  0.68164695403E+03  0.68164695403E+03  0.00000000000E+00 0. -1.
         -2   -1    0    0    0  501 -0.00000000000E+00 -0.00000000000E+00 -0.41082001125E+02  0.41082001125E+02  0.00000000000E+00 0.  1.
         25    2    1    2    0    0 -0.10655083202E+02  0.12595664415E+03  0.36936250755E+03  0.40994572715E+03  0.12509288635E+03 0.  0.
          5    1    3    3  502    0 -0.65716442569E+02  0.91356594382E+02  0.22881083393E+03  0.25502264269E+03  0.41800000000E+01 0.  1.
         -5    1    3    3    0  502  0.55061359367E+02  0.34600049771E+02  0.14055167363E+03  0.15492308446E+03  0.41800000000E+01 0.  1.
        -11    1    1    2    0    0  0.48365894819E+02 -0.53219346055E+02  0.10217343129E+03  0.12494386194E+03  0.00000000000E+00 0.  1.
         11    1    1    2    0    0 -0.37710811617E+02 -0.72737298098E+02  0.16902901406E+03  0.18783936606E+03  0.00000000000E+00 0. -1.
</event>
<event>
 7    1  0.2856214E-009  0.1029069E+03  0.7561462E-02  0.1274299E+00
          1   -1    0    0  501    0  0.00000000000E+00  0.00000000000E+00  0.29030650108E+02  0.29030650108E+02  0.00000000000E+00 0. -1.
         -1   -1    0    0    0  501 -0.00000000000E+00 -0.00000000000E+00 -0.57153905933E+03  0.57153905933E+03  0.00000000000E+00 0.  1.
         25    2    1    2    0    0 -0.18340196953E+02 -0.59802743710E+02 -0.23419771338E+03  0.27278162048E+03  0.12509401481E+03 0.  0.
          5    1    3    3  502    0 -0.62106747421E+02  0.29957445287E+01 -0.12038994778E+03  0.13556339656E+03  0.41800000000E+01 0.  1.
         -5    1    3    3    0  502  0.43766550468E+02 -0.62798488238E+02 -0.11380776560E+03  0.13721822392E+03  0.41800000000E+01 0.  1.
        -11    1    1    2    0    0  0.79646191537E+01  0.54692616061E+02 -0.31103371010E+03  0.31590613516E+03  0.00000000000E+00 0.  1.
         11    1    1    2    0    0  0.10375577799E+02  0.51101276484E+01  0.27230142683E+01  0.11881953793E+02  0.00000000000E+00 0. -1.
</event>
<event>
 7    1  0.2856214E-009  0.1054377E+03  0.7561462E-02  0.1269260E+00
          1   -1    0    0  501    0  0.00000000000E+00  0.00000000000E+00  0.25846376214E+03  0.25846376214E+03  0.00000000000E+00 0. -1.
         -1   -1    0    0    0  501 -0.00000000000E+00 -0.00000000000E+00 -0.63354129688E+02  0.63354129688E+02  0.00000000000E+00 0.  1.
         25    2    1    2    0    0  0.46217640776E+01  0.67499371196E+02  0.10586818509E+03  0.17729196088E+03  0.12508733334E+03 0.  0.
          5    1    3    3  502    0 -0.38321078159E+02 -0.16612007686E+02  0.57252918927E+02  0.70991780907E+02  0.41800000000E+01 0. -1.
         -5    1    3    3    0  502  0.42942842237E+02  0.84111378883E+02  0.48615266166E+02  0.10630017997E+03  0.41800000000E+01 0. -1.
        -11    1    1    2    0    0  0.12999323908E+02 -0.35998771528E+02  0.99826028910E+02  0.10691178617E+03  0.00000000000E+00 0. -1.
         11    1    1    2    0    0 -0.17621087986E+02 -0.31500599668E+02 -0.10584581552E+02  0.37614144785E+02  0.00000000000E+00 0.  1.
</event>
<event>
 7    1  0.2856214E-009  0.1489833E+03  0.7561462E-02  0.1201728E+00
         -2   -1    0    0    0  501 -0.00000000000E+00  0.00000000000E+00  0.26674944327E+03  0.26674944327E+03  0.00000000000E+00 0.  1.
          2   -1    0    0  501    0  0.00000000000E+00 -0.00000000000E+00 -0.10065485757E+03  0.10065485757E+03  0.00000000000E+00 0. -1.
         25    2    1    2    0    0  0.79511576167E+02  0.93338709263E+02  0.95119572218E+02  0.19932079785E+03  0.12508733766E+03 0.  0.
          5    1    3    3  502    0  0.55185479190E+02 -0.54865317971E+01 -0.58189147753E+01  0.55918434472E+02  0.41800000000E+01 0.  1.
         -5    1    3    3    0  502  0.24326096977E+02  0.98825241060E+02  0.10093848699E+03  0.14340236337E+03  0.41800000000E+01 0.  1.
        -11    1    1    2    0    0  0.27692881915E+01 -0.44951431430E+02  0.55352263053E+02  0.71359464472E+02  0.00000000000E+00 0. -1.
         11    1    1    2    0    0 -0.82280864359E+02 -0.48387277833E+02  0.15622750429E+02  0.96724038515E+02  0.00000000000E+00 0.  1.
</event>
<event>
 7    1  0.2856214E-009  0.1259752E+03  0.7561462E-02  0.1233553E+00
         -1   -1    0    0    0  501 -0.00000000000E+00  0.00000000000E+00  0.62256091609E+02  0.62256091609E+02  0.00000000000E+00 0.  1.
          1   -1    0    0  501    0  0.00000000000E+00 -0.00000000000E+00 -0.35683691422E+03  0.35683691422E+03  0.00000000000E+00 0. -1.
         25    2    1    2    0    0  0.82520729243E+02  0.40002443451E+02 -0.96820318498E+02  0.18284203737E+03  0.12508864984E+03 0.  0.
          5    1    3    3  502    0  0.14239998091E+02 -0.35923751962E+02 -0.65123879734E+02  0.75841186780E+02  0.41800000000E+01 0. -1.
         -5    1    3    3    0  502  0.68280731152E+02  0.75926195413E+02 -0.31696438765E+02  0.10700085059E+03  0.41800000000E+01 0. -1.
        -11    1    1    2    0    0 -0.27047467879E+02  0.16514713685E+02 -0.12414958706E+03  0.12813048526E+03  0.00000000000E+00 0. -1.
         11    1    1    2    0    0 -0.55473261364E+02 -0.56517157136E+02 -0.73610917055E+02  0.10812048320E+03  0.00000000000E+00 0.  1.
</event>
<event>
 7    1  0.2856214E-009  0.1050577E+03  0.7561462E-02  0.1270006E+00
         -2   -1    0    0    0  501 -0.00000000000E+00  0.00000000000E+00  0.76397405346E+02  0.76397405346E+02  0.00000000000E+00 0.  1.
          2   -1    0    0  501    0  0.00000000000E+00 -0.00000000000E+00 -0.15849853605E+03  0.15849853605E+03  0.00000000000E+00 0. -1.
         25    2    1    2    0    0 -0.16167366076E+02 -0.17232526721E+02 -0.56559275087E+02  0.13930966888E+03  0.12509951456E+03 0.  0.
          5    1    3    3  502    0  0.26258525893E+02  0.39248933645E+02  0.20120547537E+01  0.47450076277E+02  0.41800000000E+01 0.  1.
         -5    1    3    3    0  502 -0.42425891968E+02 -0.56481460366E+02 -0.58571329841E+02  0.91859592606E+02  0.41800000000E+01 0.  1.
        -11    1    1    2    0    0 -0.33700270625E+02 -0.99633924109E+01 -0.69783889417E+01  0.35828415270E+02  0.00000000000E+00 0.  1.
         11    1    1    2    0    0  0.49867636701E+02  0.27195919132E+02 -0.18563466679E+02  0.59757857247E+02  0.00000000000E+00 0. -1.
</event>
<event>
 7    1  0.2856214E-009  0.1074808E+03  0.7561462E-02  0.1265307E+00
          2   -1    0    0  501    0  0.00000000000E+00  0.00000000000E+00  0.28955892670E+03  0.28955892670E+03  0.00000000000E+00 0. -1.
         -2   -1    0    0    0  501 -0.00000000000E+00 -0.00000000000E+00 -0.74870728961E+02  0.74870728961E+02  0.00000000000E+00 0.  1.
         25    2    1    2    0    0 -0.54940906581E+02  0.71947305977E+02  0.66315744942E+02  0.16804896766E+03  0.12509100468E+03 0.  0.
          5    1    3    3  502    0 -0.65446770480E+01  0.65875059914E+02  0.91486399257E+02  0.11300261044E+03  0.41800000000E+01 0. -1.
         -5    1    3    3    0  502 -0.48396229533E+02  0.60722460631E+01 -0.25170654315E+02  0.55046357227E+02  0.41800000000E+01 0. -1.
        -11    1    1    2    0    0 -0.24193592414E+01 -0.26187956970E+02 -0.46199588111E+01  0.26702179851E+02  0.00000000000E+00 0.  1.
         11    1    1    2    0    0  0.57360265823E+02 -0.45759349007E+02  0.15299241161E+03  0.16967850814E+03  0.00000000000E+00 0. -1.
</event>
<event>
 7    1  0.2856214E-009  0.1055659E+03  0.7561462E-02  0.1269009E+00
         -1   -1    0    0    0  501 -0.00000000000E+00  0.00000000000E+00  0.12488324709E+03  0.12488324709E+03  0.00000000000E+00 0.  1.
          1   -1    0    0  501    0  0.00000000000E+00 -0.00000000000E+00 -0.13048749230E+03  0.13048749230E+03  0.00000000000E+00 0. -1.
         25    2    1    2    0    0  0.35958387230E+02  0.33550572192E+02 -0.47023911492E+02  0.14239996655E+03  0.12509138945E+03 0.  0.
          5    1    3    3  502    0 -0.18411963117E+02 -0.37320019447E+02 -0.10154955304E+01  0.41836441872E+02  0.41800000000E+01 0. -1.
         -5    1    3    3    0  502  0.54370350347E+02  0.70870591639E+02 -0.46008415962E+02  0.10056352468E+03  0.41800000000E+01 0. -1.
        -11    1    1    2    0    0  0.13920079562E+02 -0.25927874939E+02  0.53524923287E+02  0.61081427020E+02  0.00000000000E+00 0.  1.
         11    1    1    2    0    0 -0.49878466792E+02 -0.76226972535E+01 -0.12105256997E+02  0.51889345823E+02  0.00000000000E+00 0. -1.
</event>
<event>
 7    1  0.2856214E-009  0.1492478E+03  0.7561462E-02  0.1201400E+00
         -2   -1    0    0    0  501 -0.00000000000E+00  0.00000000000E+00  0.33948359369E+02  0.33948359369E+02  0.00000000000E+00 0.  1.
          2   -1    0    0  501    0  0.00000000000E+00 -0.00000000000E+00 -0.78168525535E+03  0.78168525535E+03  0.00000000000E+00 0. -1.
         25    2    1    2    0    0 -0.10577086625E+03  0.11752193520E+02 -0.25580051854E+03  0.30398483438E+03  0.12508910442E+03 0.  0.
          5    1    3    3  502    0 -0.50145082718E+02 -0.53695162468E+02 -0.15432804472E+03  0.17097461092E+03  0.41800000000E+01 0. -1.
         -5    1    3    3    0  502 -0.55625783536E+02  0.65447355988E+02 -0.10147247383E+03  0.13301022346E+03  0.41800000000E+01 0. -1.
        -11    1    1    2    0    0  0.11398361479E+02 -0.39043920303E+02 -0.18313556917E+03  0.18759793989E+03  0.00000000000E+00 0.  1.
         11    1    1    2    0    0  0.94372504774E+02  0.27291726783E+02 -0.30880080827E+03  0.32405084045E+03  0.00000000000E+00 0. -1.
</event>
<event>
 7    1  0.2856214E-009  0.1315330E+03  0.7561462E-02  0.1225199E+00
         -1   -1    0    0    0  501 -0.00000000000E+00  0.00000000000E+00  0.34621255014E+03  0.34621255014E+03  0.00000000000E+00 0.  1.
          1   -1    0    0  501    0  0.00000000000E+00 -0.00000000000E+00 -0.57990854536E+02  0.57990854536E+02  0.00000000000E+00 0. -1.
         25    2    1    2    0    0 -0.15664834919E+02 -0.75642167970E+02  0.22818479322E+03  0.27144639642E+03  0.12509085356E+03 0.  0.
          5    1    3    3  502    0  0.49151370249E+02 -0.60334836610E+02  0.98516209872E+02  0.12561475118E+03  0.41800000000E+01 0. -1.
         -5    1    3    3    0  502 -0.64816205169E+02 -0.15307331360E+02  0.12966858335E+03  0.14583164524E+03  0.41800000000E+01 0. -1.
        -11    1    1    2    0    0 -0.37091145133E+02  0.21805304743E+02  0.22328701811E+02  0.48474687072E+02  0.00000000000E+00 0.  1.
         11    1    1    2    0    0  0.52755980052E+02  0.53836863227E+02  0.37708200569E+02  0.84282321180E+02  0.00000000000E+00 0. -1.
</event>
<event>
 7    1  0.2856214E-009  0.1443542E+03  0.7561462E-02  0.1207587E+00
          1   -1    0    0  501    0  0.00000000000E+00  0.00000000000E+00  0.10627435817E+04  0.10627435817E+04  0.00000000000E+00 0. -1.
         -1   -1    0    0    0  501 -0.00000000000E+00 -0.00000000000E+00 -0.25724438038E+02  0.25724438038E+02  0.00000000000E+00 0.  1.
         25    2    1    2    0    0 -0.10561847175E+03 -0.64548328336E+02  0.54473837253E+03  0.57245907517E+03  0.12509096681E+03 0.  0.
          5    1    3    3  502    0 -0.19141262151E+01 -0.55528920857E+02  0.31914070385E+03  0.32396818700E+03  0.41800000000E+01 0.  1.
         -5    1    3    3    0  502 -0.10370434554E+03 -0.90194074789E+01  0.22559766867E+03  0.24849088817E+03  0.41800000000E+01 0.  1.
        -11    1    1    2    0    0  0.71129959734E+01  0.18991612989E+02  0.11884205387E+02  0.23505540056E+02  0.00000000000E+00 0.  1.
         11    1    1    2    0    0  0.98505475777E+02  0.45556715346E+02  0.48039656577E+03  0.49250340453E+03  0.00000000000E+00 0. -1.
</event>
<event>
 7    1  0.2856214E-009  0.2418786E+03  0.7561462E-02  0.1118548E+00
          2   -1    0    0  501    0  0.00000000000E+00  0.00000000000E+00  0.10022791040E+03  0.10022791040E+03  0.00000000000E+00 0. -1.
         -2   -1    0    0    0  501 -0.00000000000E+00 -0.00000000000E+00 -0.64996159519E+03  0.64996159519E+03  0.00000000000E+00 0.  1.
         25    2    1    2    0    0  0.23066451890E+03 -0.49346368059E+00 -0.28398023095E+03  0.38665227604E+03  0.12509535246E+03 0.  0.
          5    1    3    3  502    0  0.19774155871E+03 -0.39373595933E+02 -0.26294524986E+03  0.33137543802E+03  0.41800000000E+01 0. -1.
         -5    1    3    3    0  502  0.32922960190E+02  0.38880132252E+02 -0.21034981088E+02  0.55276838015E+02  0.41800000000E+01 0. -1.
        -11    1    1    2    0    0 -0.14127872750E+03 -0.55012313124E+01 -0.22354852012E+03  0.26450686804E+03  0.00000000000E+00 0.  1.
         11    1    1    2    0    0 -0.89385791401E+02  0.59946949930E+01 -0.42204933721E+02  0.99030361520E+02  0.00000000000E+00 0. -1.
</event>
<event>
 7    1  0.2856214E-009  0.1512537E+03  0.7561462E-02  0.1198941E+00
         -2   -1    0    0    0  501 -0.00000000000E+00  0.00000000000E+00  0.54577568959E+02  0.54577568959E+02  0.00000000000E+00 0.  1.
          2   -1    0    0  501    0  0.00000000000E+00 -0.00000000000E+00 -0.48605052291E+03  0.48605052291E+03  0.00000000000E+00 0. -1.
         25    2    1    2    0    0 -0.11741725317E+03  0.26167219906E+02 -0.21031076007E+03  0.27267219440E+03  0.12509186647E+03 0.  0.
          5    1    3    3  502    0 -0.13034746670E+03  0.35256735790E+02 -0.11938382386E+03  0.18028718560E+03  0.41800000000E+01 0. -1.
         -5    1    3    3    0  502  0.12930213529E+02 -0.90895158841E+01 -0.90926936212E+02  0.92385008793E+02  0.41800000000E+01 0. -1.
        -11    1    1    2    0    0  0.12079781354E+03  0.38463499664E+01 -0.18258442131E+03  0.21896113141E+03  0.00000000000E+00 0.  1.
         11    1    1    2    0    0 -0.33805603674E+01 -0.30013569872E+02 -0.38577772568E+02  0.48994766059E+02  0.00000000000E+00 0. -1.
</event>
<event>
 7    1  0.2857359E-009  0.7593561E+02  0.7561462E-02  0.1340998E+00
         -2   -1    0    0    0  501 -0.00000000000E+00  0.00000000000E+00  0.28489999786E+02  0.28489999786E+02  0.00000000000E+00 0.  1.
          2   -1    0    0  501    0  0.00000000000E+00 -0.00000000000E+00 -0.53351358527E+03  0.53351358527E+03  0.00000000000E+00 0. -1.
         25    2    1    2    0    0 -0.27064547251E+02  0.37543599452E+02 -0.20054966340E+03  0.24085154297E+03  0.12508911498E+03 0.  0.
          5    1    3    3  502    0  0.12167065950E+02  0.17294207840E+02 -0.19496696473E+03  0.19615482878E+03  0.41800000000E+01 0. -1.
         -5    1    3    3    0  502 -0.39231613202E+02  0.20249391612E+02 -0.55826986688E+01  0.44696714191E+02  0.41800000000E+01 0. -1.
        -11    1    1    2    0    0 -0.21462895703E+02  0.43047434173E+01 -0.20338466402E+02  0.29880427096E+02  0.00000000000E+00 0.  1.
         11    1    1    2    0    0  0.48527442954E+02 -0.41848342870E+02 -0.28413545569E+03  0.29127161499E+03  0.00000000000E+00 0. -1.
</event>
<event>
 7    1  0.2856214E-009  0.1126411E+03  0.7561462E-02  0.1255756E+00
         -2   -1    0    0    0  501 -0.00000000000E+00  0.00000000000E+00  0.42084962975E+02  0.42084962975E+02  0.00000000000E+00 0.  1.
          2   -1    0    0  501    0  0.00000000000E+00 -0.00000000000E+00 -0.46149109653E+03  0.46149109653E+03  0.00000000000E+00 0. -1.
         25    2    1    2    0    0 -0.39076402541E+02 -0.34658783513E+02 -0.35005198549E+03  0.37538232100E+03  0.12508915967E+03 0.  0.
          5    1    3    3  502    0 -0.68193943624E+02  0.78683600179E+01 -0.27994101646E+03  0.28826510391E+03  0.41800000000E+01 0. -1.
         -5    1    3    3    0  502  0.29117541083E+02 -0.42527143530E+02 -0.70110969030E+02  0.87117217092E+02  0.41800000000E+01 0. -1.
        -11    1    1    2    0    0  0.68974058011E+02  0.25371487067E+02 -0.34017289211E+02  0.80983387184E+02  0.00000000000E+00 0.  1.
         11    1    1    2    0    0 -0.29897655470E+02  0.92872964451E+01 -0.35336858853E+02  0.47210351317E+02  0.00000000000E+00 0. -1.
</event>
<event>
 7    1  0.2856214E-009  0.1357732E+03  0.7561462E-02  0.1219132E+00
         -1   -1    0    0    0  501 -0.00000000000E+00  0.00000000000E+00  0.25298017403E+02  0.25298017403E+02  0.00000000000E+00 0.  1.
          1   -1    0    0  501    0  0.00000000000E+00 -0.00000000000E+00 -0.80001361501E+03  0.80001361501E+03  0.00000000000E+00 0. -1.
         25    2    1    2    0    0  0.81791880426E+02  0.30080618474E+02 -0.52193693321E+03  0.54374682936E+03  0.12509075454E+03 0.  0.
          5    1    3    3  502    0  0.58785746543E+02 -0.42507485959E+02 -0.31309566968E+03  0.32141720727E+03  0.41800000000E+01 0.  1.
         -5    1    3    3    0  502  0.23006133883E+02  0.72588104433E+02 -0.20884126353E+03  0.22232962208E+03  0.41800000000E+01 0.  1.
        -11    1    1    2    0    0 -0.50251315836E+02  0.27266460802E+02 -0.96986471587E+02  0.11258343705E+03  0.00000000000E+00 0.  1.
         11    1    1    2    0    0 -0.31540564590E+02 -0.57347079277E+02 -0.15579219280E+03  0.16898136600E+03  0.00000000000E+00 0. -1.
</event>
<event>
 7    1  0.2856214E-009  0.1100216E+03  0.7561462E-02  0.1260530E+00
         -2   -1    0    0    0  501 -0.00000000000E+00  0.00000000000E+00  0.51673423945E+02  0.51673423945E+02  0.00000000000E+00 0.  1.
          2   -1    0    0  501    0  0.00000000000E+00 -0.00000000000E+00 -0.28405651749E+03  0.28405651749E+03  0.00000000000E+00 0. -1.
         25    2    1    2    0    0 -0.12536477203E+02 -0.48494133177E+02 -0.15309287409E+03  0.20394720906E+03  0.12509273269E+03 0.  0.
          5    1    3    3  502    0  0.36429776467E+02 -0.54217787949E+02 -0.31429703330E+02  0.72608510485E+02  0.41800000000E+01 0.  1.
         -5    1    3    3    0  502 -0.48966253670E+02  0.57236547719E+01 -0.12166317076E+03  0.13133869857E+03  0.41800000000E+01 0.  1.
        -11    1    1    2    0    0 -0.23635630527E+02  0.62116194995E+02 -0.53465509078E+02  0.85297276463E+02  0.00000000000E+00 0.  1.
         11    1    1    2    0    0  0.36172107731E+02 -0.13622061818E+02 -0.25824710377E+02  0.46485455918E+02  0.00000000000E+00 0. -1.
</event>
<event>
 7    1  0.2856214E-009  0.1420718E+03  0.7561462E-02  0.1210568E+00
         -1   -1    0    0    0  501 -0.00000000000E+00  0.00000000000E+00  0.46427603979E+02  0.46427603979E+02  0.00000000000E+00 0.  1.
          1   -1    0    0  501    0  0.00000000000E+00 -0.00000000000E+00 -0.60482756865E+03  0.60482756865E+03  0.00000000000E+00 0. -1.
         25    2    1    2    0    0 -0.10944967143E+03 -0.45298685113E+02 -0.20629527983E+03  0.26877038205E+03  0.12509426179E+03 0.  0.
          5    1    3    3  502    0 -0.56969953190E+02  0.25376068927E+02 -0.15422249535E+03  0.16640784510E+03  0.41800000000E+01 0.  1.
         -5    1    3    3    0  502 -0.52479718242E+02 -0.70674754040E+02 -0.52072784488E+02  0.10236253694E+03  0.41800000000E+01 0.  1.
        -11    1    1    2    0    0  0.82120229792E+02  0.60719242245E+02 -0.17500079557E+03  0.20262239997E+03  0.00000000000E+00 0.  1.
         11    1    1    2    0    0  0.27329441641E+02 -0.15420557132E+02 -0.17710388927E+03  0.17986239062E+03  0.00000000000E+00 0. -1.
</event>
<event>
 7    1  0.2856214E-009  0.9819373E+02  0.7561462E-02  0.1284141E+00
          1   -1    0    0  501    0  0.00000000000E+00  0.00000000000E+00  0.98293996037E+03  0.98293996037E+03  0.00000000000E+00 0. -1.
         -1   -1    0    0    0  501 -0.00000000000E+00 -0.00000000000E+00 -0.17837435431E+02  0.17837435431E+02  0.00000000000E+00 0.  1.
         25    2    1    2    0    0 -0.76456404598E+02  0.75462737287E+01  0.58512817978E+03  0.60326333461E+03  0.12509650698E+03 0.  0.
          5    1    3    3  502    0 -0.30551357690E+02  0.38105076504E+02  0.49568676658E+03  0.49810463286E+03  0.41800000000E+01 0. -1.
         -5    1    3    3    0  502 -0.45905046909E+02 -0.30558802775E+02  0.89441413200E+02  0.10515870175E+03  0.41800000000E+01 0. -1.
        -11    1    1    2    0    0  0.13219735561E+02 -0.23394914853E+02  0.25332366420E+02  0.36929828564E+02  0.00000000000E+00 0.  1.
         11    1    1    2    0    0  0.63236669037E+02  0.15848641124E+02  0.35464197874E+03  0.36058423263E+03  0.00000000000E+00 0. -1.
</event>
<event>
 7    1  0.2856214E-009  0.1765119E+03  0.7561462E-02  0.1171222E+00
         -2   -1    0    0    0  501 -0.00000000000E+00  0.00000000000E+00  0.21555939010E+03  0.21555939010E+03  0.00000000000E+00 0.  1.
          2   -1    0    0  501    0  0.00000000000E+00 -0.00000000000E+00 -0.20613939916E+03  0.20613939916E+03  0.00000000000E+00 0. -1.
         25    2    1    2    0    0 -0.16350283663E+03  0.33885190492E+02 -0.63259433469E+02  0.21801514267E+03  0.12508981889E+03 0.  0.
          5    1    3    3  502    0 -0.35489531161E+02 -0.24511041967E+02 -0.63948700164E+02  0.77247696749E+02  0.41800000000E+01 0. -1.
         -5    1    3    3    0  502 -0.12801330547E+03  0.58396232460E+02  0.68926669524E+00  0.14076744592E+03  0.41800000000E+01 0. -1.
        -11    1    1    2    0    0  0.32180355535E+02 -0.17366902417E+02  0.60597612300E+02  0.70776091997E+02  0.00000000000E+00 0.  1.
         11    1    1    2    0    0  0.13132248110E+03 -0.16518288075E+02  0.12081812111E+02  0.13290755459E+03  0.00000000000E+00 0. -1.
</event>
<event>
 7    1  0.2856214E-009  0.1686428E+03  0.7561462E-02  0.1179271E+00
          2   -1    0    0  501    0  0.00000000000E+00  0.00000000000E+00  0.10923797109E+04  0.10923797109E+04  0.00000000000E+00 0. -1.
         -2   -1    0    0    0  501 -0.00000000000E+00 -0.00000000000E+00 -0.26570957207E+02  0.26570957207E+02  0.00000000000E+00 0.  1.
         25    2    1    2    0    0 -0.12847299005E+03 -0.26744833510E+02  0.56872855504E+03  0.59692577982E+03  0.12509045527E+03 0.  0.
          5    1    3    3  502    0 -0.66859421160E+02 -0.74197495245E+02  0.26082373917E+03  0.27932408742E+03  0.41800000000E+01 0.  1.
         -5    1    3    3    0  502 -0.61613568887E+02  0.47452661736E+02  0.30790481587E+03  0.31760169239E+03  0.41800000000E+01 0.  1.
        -11    1    1    2    0    0  0.55626365426E+02 -0.33477730218E+02  0.20181081227E+03  0.21199682757E+03  0.00000000000E+00 0.  1.
         11    1    1    2    0    0  0.72846624621E+02  0.60222563728E+02  0.29526938642E+03  0.31002806076E+03  0.00000000000E+00 0. -1.
</event>
<event>
 7    1  0.2856214E-009  0.1013384E+03  0.7561462E-02  0.1277506E+00
         -1   -1    0    0    0  501 -0.00000000000E+00  0.00000000000E+00  0.20960632420E+02  0.20960632420E+02  0.00000000000E+00 0.  1.
          1   -1    0    0  501    0  0.00000000000E+00 -0.00000000000E+00 -0.11917531705E+04  0.11917531705E+04  0.00000000000E+00 0. -1.
         25    2    1    2    0    0 -0.45744179947E+02 -0.35313509846E+02 -0.98307141523E+03  0.99268093295E+03  0.12508578346E+03 0.  0.
          5    1    3    3  502    0 -0.67899974909E+02 -0.69005570328E+02 -0.65984347013E+03  0.66692057458E+03  0.41800000000E+01 0.  1.
         -5    1    3    3    0  502  0.22155794962E+02  0.33692060482E+02 -0.32322794509E+03  0.32576035836E+03  0.41800000000E+01 0.  1.
        -11    1    1    2    0    0  0.15434591652E+02  0.30988849767E+02 -0.18618658551E+03  0.18937787636E+03  0.00000000000E+00 0. -1.
         11    1    1    2    0    0  0.30309588295E+02  0.43246600784E+01 -0.15345373195E+01  0.30654993593E+02  0.00000000000E+00 0.  1.
</event>
<event>
 7    1  0.2856214E-009  0.8162250E+02  0.7561462E-02  0.1324509E+00
          1   -1    0    0  501    0  0.00000000000E+00  0.00000000000E+00  0.90074683023E+02  0.90074683023E+02  0.00000000000E+00 0. -1.
         -1   -1    0    0    0  501 -0.00000000000E+00 -0.00000000000E+00 -0.13712901274E+03  0.13712901274E+03  0.00000000000E+00 0.  1.
         25    2    1    2    0    0 -0.76837828774E+01 -0.28424801253E+02 -0.29588144214E+02  0.13186309183E+03  0.12508160082E+03 0.  0.
          5    1    3    3  502    0 -0.16426695675E+02  0.37095416649E+02 -0.48127486302E+02  0.63084337240E+02  0.41800000000E+01 0. -1.
         -5    1    3    3    0  502  0.87429127978E+01 -0.65520217902E+02  0.18539342088E+02  0.68778754592E+02  0.41800000000E+01 0. -1.
        -11    1    1    2    0    0  0.12194606901E+02 -0.11073682111E+02  0.29512426576E+02  0.33798198108E+02  0.00000000000E+00 0. -1.
         11    1    1    2    0    0 -0.45108240241E+01  0.39498483365E+02 -0.46978612077E+02  0.61542405820E+02  0.00000000000E+00 0.  1.
</event>
<event>
 7    1  0.2856214E-009  0.1279967E+03  0.7561462E-02  0.1230459E+00
          1   -1    0    0  501    0  0.00000000000E+00  0.00000000000E+00  0.86634928540E+02  0.86634928540E+02  0.00000000000E+00 0. -1.
         -1   -1    0    0    0  501 -0.00000000000E+00 -0.00000000000E+00 -0.30601273880E+03  0.30601273880E+03  0.00000000000E+00 0.  1.
         25    2    1    2    0    0  0.10925250538E+03 -0.11089090342E+02 -0.18211908429E+03  0.24672456145E+03  0.12508625225E+03 0.  0.
          5    1    3    3  502    0  0.53071092147E+01  0.66816942504E+01 -0.12757158555E+03  0.12792494786E+03  0.41800000000E+01 0.  1.
         -5    1    3    3    0  502  0.10394539616E+03 -0.17770784592E+02 -0.54547498741E+02  0.11879961358E+03  0.41800000000E+01 0.  1.
        -11    1    1    2    0    0 -0.98316332122E+02  0.42936126069E+02 -0.31021494063E+02  0.11167786342E+03  0.00000000000E+00 0.  1.
         11    1    1    2    0    0 -0.10936173256E+02 -0.31847035727E+02 -0.62372319026E+01  0.34245242471E+02  0.00000000000E+00 0. -1.
</event>
<event>
 7    1  0.2856214E-009  0.1448331E+03  0.7561462E-02  0.1206970E+00
         -1   -1    0    0    0  501 -0.00000000000E+00  0.00000000000E+00  0.79695783920E+02  0.79695783920E+02  0.00000000000E+00 0.  1.
          1   -1    0    0  501    0  0.00000000000E+00 -0.00000000000E+00 -0.27425935405E+03  0.27425935405E+03  0.00000000000E+00 0. -1.
         25    2    1    2    0    0  0.89103266334E+02 -0.44501587489E+02 -0.92199604661E+02  0.18457608671E+03  0.12509109211E+03 0.  0.
          5    1    3    3  502    0  0.78413349553E+02 -0.84986334854E+02 -0.53788836030E+02  0.12760110415E+03  0.41800000000E+01 0.  1.
         -5    1    3    3    0  502  0.10689916781E+02  0.40484747365E+02 -0.38410768631E+02  0.56974982553E+02  0.41800000000E+01 0.  1.
        -11    1    1    2    0    0 -0.37539452760E+02 -0.25171356611E+02 -0.52904701063E+02  0.69582433859E+02  0.00000000000E+00 0. -1.
         11    1    1    2    0    0 -0.51563813575E+02  0.69672944100E+02 -0.49459264410E+02  0.99796617407E+02  0.00000000000E+00 0.  1.
</event>
<event>
 7    1  0.2856214E-009  0.9508540E+02  0.7561462E-02  0.1290984E+00
          1   -1    0    0  501    0  0.00000000000E+00  0.00000000000E+00  0.86109887715E+02  0.86109887715E+02  0.00000000000E+00 0. -1.
         -1   -1    0    0    0  501 -0.00000000000E+00 -0.00000000000E+00 -0.16359605681E+03  0.16359605681E+03  0.00000000000E+00 0.  1.
         25    2    1    2    0    0 -0.28547951584E+02 -0.20254741383E+02 -0.11646779461E+02  0.13041164747E+03  0.12508521190E+03 0.  0.
          5    1    3    3  502    0 -0.30701953646E+02 -0.70273175575E+02  0.63103232214E+01  0.77059858177E+02  0.41800000000E+01 0. -1.
         -5    1    3    3    0  502  0.21540020621E+01  0.50018434191E+02 -0.17957102683E+02  0.53351789291E+02  0.41800000000E+01 0. -1.
        -11    1    1    2    0    0 -0.75320740006E+01  0.25574556043E+02 -0.76732462014E+02  0.81232141313E+02  0.00000000000E+00 0.  1.
         11    1    1    2    0    0  0.36080025585E+02 -0.53198146595E+01  0.10893072378E+02  0.38062155746E+02  0.00000000000E+00 0. -1.
</event>
<event>
 7    1  0.2856214E-009  0.1101324E+03  0.7561462E-02  0.1260325E+00
          2   -1    0    0  501    0  0.00000000000E+00  0.00000000000E+00  0.36366042753E+03  0.36366042753E+03  0.00000000000E+00 0. -1.
         -2   -1    0    0    0  501 -0.00000000000E+00 -0.00000000000E+00 -0.51270325167E+02  0.51270325167E+02  0.00000000000E+00 0.  1.
         25    2    1    2    0    0  0.65250732296E+02  0.48955073487E+02  0.18875335798E+03  0.24068465069E+03  0.12508802359E+03 0.  0.
          5    1    3    3  502    0  0.24071751727E+02 -0.13992093223E+02  0.15602768679E+03  0.15854759333E+03  0.41800000000E+01 0.  1.
         -5    1    3    3    0  502  0.41178980569E+02  0.62947166711E+02  0.32725671185E+02  0.82137057362E+02  0.41800000000E+01 0.  1.
        -11    1    1    2    0    0 -0.18178747521E+01 -0.53169878296E+02  0.30025990312E+02  0.61089284829E+02  0.00000000000E+00 0.  1.
         11    1    1    2    0    0 -0.63432857544E+02  0.42148048092E+01  0.93610754072E+02  0.11315681718E+03  0.00000000000E+00 0. -1.
</event>
<event>
 7    1  0.2856214E-009  0.1171954E+03  0.7561462E-02  0.1247797E+00
          2   -1    0    0  501    0  0.00000000000E+00  0.00000000000E+00  0.22484132256E+03  0.22484132256E+03  0.00000000000E+00 0. -1.
         -2   -1    0    0    0  501 -0.00000000000E+00 -0.00000000000E+00 -0.13261408809E+03  0.13261408809E+03  0.00000000000E+00 0.  1.
         25    2    1    2    0    0 -0.81674713548E+02  0.18647643666E+01 -0.61665239916E+02  0.16163018978E+03  0.12508988870E+03 0.  0.
          5    1    3    3  502    0  0.23649746288E+02  0.16814413876E+02 -0.45239259661E+02  0.53908237109E+02  0.41800000000E+01 0.  1.
         -5    1    3    3    0  502 -0.10532445984E+03 -0.14949649509E+02 -0.16425980255E+02  0.10772195267E+03  0.41800000000E+01 0.  1.
        -11    1    1    2    0    0  0.35138986158E+02  0.26589759355E+02  0.14905550690E+02  0.46518158736E+02  0.00000000000E+00 0.  1.
         11    1    1    2    0    0  0.46535727389E+02 -0.28454523722E+02  0.13898692370E+03  0.14930706214E+03  0.00000000000E+00 0. -1.
</event>
<event>
 7    1  0.2856214E-009  0.1213918E+03  0.7561462E-02  0.1240819E+00
         -1   -1    0    0    0  501 -0.00000000000E+00  0.00000000000E+00  0.39474992105E+02  0.39474992105E+02  0.00000000000E+00 0.  1.
          1   -1    0    0  501    0  0.00000000000E+00 -0.00000000000E+00 -0.44999764110E+03  0.44999764110E+03  0.00000000000E+00 0. -1.
         25    2    1    2    0    0 -0.41794770311E+02  0.36709020758E+02 -0.12871612519E+03  0.18790710965E+03  0.12508751313E+03 0.  0.
          5    1    3    3  502    0 -0.30499415598E+02  0.83048297813E+02 -0.90687983299E+02  0.12676362584E+03  0.41800000000E+01 0.  1.
         -5    1    3    3    0  502 -0.11295354713E+02 -0.46339277055E+02 -0.38028141894E+02  0.61143483806E+02  0.41800000000E+01 0.  1.
        -11    1    1    2    0    0  0.63128394445E+02  0.85600205340E+00 -0.14635221699E+03  0.15938914124E+03  0.00000000000E+00 0.  1.
         11    1    1    2    0    0 -0.21333624134E+02 -0.37565022811E+02 -0.13545430681E+03  0.14217638232E+03  0.00000000000E+00 0. -1.
</event>
<event>
 7    1  0.2856214E-009  0.1681414E+03  0.7561462E-02  0.1179800E+00
         -2   -1    0    0    0  501 -0.00000000000E+00  0.00000000000E+00  0.36825710680E+02  0.36825710680E+02  0.00000000000E+00 0.  1.
          2   -1    0    0  501    0  0.00000000000E+00 -0.00000000000E+00 -0.12700912032E+04  0.12700912032E+04  0.00000000000E+00 0. -1.
         25    2    1    2    0    0  0.13619182016E+03 -0.52066619241E+02 -0.98544764435E+03  0.10039983943E+04  0.12508625565E+03 0.  0.
          5    1    3    3  502    0  0.11758656997E+03 -0.80710491115E+00 -0.84709816865E+03  0.85523098201E+03  0.41800000000E+01 0. -1.
         -5    1    3    3    0  502  0.18605250188E+02 -0.51259514329E+02 -0.13834947570E+03  0.14876741233E+03  0.41800000000E+01 0. -1.
        -11    1    1    2    0    0  0.96064011521E+01  0.40627934482E+01  0.10892543984E+01  0.10486930382E+02  0.00000000000E+00 0.  1.
         11    1    1    2    0    0 -0.14579822131E+03  0.48003825792E+02 -0.24890710254E+03  0.29243158914E+03  0.00000000000E+00 0. -1.
</event>
<event>
 7    1  0.2856214E-009  0.1529700E+03  0.7561462E-02  0.1196870E+00
         -2   -1    0    0    0  501 -0.00000000000E+00  0.00000000000E+00  0.10921333286E+03  0.10921333286E+03  0.00000000000E+00 0.  1.
          2   -1    0    0  501    0  0.00000000000E+00 -0.00000000000E+00 -0.28172599764E+03  0.28172599764E+03  0.00000000000E+00 0. -1.
         25    2    1    2    0    0 -0.13432029247E+03  0.18260597661E+00 -0.10060679768E+03  0.20931153891E+03  0.12509044035E+03 0.  0.
          5    1    3    3  502    0 -0.10540133049E+03 -0.19285924421E+02 -0.48744348570E+01  0.10734346680E+03  0.41800000000E+01 0.  1.
         -5    1    3    3    0  502 -0.28918961977E+02  0.19468530398E+02 -0.95732362820E+02  0.10196807210E+03  0.41800000000E+01 0.  1.
        -11    1    1    2    0    0  0.36521868824E+02 -0.43358886544E+02 -0.42197172652E+02  0.70671361418E+02  0.00000000000E+00 0. -1.
         11    1    1    2    0    0  0.97798423644E+02  0.43176280568E+02 -0.29708694445E+02  0.11095643017E+03  0.00000000000E+00 0.  1.
</event>
<event>
 7    1  0.2856214E-009  0.1108703E+03  0.7561462E-02  0.1258967E+00
         -1   -1    0    0    0  501 -0.00000000000E+00  0.00000000000E+00  0.26249046684E+02  0.26249046684E+02  0.00000000000E+00 0.  1.
          1   -1    0    0  501    0  0.00000000000E+00 -0.00000000000E+00 -0.73809194732E+03  0.73809194732E+03  0.00000000000E+00 0. -1.
         25    2    1    2    0    0 -0.28496624829E+01  0.61263705339E+02 -0.55994365022E+03  0.57701386796E+03  0.12508697066E+03 0.  0.
          5    1    3    3  502    0  0.50102010955E+02  0.16000788513E+02 -0.38606576136E+03  0.38965430990E+03  0.41800000000E+01 0.  1.
         -5    1    3    3    0  502 -0.52951673437E+02  0.45262916827E+02 -0.17387788886E+03  0.18735955805E+03  0.41800000000E+01 0.  1.
        -11    1    1    2    0    0  0.83940555187E+01  0.17934544083E+02 -0.72067562354E+02  0.74738487964E+02  0.00000000000E+00 0. -1.
         11    1    1    2    0    0 -0.55443930358E+01 -0.79198249423E+02 -0.79831688064E+02  0.11258863808E+03  0.00000000000E+00 0.  1.
</event>
<event>
 7    1  0.2856214E-009  0.1616251E+03  0.7561462E-02  0.1186874E+00
         -1   -1    0    0    0  501 -0.00000000000E+00  0.00000000000E+00  0.42376203921E+03  0.42376203921E+03  0.00000000000E+00 0.  1.
          1   -1    0    0  501    0  0.00000000000E+00 -0.00000000000E+00 -0.70040481089E+02  0.70040481089E+02  0.00000000000E+00 0. -1.
         25    2    1    2    0    0 -0.68725491138E+02 -0.10635961896E+03  0.12746450560E+03  0.21893280793E+03  0.12509521384E+03 0.  0.
          5    1    3    3  502    0  0.34777250611E+02 -0.46317269236E+02  0.46544520570E+02  0.74421847496E+02  0.41800000000E+01 0. -1.
         -5    1    3    3    0  502 -0.10350274175E+03 -0.60042349724E+02  0.80919985029E+02  0.14451096044E+03  0.41800000000E+01 0. -1.
        -11    1    1    2    0    0  0.52652529642E+02  0.11551685416E+03  0.22223482989E+03  0.25593896165E+03  0.00000000000E+00 0.  1.
         11    1    1    2    0    0  0.16072961496E+02 -0.91572352012E+01  0.40222226304E+01  0.18930750716E+02  0.00000000000E+00 0. -1.
</event>
<event>
 7    1  0.2856214E-009  0.7994059E+02  0.7561462E-02  0.1329220E+00
          3   -1    0    0  501    0  0.00000000000E+00  0.00000000000E+00  0.75983509117E+02  0.75983509117E+02  0.00000000000E+00 0.  1.
         -3   -1    0    0    0  501 -0.00000000000E+00 -0.00000000000E+00 -0.16743982993E+03  0.16743982993E+03  0.00000000000E+00 0. -1.
         25    2    1    2    0    0  0.27877414891E+02  0.11608140343E+02 -0.38522272556E+02  0.13432529853E+03  0.12508965248E+03 0.  0.
          5    1    3    3  502    0 -0.22359840123E+02  0.44016015575E+01 -0.70489552132E+02  0.74199635486E+02  0.41800000000E+01 0.  1.
         -5    1    3    3    0  502  0.50237255014E+02  0.72065387852E+01  0.31967279576E+02  0.60125663040E+02  0.41800000000E+01 0.  1.
        -11    1    1    2    0    0  0.21493519096E+02  0.18159626606E+02  0.35831128652E+01  0.28365156432E+02  0.00000000000E+00 0. -1.
         11    1    1    2    0    0 -0.49370933987E+02 -0.29767766949E+02 -0.56517161121E+02  0.80732884087E+02  0.00000000000E+00 0.  1.
</event>
<event>
 7    1  0.2856214E-009  0.1108333E+03  0.7561462E-02  0.1259034E+00
          1   -1    0    0  501    0  0.00000000000E+00  0.00000000000E+00  0.67685126578E+02  0.67685126578E+02  0.00000000000E+00 0. -1.
         -1   -1    0    0    0  501 -0.00000000000E+00 -0.00000000000E+00 -0.22852218364E+03  0.22852218364E+03  0.00000000000E+00 0.  1.
         25    2    1    2    0    0  0.47445316873E+02 -0.12833472549E+02 -0.47432066362E+02  0.14252195114E+03  0.12508776729E+03 0.  0.
          5    1    3    3  502    0 -0.51037658444E+01  0.47108070395E+02  0.37228859960E+01  0.47713216223E+02  0.41800000000E+01 0. -1.
         -5    1    3    3    0  502  0.52549082717E+02 -0.59941542945E+02 -0.51154952358E+02  0.94808734913E+02  0.41800000000E+01 0. -1.
        -11    1    1    2    0    0 -0.69206051781E+02  0.38910156671E+00 -0.10763109315E+03  0.12796124888E+03  0.00000000000E+00 0.  1.
         11    1    1    2    0    0  0.21760734908E+02  0.12444370983E+02 -0.57738975568E+01  0.25724110206E+02  0.00000000000E+00 0. -1.
</event>
<event>
 7    1  0.2856214E-009  0.1564282E+03  0.7561462E-02  0.1192789E+00
         -3   -1    0    0    0  501 -0.00000000000E+00  0.00000000000E+00  0.12540848030E+03  0.12540848030E+03  0.00000000000E+00 0.  1.
          3   -1    0    0  501    0  0.00000000000E+00 -0.00000000000E+00 -0.26188333431E+03  0.26188333431E+03  0.00000000000E+00 0. -1.
         25    2    1    2    0    0  0.64660551025E+02 -0.98096192593E+02 -0.16530494182E+03  0.23828086971E+03  0.12509276246E+03 0.  0.
          5    1    3    3  502    0 -0.32512349480E+02 -0.20334467620E+01 -0.47916136708E+02  0.58091448007E+02  0.41800000000E+01 0.  1.
         -5    1    3    3    0  502  0.97172900505E+02 -0.96062745831E+02 -0.11738880511E+03  0.18018942171E+03  0.41800000000E+01 0.  1.
        -11    1    1    2    0    0 -0.78314789393E+02  0.10247114962E+03  0.34637655092E+02  0.13354141640E+03  0.00000000000E+00 0. -1.
         11    1    1    2    0    0  0.13654238367E+02 -0.43749570315E+01 -0.58075672771E+01  0.15469528503E+02  0.00000000000E+00 0.  1.
</event>
<event>
 7    1  0.2856214E-009  0.9388780E+02  0.7561462E-02  0.1293701E+00
         -2   -1    0    0    0  501 -0.00000000000E+00  0.00000000000E+00  0.74070231455E+02  0.74070231455E+02  0.00000000000E+00 0. -1.
          2   -1    0    0  501    0  0.00000000000E+00 -0.00000000000E+00 -0.18820767064E+03  0.18820767064E+03  0.00000000000E+00 0.  1.
         25    2    1    2    0    0  0.31574462823E+02  0.22883272835E+02 -0.27700301793E+02  0.13394129082E+03  0.12510943925E+03 0.  0.
          5    1    3    3  502    0  0.63584998359E+02  0.62333688256E+00 -0.56598063876E+02  0.85230591924E+02  0.41800000000E+01 0. -1.
         -5    1    3    3    0  502 -0.32010535535E+02  0.22259935952E+02  0.28897762083E+02  0.48710698899E+02  0.41800000000E+01 0. -1.
        -11    1    1    2    0    0 -0.24153955667E+02  0.25945329704E+02 -0.91393069289E+01  0.36607385033E+02  0.00000000000E+00 0. -1.
         11    1    1    2    0    0 -0.74205071565E+01 -0.48828602539E+02 -0.77297830465E+02  0.91729226242E+02  0.00000000000E+00 0.  1.
</event>
<event>
 7    1  0.2856214E-009  0.1203390E+03  0.7561462E-02  0.1242539E+00
         -2   -1    0    0    0  501 -0.00000000000E+00  0.00000000000E+00  0.78213303346E+03  0.78213303346E+03  0.00000000000E+00 0.  1.
          2   -1    0    0  501    0  0.00000000000E+00 -0.00000000000E+00 -0.27180112192E+02  0.27180112192E+02  0.00000000000E+00 0. -1.
         25    2    1    2    0    0 -0.89708019235E+01 -0.82733916715E+02  0.27037854958E+03  0.30931664150E+03  0.12508736297E+03 0.  0.
          5    1    3    3  502    0  0.14934686968E+02  0.12846763745E+02 -0.14132475668E+01  0.20187963796E+02  0.41800000000E+01 0.  1.
         -5    1    3    3    0  502 -0.23905488892E+02 -0.95580680460E+02  0.27179179714E+03  0.28912867770E+03  0.41800000000E+01 0.  1.
        -11    1    1    2    0    0 -0.16459412850E+02 -0.14183729364E+02  0.11752467239E+03  0.11951627115E+03  0.00000000000E+00 0.  1.
         11    1    1    2    0    0  0.25430214774E+02  0.96917646079E+02  0.36704969930E+03  0.38048023299E+03  0.00000000000E+00 0. -1.
</event>
<event>
 7    1  0.2856214E-009  0.1734761E+03  0.7561462E-02  0.1174271E+00
         -1   -1    0    0    0  501 -0.00000000000E+00  0.00000000000E+00  0.83564310692E+02  0.83564310692E+02  0.00000000000E+00 0.  1.
          1   -1    0    0  501    0  0.00000000000E+00 -0.00000000000E+00 -0.50833218783E+03  0.50833218783E+03  0.00000000000E+00 0. -1.
         25    2    1    2    0    0  0.12026216040E+03 -0.10771092454E+03 -0.31965843646E+03  0.37933283429E+03  0.12508897906E+03 0.  0.
          5    1    3    3  502    0  0.99322620283E+02 -0.46944905578E+02 -0.28654481637E+03  0.30691075453E+03  0.41800000000E+01 0. -1.
         -5    1    3    3    0  502  0.20939540122E+02 -0.60766018965E+02 -0.33113620092E+02  0.72422079762E+02  0.41800000000E+01 0. -1.
        -11    1    1    2    0    0 -0.89042295679E+02  0.10974020188E+03 -0.11224718094E+03  0.18047402017E+03  0.00000000000E+00 0. -1.
         11    1    1    2    0    0 -0.31219864726E+02 -0.20292773359E+01  0.71377402571E+01  0.32089644061E+02  0.00000000000E+00 0.  1.
</event>
<event>
 7    1  0.2856214E-009  0.6293682E+02  0.7561462E-02  0.1385905E+00
          2   -1    0    0  501    0  0.00000000000E+00  0.00000000000E+00  0.25910768005E+02  0.25910768005E+02  0.00000000000E+00 0.  1.
         -2   -1    0    0    0  501 -0.00000000000E+00 -0.00000000000E+00 -0.51978113432E+03  0.51978113432E+03  0.00000000000E+00 0. -1.
         25    2    1    2    0    0  0.33762773200E+02  0.12429119023E+01 -0.22813401514E+03  0.26236235577E+03  0.12508959661E+03 0.  0.
          5    1    3    3  502    0 -0.74822982236E+01 -0.41039240827E+01 -0.21946815851E+03  0.21967378537E+03  0.41800000000E+01 0. -1.
         -5    1    3    3    0  502  0.41245071424E+02  0.53468359850E+01 -0.86658566287E+01  0.42688570402E+02  0.41800000000E+01 0. -1.
        -11    1    1    2    0    0  0.12392212026E+02  0.20184469370E+02 -0.16291024030E+02  0.28746776978E+02  0.00000000000E+00 0.  1.
         11    1    1    2    0    0 -0.46154985227E+02 -0.21427381272E+02 -0.24944532714E+03  0.25458276957E+03  0.00000000000E+00 0. -1.
</event>
<event>
 7    1  0.2856214E-009  0.1162561E+03  0.7561462E-02  0.1249404E+00
         -1   -1    0    0    0  501 -0.00000000000E+00  0.00000000000E+00  0.24546258210E+02  0.24546258210E+02  0.00000000000E+00 0.  1.
          1   -1    0    0  501    0  0.00000000000E+00 -0.00000000000E+00 -0.91663294022E+03  0.91663294022E+03  0.00000000000E+00 0. -1.
         25    2    1    2    0    0 -0.59110601535E+02  0.43840146047E+02 -0.59806755240E+03  0.61542485767E+03  0.12508771557E+03 0.  0.
          5    1    3    3  502    0 -0.86925008273E+02  0.54367338738E+02 -0.32758182645E+03  0.34327698729E+03  0.41800000000E+01 0.  1.
         -5    1    3    3    0  502  0.27814406738E+02 -0.10527192692E+02 -0.27048572595E+03  0.27214787037E+03  0.41800000000E+01 0.  1.
        -11    1    1    2    0    0  0.19242188971E+02 -0.55162977787E+02 -0.46170240599E+02  0.74464132787E+02  0.00000000000E+00 0.  1.
         11    1    1    2    0    0  0.39868412564E+02  0.11322831740E+02 -0.24784888901E+03  0.25129020798E+03  0.00000000000E+00 0. -1.
</event>
<event>
 7    1  0.2856214E-009  0.1239948E+03  0.7561462E-02  0.1236649E+00
          2   -1    0    0  501    0  0.00000000000E+00  0.00000000000E+00  0.45299115014E+03  0.45299115014E+03  0.00000000000E+00 0. -1.
         -2   -1    0    0    0  501 -0.00000000000E+00 -0.00000000000E+00 -0.49905092675E+02  0.49905092675E+02  0.00000000000E+00 0.  1.
         25    2    1    2    0    0  0.57398789637E+02  0.47529821480E+02  0.97927253738E+02  0.17547356887E+03  0.12509005303E+03 0.  0.
          5    1    3    3  502    0  0.90257139411E+02  0.46480989017E+02  0.40930488857E+02  0.10954273537E+03  0.41800000000E+01 0. -1.
         -5    1    3    3    0  502 -0.32858349774E+02  0.10488324624E+01  0.56996764881E+02  0.65930833502E+02  0.41800000000E+01 0. -1.
        -11    1    1    2    0    0 -0.69656679373E+02 -0.59707179914E+01  0.23291752019E+03  0.24318362130E+03  0.00000000000E+00 0. -1.
         11    1    1    2    0    0  0.12257889736E+02 -0.41559103488E+02  0.72241283538E+02  0.84239052646E+02  0.00000000000E+00 0.  1.
</event>
<event>
 7    1  0.2856214E-009  0.1224189E+03  0.7561462E-02  0.1239159E+00
          1   -1    0    0  501    0  0.00000000000E+00  0.00000000000E+00  0.77588060045E+03  0.77588060045E+03  0.00000000000E+00 0. -1.
         -1   -1    0    0    0  501 -0.00000000000E+00 -0.00000000000E+00 -0.30556294243E+02  0.30556294243E+02  0.00000000000E+00 0.  1.
         25    2    1    2    0    0 -0.99683729231E+02 -0.11038883998E+02  0.53535815855E+03  0.55885049344E+03  0.12508722263E+03 0.  0.
          5    1    3    3  502    0  0.14368033680E+02 -0.25406968924E+02  0.36601741596E+02  0.47001216469E+02  0.41800000000E+01 0. -1.
         -5    1    3    3    0  502 -0.11405176291E+03  0.14368084926E+02  0.49875641695E+03  0.51184927698E+03  0.41800000000E+01 0. -1.
        -11    1    1    2    0    0  0.29016928361E+02  0.43266625307E+01  0.38499039302E+01  0.29589253124E+02  0.00000000000E+00 0.  1.
         11    1    1    2    0    0  0.70666800871E+02  0.67122214674E+01  0.20611624372E+03  0.21799714812E+03  0.00000000000E+00 0. -1.
</event>
<event>
 7    1  0.2856214E-009  0.9300980E+02  0.7561462E-02  0.1295722E+00
         -1   -1    0    0    0  501 -0.00000000000E+00  0.00000000000E+00  0.21045821052E+02  0.21045821052E+02  0.00000000000E+00 0.  1.
          1   -1    0    0  501    0  0.00000000000E+00 -0.00000000000E+00 -0.71469985388E+03  0.71469985388E+03  0.00000000000E+00 0. -1.
         25    2    1    2    0    0  0.15392688496E+01 -0.20215561595E+02 -0.58150725989E+03  0.59515470949E+03  0.12508955447E+03 0.  0.
          5    1    3    3  502    0  0.38411307071E+01  0.52607157575E+02 -0.21143240616E+03  0.21795275196E+03  0.41800000000E+01 0. -1.
         -5    1    3    3    0  502 -0.23018618574E+01 -0.72822719170E+02 -0.37007485373E+03  0.37720195753E+03  0.41800000000E+01 0. -1.
        -11    1    1    2    0    0  0.12476192056E+02  0.36540775780E+02 -0.15547721402E+02  0.41624695839E+02  0.00000000000E+00 0.  1.
         11    1    1    2    0    0 -0.14015460906E+02 -0.16325214185E+02 -0.96599051535E+02  0.98966269608E+02  0.00000000000E+00 0. -1.
</event>
<event>
 7    1  0.2856214E-009  0.8690391E+02  0.7561462E-02  0.1310527E+00
         -3   -1    0    0    0  501 -0.00000000000E+00  0.00000000000E+00  0.18612858761E+03  0.18612858761E+03  0.00000000000E+00 0.  1.
          3   -1    0    0  501    0  0.00000000000E+00 -0.00000000000E+00 -0.84825617160E+02  0.84825617160E+02  0.00000000000E+00 0. -1.
         25    2    1    2    0    0 -0.60276839023E+02  0.13058488294E+02  0.78152758345E+02  0.15987305124E+03  0.12509083674E+03 0.  0.
          5    1    3    3  502    0 -0.19642738536E+02 -0.37876867502E+02  0.84012413540E+02  0.94318886220E+02  0.41800000000E+01 0.  1.
         -5    1    3    3    0  502 -0.40634100486E+02  0.50935355796E+02 -0.58596551954E+01  0.65554165020E+02  0.41800000000E+01 0.  1.
        -11    1    1    2    0    0  0.23774383927E+02 -0.16561799224E+02 -0.33064518641E+02  0.43963358808E+02  0.00000000000E+00 0. -1.
         11    1    1    2    0    0  0.36502455096E+02  0.35033109306E+01  0.56214730750E+02  0.67117794725E+02  0.00000000000E+00 0.  1.
</event>
<event>
 7    1  0.2856214E-009  0.1283539E+03  0.7561462E-02  0.1229919E+00
          4   -1    0    0  501    0  0.00000000000E+00  0.00000000000E+00  0.17044692241E+03  0.17044692241E+03  0.00000000000E+00 0. -1.
         -4   -1    0    0    0  501 -0.00000000000E+00 -0.00000000000E+00 -0.20134441811E+03  0.20134441811E+03  0.00000000000E+00 0.  1.
         25    2    1    2    0    0  0.56552209635E+02  0.83774401569E+02  0.93530201517E+02  0.18603921862E+03  0.12508552872E+03 0.  0.
          5    1    3    3  502    0  0.82944862657E+02  0.31500426500E+02  0.18430022467E+02  0.90715297712E+02  0.41800000000E+01 0. -1.
         -5    1    3    3    0  502 -0.26392653022E+02  0.52273975069E+02  0.75100179050E+02  0.95323920903E+02  0.41800000000E+01 0. -1.
        -11    1    1    2    0    0 -0.19149062114E+02 -0.19988677881E+01 -0.85713103993E+02  0.87848837490E+02  0.00000000000E+00 0.  1.
         11    1    1    2    0    0 -0.37403147521E+02 -0.81775533781E+02 -0.38714593222E+02  0.97903284408E+02  0.00000000000E+00 0. -1.
</event>
<event>
 7    1  0.2856214E-009  0.1217656E+03  0.7561462E-02  0.1240212E+00
         -2   -1    0    0    0  501 -0.00000000000E+00  0.00000000000E+00  0.84465224541E+02  0.84465224541E+02  0.00000000000E+00 0.  1.
          2   -1    0    0  501    0  0.00000000000E+00 -0.00000000000E+00 -0.24685891461E+03  0.24685891461E+03  0.00000000000E+00 0. -1.
         25    2    1    2    0    0 -0.76231761290E+02  0.10473809126E+02 -0.25386013966E+02  0.14904183088E+03  0.12509210823E+03 0.  0.
          5    1    3    3  502    0 -0.27820659812E+02 -0.47965362716E+02 -0.43865378773E+02  0.70825906191E+02  0.41800000000E+01 0. -1.
         -5    1    3    3    0  502 -0.48411101478E+02  0.58439171842E+02  0.18479364807E+02  0.78215924693E+02  0.41800000000E+01 0. -1.
        -11    1    1    2    0    0  0.27166895002E+02 -0.44553743639E+02 -0.31267626610E+02  0.60833713763E+02  0.00000000000E+00 0.  1.
         11    1    1    2    0    0  0.49064866288E+02  0.34079934513E+02 -0.10574004950E+03  0.12144859451E+03  0.00000000000E+00 0. -1.
</event>
<event>
 7    1  0.2856214E-009  0.6951026E+02  0.7561462E-02  0.1361766E+00
          1   -1    0    0  501    0  0.00000000000E+00  0.00000000000E+00  0.74099347187E+02  0.74099347187E+02  0.00000000000E+00 0. -1.
         -1   -1    0    0    0  501 -0.00000000000E+00 -0.00000000000E+00 -0.18048161165E+03  0.18048161165E+03  0.00000000000E+00 0.  1.
         25    2    1    2    0    0 -0.19099517263E+02  0.19311561122E+02 -0.28370015189E+02  0.13109769992E+03  0.12507606169E+03 0.  0.
          5    1    3    3  502    0 -0.29566467170E+02 -0.13415412040E+02 -0.69809675656E+02  0.77103907011E+02  0.41800000000E+01 0. -1.
         -5    1    3    3    0  502  0.10466949908E+02  0.32726973162E+02  0.41439660467E+02  0.53993792906E+02  0.41800000000E+01 0. -1.
        -11    1    1    2    0    0  0.14601737155E+02 -0.44112331386E+02 -0.55912589392E+01  0.46801396184E+02  0.00000000000E+00 0. -1.
         11    1    1    2    0    0  0.44977801078E+01  0.24800770264E+02 -0.72420990335E+02  0.76681862736E+02  0.00000000000E+00 0.  1.
</event>
<event>
 7    1  0.2856214E-009  0.1681800E+03  0.7561462E-02  0.1179759E+00
          1   -1    0    0  501    0  0.00000000000E+00  0.00000000000E+00  0.19258724161E+03  0.19258724161E+03  0.00000000000E+00 0. -1.
         -1   -1    0    0    0  501 -0.00000000000E+00 -0.00000000000E+00 -0.31192980565E+03  0.31192980565E+03  0.00000000000E+00 0.  1.
         25    2    1    2    0    0 -0.66061519580E+02 -0.12901148153E+03  0.10982424002E+03  0.22072149745E+03  0.12509408062E+03 0.  0.
          5    1    3    3  502    0 -0.88896406942E+02 -0.13978831676E+03  0.98066488841E+02  0.19255610430E+03  0.41800000000E+01 0.  1.
         -5    1    3    3    0  502  0.22834887362E+02  0.10776835234E+02  0.11757751180E+02  0.28165393150E+02  0.41800000000E+01 0.  1.
        -11    1    1    2    0    0  0.15386344720E+02  0.25036175494E+02 -0.27120765692E+01  0.29511100395E+02  0.00000000000E+00 0. -1.
         11    1    1    2    0    0  0.50675174860E+02  0.10397530604E+03 -0.22645472749E+03  0.25428444942E+03  0.00000000000E+00 0.  1.
</event>
<event>
 7    1  0.2856214E-009  0.9959335E+02  0.7561462E-02  0.1281153E+00
          2   -1    0    0  501    0  0.00000000000E+00  0.00000000000E+00  0.76828435045E+03  0.76828435045E+03  0.00000000000E+00 0. -1.
         -2   -1    0    0    0  501 -0.00000000000E+00 -0.00000000000E+00 -0.22775975677E+02  0.22775975677E+02  0.00000000000E+00 0.  1.
         25    2    1    2    0    0  0.69376303679E+00  0.65519191757E+01  0.61998650135E+03  0.63251419577E+03  0.12509011573E+03 0.  0.
          5    1    3    3  502    0  0.16193687163E+02  0.56848634900E+02  0.18312712829E+03  0.19247602529E+03  0.41800000000E+01 0.  1.
         -5    1    3    3    0  502 -0.15499924127E+02 -0.50296715724E+02  0.43685937305E+03  0.44003817049E+03  0.41800000000E+01 0.  1.
        -11    1    1    2    0    0 -0.31709714640E+01  0.40195011710E+02  0.93517180243E+02  0.10183887778E+03  0.00000000000E+00 0. -1.
         11    1    1    2    0    0  0.24772084272E+01 -0.46746930885E+02  0.32004693182E+02  0.56707252574E+02  0.00000000000E+00 0.  1.
</event>
<event>
 7    1  0.2856214E-009  0.1492275E+03  0.7561462E-02  0.1201425E+00
         -1   -1    0    0    0  501 -0.00000000000E+00  0.00000000000E+00  0.33586803724E+02  0.33586803724E+02  0.00000000000E+00 0. -1.
          1   -1    0    0  501    0  0.00000000000E+00 -0.00000000000E+00 -0.77824529425E+03  0.77824529425E+03  0.00000000000E+00 0.  1.
         25    2    1    2    0    0 -0.11848565451E+03 -0.87561019692E+01 -0.41193747741E+03  0.44660582494E+03  0.12509499561E+03 0.  0.
          5    1    3    3  502    0 -0.45819208755E+02 -0.65140019177E+02 -0.21139595989E+03  0.22593881084E+03  0.41800000000E+01 0.  1.
         -5    1    3    3    0  502 -0.72666445755E+02  0.56383917208E+02 -0.20054151753E+03  0.22066701410E+03  0.41800000000E+01 0.  1.
        -11    1    1    2    0    0  0.29702807182E+02  0.21872900567E+02 -0.24690858721E+02  0.44388275908E+02  0.00000000000E+00 0. -1.
         11    1    1    2    0    0  0.88782847328E+02 -0.13116798598E+02 -0.30803015439E+03  0.32083799713E+03  0.00000000000E+00 0.  1.
</event>
<event>
 7    1  0.2856214E-009  0.9672606E+02  0.7561462E-02  0.1287335E+00
          1   -1    0    0  501    0  0.00000000000E+00  0.00000000000E+00  0.35583003919E+03  0.35583003919E+03  0.00000000000E+00 0. -1.
         -1   -1    0    0    0  501 -0.00000000000E+00 -0.00000000000E+00 -0.50208555793E+02  0.50208555793E+02  0.00000000000E+00 0.  1.
         25    2    1    2    0    0  0.23570771527E+02 -0.66450039664E+02  0.11765026219E+03  0.18563600798E+03  0.12509178321E+03 0.  0.
          5    1    3    3  502    0  0.30156442842E+02 -0.13156835501E+02  0.12674501568E+03  0.13101253667E+03  0.41800000000E+01 0.  1.
         -5    1    3    3    0  502 -0.65856713141E+01 -0.53293204163E+02 -0.90947534973E+01  0.54623471309E+02  0.41800000000E+01 0.  1.
        -11    1    1    2    0    0 -0.31990317290E+02 -0.67897472921E+01  0.23825409142E+02  0.40461477845E+02  0.00000000000E+00 0.  1.
         11    1    1    2    0    0  0.84195457623E+01  0.73239786956E+02  0.16414581206E+03  0.17994110915E+03  0.00000000000E+00 0. -1.
</event>
<event>
 7    1  0.2856214E-009  0.9494274E+02  0.7561462E-02  0.1291305E+00
         -1   -1    0    0    0  501 -0.00000000000E+00  0.00000000000E+00  0.65967920521E+02  0.65967920521E+02  0.00000000000E+00 0.  1.
          1   -1    0    0  501    0  0.00000000000E+00 -0.00000000000E+00 -0.26235429540E+03  0.26235429540E+03  0.00000000000E+00 0. -1.
         25    2    1    2    0    0  0.31844677454E+02  0.61981514260E+02 -0.11558484056E+03  0.18402072824E+03  0.12509189207E+03 0.  0.
          5    1    3    3  502    0  0.24905905732E+02  0.38999251815E+01 -0.12234818436E+03  0.12498825614E+03  0.41800000000E+01 0. -1.
         -5    1    3    3    0  502  0.69387717213E+01  0.58081589079E+02  0.67633437999E+01  0.59032472100E+02  0.41800000000E+01 0. -1.
        -11    1    1    2    0    0 -0.80043147097E+01  0.19346979410E+02 -0.49862604632E+02  0.54080070331E+02  0.00000000000E+00 0. -1.
         11    1    1    2    0    0 -0.23840362744E+02 -0.81328493670E+02 -0.30938929686E+02  0.90221417350E+02  0.00000000000E+00 0.  1.
</event>
<event>
 7    1  0.2856214E-009  0.1971479E+03  0.7561462E-02  0.1152168E+00
         -1   -1    0    0    0  501 -0.00000000000E+00  0.00000000000E+00  0.20981229927E+03  0.20981229927E+03  0.00000000000E+00 0.  1.
          1   -1    0    0  501    0  0.00000000000E+00 -0.00000000000E+00 -0.21226037665E+03  0.21226037665E+03  0.00000000000E+00 0. -1.
         25    2    1    2    0    0 -0.17896664957E+03  0.21325283715E+02 -0.94390197288E+01  0.21959183506E+03  0.12509056538E+03 0.  0.
          5    1    3    3  502    0  0.32522159260E+01 -0.21106411557E+02  0.20707183589E+02  0.30038597994E+02  0.41800000000E+01 0. -1.
         -5    1    3    3    0  502 -0.18221886550E+03  0.42431695273E+02 -0.30146203318E+02  0.18955323706E+03  0.41800000000E+01 0. -1.
        -11    1    1    2    0    0  0.57456324833E+02 -0.27559657911E+02  0.41457640895E+02  0.76023022803E+02  0.00000000000E+00 0.  1.
         11    1    1    2    0    0  0.12151032474E+03  0.62343741956E+01 -0.34466698549E+02  0.12645781806E+03  0.00000000000E+00 0. -1.
</event>
<event>
 7    1  0.2856214E-009  0.1575845E+03  0.7561462E-02  0.1191451E+00
          1   -1    0    0  501    0  0.00000000000E+00  0.00000000000E+00  0.41532664836E+03  0.41532664836E+03  0.00000000000E+00 0. -1.
         -1   -1    0    0    0  501 -0.00000000000E+00 -0.00000000000E+00 -0.67384003164E+02  0.67384003164E+02  0.00000000000E+00 0.  1.
         25    2    1    2    0    0 -0.56964901971E+02  0.10337849555E+03  0.26261492929E+03  0.31392166507E+03  0.12509235514E+03 0.  0.
          5    1    3    3  502    0  0.22932319052E+02  0.84415919739E+02  0.11038057092E+03  0.14090167351E+03  0.41800000000E+01 0.  1.
         -5    1    3    3    0  502 -0.79897221023E+02  0.18962575812E+02  0.15223435837E+03  0.17301999155E+03  0.41800000000E+01 0.  1.
        -11    1    1    2    0    0 -0.14782586084E+02 -0.59412507878E+02  0.30964778657E+02  0.68608953213E+02  0.00000000000E+00 0. -1.
         11    1    1    2    0    0  0.71747488055E+02 -0.43965987673E+02  0.54362937247E+02  0.10018003324E+03  0.00000000000E+00 0.  1.
</event>
<event>
 7    1  0.2856214E-009  0.1158012E+03  0.7561462E-02  0.1250189E+00
         -2   -1    0    0    0  501 -0.00000000000E+00  0.00000000000E+00  0.19459663756E+02  0.19459663756E+02  0.00000000000E+00 0.  1.
          2   -1    0    0  501    0  0.00000000000E+00 -0.00000000000E+00 -0.69794003243E+03  0.69794003243E+03  0.00000000000E+00 0. -1.
         25    2    1    2    0    0 -0.35884125288E+02 -0.20210108743E+02 -0.40975532063E+03  0.43040045870E+03  0.12509601561E+03 0.  0.
          5    1    3    3  502    0 -0.81517631145E+02 -0.23417172997E+02 -0.24185309724E+03  0.25632768330E+03  0.41800000000E+01 0.  1.
         -5    1    3    3    0  502  0.45633505857E+02  0.32070642539E+01 -0.16790222339E+03  0.17407277540E+03  0.41800000000E+01 0.  1.
        -11    1    1    2    0    0  0.15822899351E+02  0.56831062585E+02 -0.16052514101E+03  0.17102179602E+03  0.00000000000E+00 0.  1.
         11    1    1    2    0    0  0.20061225937E+02 -0.36620953841E+02 -0.10819990703E+03  0.11597744146E+03  0.00000000000E+00 0. -1.
</event>
<event>
 7    1  0.2856214E-009  0.1379221E+03  0.7561462E-02  0.1216153E+00
          2   -1    0    0  501    0  0.00000000000E+00  0.00000000000E+00  0.12668517469E+03  0.12668517469E+03  0.00000000000E+00 0.  1.
         -2   -1    0    0    0  501 -0.00000000000E+00 -0.00000000000E+00 -0.20342329086E+03  0.20342329086E+03  0.00000000000E+00 0. -1.
         25    2    1    2    0    0  0.11171213140E+03 -0.14911198363E+02 -0.10025528820E+02  0.16865823474E+03  0.12507255805E+03 0.  0.
          5    1    3    3  502    0  0.12218714608E+03 -0.13399079906E+02  0.30374796434E+02  0.12668596871E+03  0.41800000000E+01 0.  1.
         -5    1    3    3    0  502 -0.10475014678E+02 -0.15121184567E+01 -0.40400325254E+02  0.41972266026E+02  0.41800000000E+01 0.  1.
        -11    1    1    2    0    0 -0.91300158839E+02 -0.26701762563E+02 -0.64727660284E+02  0.11505812937E+03  0.00000000000E+00 0. -1.
         11    1    1    2    0    0 -0.20411972564E+02  0.41612960926E+02 -0.19849270596E+01  0.46392101444E+02  0.00000000000E+00 0.  1.
</event>
<event>
 7    1  0.2856214E-009  0.2413653E+03  0.7561462E-02  0.1118887E+00
         -2   -1    0    0    0  501 -0.00000000000E+00  0.00000000000E+00  0.49169175696E+02  0.49169175696E+02  0.00000000000E+00 0. -1.
          2   -1    0    0  501    0  0.00000000000E+00 -0.00000000000E+00 -0.18008156574E+04  0.18008156574E+04  0.00000000000E+00 0.  1.
         25    2    1    2    0    0  0.21413452321E+03  0.58288548152E+02 -0.38044759658E+03  0.45786541115E+03  0.12509681094E+03 0.  0.
          5    1    3    3  502    0  0.44313134483E+02 -0.27816309019E+02 -0.14992985281E+03  0.15885161031E+03  0.41800000000E+01 0.  1.
         -5    1    3    3    0  502  0.16982138873E+03  0.86104857171E+02 -0.23051774377E+03  0.29901380083E+03  0.41800000000E+01 0.  1.
        -11    1    1    2    0    0 -0.44777088771E+02  0.24764132192E+02 -0.25296464285E+03  0.25808789288E+03  0.00000000000E+00 0.  1.
         11    1    1    2    0    0 -0.16935743444E+03 -0.83052680344E+02 -0.11182342423E+04  0.11340315291E+04  0.00000000000E+00 0. -1.
</event>
<event>
 7    1  0.2856214E-009  0.1243101E+03  0.7561462E-02  0.1236151E+00
         -2   -1    0    0    0  501 -0.00000000000E+00  0.00000000000E+00  0.53149471443E+02  0.53149471443E+02  0.00000000000E+00 0.  1.
          2   -1    0    0  501    0  0.00000000000E+00 -0.00000000000E+00 -0.36244389118E+03  0.36244389118E+03  0.00000000000E+00 0. -1.
         25    2    1    2    0    0 -0.47843126433E+02 -0.56783315010E+02 -0.10131469831E+03  0.17726796039E+03  0.12508378024E+03 0.  0.
          5    1    3    3  502    0 -0.54734587725E+02  0.18698498802E+02 -0.79276082443E+02  0.98222597189E+02  0.41800000000E+01 0. -1.
         -5    1    3    3    0  502  0.68914612921E+01 -0.75481813812E+02 -0.22038615863E+02  0.79045363205E+02  0.41800000000E+01 0. -1.
        -11    1    1    2    0    0  0.27002691959E+02  0.79458012955E+02 -0.16861686873E+03  0.18834640855E+03  0.00000000000E+00 0.  1.
         11    1    1    2    0    0  0.20840434475E+02 -0.22674697945E+02 -0.39362852708E+02  0.49978993680E+02  0.00000000000E+00 0. -1.
</event>
<event>
 7    1  0.2856214E-009  0.1031335E+03  0.7561462E-02  0.1273841E+00
         -1   -1    0    0    0  501 -0.00000000000E+00  0.00000000000E+00  0.91047901529E+02  0.91047901529E+02  0.00000000000E+00 0.  1.
          1   -1    0    0  501    0  0.00000000000E+00 -0.00000000000E+00 -0.20417221523E+03  0.20417221523E+03  0.00000000000E+00 0. -1.
         25    2    1    2    0    0  0.53701127879E+02  0.22008583400E+02  0.24606411056E+01  0.13793371012E+03  0.12510581423E+03 0.  0.
          5    1    3    3  502    0 -0.85281355552E+00 -0.38506090935E+02  0.32931596521E+02  0.50846915142E+02  0.41800000000E+01 0.  1.
         -5    1    3    3    0  502  0.54553941435E+02  0.60514674335E+02 -0.30470955415E+02  0.87086794980E+02  0.41800000000E+01 0.  1.
        -11    1    1    2    0    0 -0.42330723623E+01 -0.34632200598E+02 -0.46897951960E+01  0.35203727059E+02  0.00000000000E+00 0.  1.
         11    1    1    2    0    0 -0.49468055517E+02  0.12623617198E+02 -0.11089515961E+03  0.12208267958E+03  0.00000000000E+00 0. -1.
</event>
<event>
 7    1  0.2856214E-009  0.9468167E+02  0.7561462E-02  0.1291895E+00
          2   -1    0    0  501    0  0.00000000000E+00  0.00000000000E+00  0.62074484912E+03  0.62074484912E+03  0.00000000000E+00 0. -1.
         -2   -1    0    0    0  501 -0.00000000000E+00 -0.00000000000E+00 -0.21878092382E+02  0.21878092382E+02  0.00000000000E+00 0.  1.
         25    2    1    2    0    0 -0.11763424969E+02  0.42345278127E+02  0.36876696093E+03  0.39187737422E+03  0.12508918501E+03 0.  0.
          5    1    3    3  502    0 -0.53297867720E+02 -0.10617827178E+02  0.24439497429E+03  0.25039923485E+03  0.41800000000E+01 0. -1.
         -5    1    3    3    0  502  0.41534442751E+02  0.52963105305E+02  0.12437198665E+03  0.14147813937E+03  0.41800000000E+01 0. -1.
        -11    1    1    2    0    0  0.91954907508E+01  0.10816758911E+02 -0.37791214201E+00  0.14202187897E+02  0.00000000000E+00 0.  1.
         11    1    1    2    0    0  0.25679342184E+01 -0.53162037038E+02  0.23047770794E+03  0.23654337938E+03  0.00000000000E+00 0. -1.
</event>
<event>
 7    1  0.2856214E-009  0.1164614E+03  0.7561462E-02  0.1249051E+00
         -1   -1    0    0    0  501 -0.00000000000E+00  0.00000000000E+00  0.23446315662E+02  0.23446315662E+02  0.00000000000E+00 0.  1.
          1   -1    0    0  501    0  0.00000000000E+00 -0.00000000000E+00 -0.82260261379E+03  0.82260261379E+03  0.00000000000E+00 0. -1.
         25    2    1    2    0    0 -0.76695775052E+02  0.38447149640E+02 -0.45959844517E+03  0.48398197704E+03  0.12508956019E+03 0.  0.
          5    1    3    3  502    0  0.28743952396E+02 -0.94791724429E+01 -0.52871518154E+02  0.61065041894E+02  0.41800000000E+01 0. -1.
         -5    1    3    3    0  502 -0.10543972745E+03  0.47926322083E+02 -0.40672692702E+03  0.42291693515E+03  0.41800000000E+01 0. -1.
        -11    1    1    2    0    0  0.10541700191E+02 -0.97611220257E+01  0.57181033377E+00  0.14378244440E+02  0.00000000000E+00 0.  1.
         11    1    1    2    0    0  0.66154074862E+02 -0.28686027614E+02 -0.34012966329E+03  0.34768870797E+03  0.00000000000E+00 0. -1.
</event>
<event>
 7    1  0.2856214E-009  0.3408302E+03  0.7561462E-02  0.1066443E+00
          2   -1    0    0  501    0  0.00000000000E+00  0.00000000000E+00  0.35630976017E+03  0.35630976017E+03  0.00000000000E+00 0. -1.
         -2   -1    0    0    0  501 -0.00000000000E+00 -0.00000000000E+00 -0.35312422391E+03  0.35312422391E+03  0.00000000000E+00 0.  1.
         25    2    1    2    0    0  0.57541966117E+02  0.33197166544E+03  0.19484031877E+02  0.35992076989E+03  0.12508824318E+03 0.  0.
          5    1    3    3  502    0  0.25043714361E+02  0.19701691947E+03  0.72223456397E+02  0.21136829053E+03  0.41800000000E+01 0. -1.
         -5    1    3    3    0  502  0.32498251756E+02  0.13495474597E+03 -0.52739424519E+02  0.14855247936E+03  0.41800000000E+01 0. -1.
        -11    1    1    2    0    0  0.58844064351E+01 -0.17130083629E+03  0.21334298517E+02  0.17272450621E+03  0.00000000000E+00 0.  1.
         11    1    1    2    0    0 -0.63426372552E+02 -0.16067082915E+03 -0.37632794131E+02  0.17678870798E+03  0.00000000000E+00 0. -1.
</event>
<event>
 7    1  0.2856214E-009  0.1175741E+03  0.7561462E-02  0.1247153E+00
          4   -1    0    0  501    0  0.00000000000E+00  0.00000000000E+00  0.80667244076E+02  0.80667244076E+02  0.00000000000E+00 0. -1.
         -4   -1    0    0    0  501 -0.00000000000E+00 -0.00000000000E+00 -0.25816803232E+03  0.25816803232E+03  0.00000000000E+00 0.  1.
         25    2    1    2    0    0 -0.64979844903E+02  0.46243947816E+02 -0.15216479509E+03  0.21251375433E+03  0.12508832064E+03 0.  0.
          5    1    3    3  502    0 -0.78185408957E+02  0.17144591972E+02 -0.29055503333E+02  0.85256025485E+02  0.41800000000E+01 0. -1.
         -5    1    3    3    0  502  0.13205564054E+02  0.29099355844E+02 -0.12310929176E+03  0.12725772884E+03  0.41800000000E+01 0. -1.
        -11    1    1    2    0    0  0.25075240471E+02 -0.71346535226E+02 -0.78152743953E+01  0.76027457457E+02  0.00000000000E+00 0. -1.
         11    1    1    2    0    0  0.39904604432E+02  0.25102587410E+02 -0.17520718758E+02  0.50294064613E+02  0.00000000000E+00 0.  1.
</event>
<event>
 7    1  0.2856214E-009  0.7189434E+02  0.7561462E-02  0.1353767E+00
          3   -1    0    0  501    0  0.00000000000E+00  0.00000000000E+00  0.89755666066E+02  0.89755666066E+02  0.00000000000E+00 0.  1.
         -3   -1    0    0    0  501 -0.00000000000E+00 -0.00000000000E+00 -0.15889672296E+03  0.15889672296E+03  0.00000000000E+00 0. -1.
         25    2    1    2    0    0 -0.41643039734E+02  0.21181780192E+02 -0.92120562760E+01  0.13384311947E+03  0.12508520327E+03 0.  0.
          5    1    3    3  502    0  0.50677959733E+01  0.54320478116E+01 -0.61367657889E+02  0.61956852198E+02  0.41800000000E+01 0.  1.
         -5    1    3    3    0  502 -0.46710835707E+02  0.15749732380E+02  0.52155601613E+02  0.71886267271E+02  0.41800000000E+01 0.  1.
        -11    1    1    2    0    0 -0.13461600169E+02 -0.27211734456E+02 -0.49997423407E+02  0.58493038206E+02  0.00000000000E+00 0. -1.
         11    1    1    2    0    0  0.55104639903E+02  0.60299542640E+01 -0.99315772076E+01  0.56316231347E+02  0.00000000000E+00 0.  1.
</event>
<event>
 7    1  0.2856214E-009  0.1012720E+03  0.7561462E-02  0.1277644E+00
          2   -1    0    0  501    0  0.00000000000E+00  0.00000000000E+00  0.95238270530E+02  0.95238270530E+02  0.00000000000E+00 0. -1.
         -2   -1    0    0    0  501 -0.00000000000E+00 -0.00000000000E+00 -0.15226148330E+03  0.15226148330E+03  0.00000000000E+00 0.  1.
         25    2    1    2    0    0  0.31517594356E+02  0.41926241478E+02 -0.36234229361E+02  0.14039976506E+03  0.12509199084E+03 0.  0.
          5    1    3    3  502    0 -0.32520044445E+02  0.56048239382E+01  0.27325528807E+02  0.43047929877E+02  0.41800000000E+01 0. -1.
         -5    1    3    3    0  502  0.64037638801E+02  0.36321417539E+02 -0.63559758168E+02  0.97351835184E+02  0.41800000000E+01 0. -1.
        -11    1    1    2    0    0 -0.49702720708E+02  0.15044511765E+00 -0.33003167172E+02  0.59662317445E+02  0.00000000000E+00 0.  1.
         11    1    1    2    0    0  0.18185126352E+02 -0.42076686595E+02  0.12214183766E+02  0.47437671321E+02  0.00000000000E+00 0. -1.
</event>
<event>
 7    1  0.2856214E-009  0.1144240E+03  0.7561462E-02  0.1252590E+00
         -1   -1    0    0    0  501 -0.00000000000E+00  0.00000000000E+00  0.87143392778E+02  0.87143392778E+02  0.00000000000E+00 0.  1.
          1   -1    0    0  501    0  0.00000000000E+00 -0.00000000000E+00 -0.18566965929E+03  0.18566965929E+03  0.00000000000E+00 0. -1.
         25    2    1    2    0    0  0.27971532349E+02 -0.29103864549E+02  0.74463155015E+00  0.13143585719E+03  0.12508152751E+03 0.  0.
          5    1    3    3  502    0  0.24414145448E+02  0.47313422513E+02 -0.91578397945E+01  0.54184396993E+02  0.41800000000E+01 0.  1.
         -5    1    3    3    0  502  0.35573869015E+01 -0.76417287062E+02  0.99024713447E+01  0.77251460194E+02  0.41800000000E+01 0.  1.
        -11    1    1    2    0    0 -0.52089724076E+02  0.45909034552E+02 -0.56697773375E+02  0.89641599235E+02  0.00000000000E+00 0.  1.
         11    1    1    2    0    0  0.24118191727E+02 -0.16805170003E+02 -0.42573124687E+02  0.51735595643E+02  0.00000000000E+00 0. -1.
</event>
<event>
 7    1  0.2856214E-009  0.1156668E+03  0.7561462E-02  0.1250422E+00
          2   -1    0    0  501    0  0.00000000000E+00  0.00000000000E+00  0.12519691368E+04  0.12519691368E+04  0.00000000000E+00 0. -1.
         -2   -1    0    0    0  501 -0.00000000000E+00 -0.00000000000E+00 -0.14697282749E+02  0.14697282749E+02  0.00000000000E+00 0.  1.
         25    2    1    2    0    0 -0.48717220158E+02  0.45222830418E+02  0.92202544130E+03  0.93284314499E+03  0.12508775651E+03 0.  0.
          5    1    3    3  502    0 -0.59445441884E+02  0.82743527034E+02  0.69728979045E+03  0.70470616294E+03  0.41800000000E+01 0.  1.
         -5    1    3    3    0  502  0.10728221726E+02 -0.37520696617E+02  0.22473565085E+03  0.22813698205E+03  0.41800000000E+01 0.  1.
        -11    1    1    2    0    0  0.25032868700E+01 -0.43809749704E+02  0.25019919810E+03  0.25401810830E+03  0.00000000000E+00 0. -1.
         11    1    1    2    0    0  0.46213933288E+02 -0.14130807142E+01  0.65047214654E+02  0.79805166257E+02  0.00000000000E+00 0.  1.
</event>
<event>
 7    1  0.2856214E-009  0.9857650E+02  0.7561462E-02  0.1283318E+00
         -3   -1    0    0    0  501 -0.00000000000E+00  0.00000000000E+00  0.93760635187E+03  0.93760635187E+03  0.00000000000E+00 0.  1.
          3   -1    0    0  501    0  0.00000000000E+00 -0.00000000000E+00 -0.23459997226E+02  0.23459997226E+02  0.00000000000E+00 0. -1.
         25    2    1    2    0    0 -0.83208919760E+02  0.32125817411E+02  0.62635077722E+03  0.64491681440E+03  0.12508640575E+03 0.  0.
          5    1    3    3  502    0  0.57972494318E+01 -0.27538927953E+01 -0.30791639751E+01  0.82550395086E+01  0.41800000000E+01 0. -1.
         -5    1    3    3    0  502 -0.89006169192E+02  0.34879710206E+02  0.62942994120E+03  0.63666177490E+03  0.41800000000E+01 0. -1.
        -11    1    1    2    0    0  0.32970748852E+02 -0.28250538049E+02  0.24846307916E+03  0.25222820002E+03  0.00000000000E+00 0.  1.
         11    1    1    2    0    0  0.50238170908E+02 -0.38752793621E+01  0.39332498259E+02  0.63921334667E+02  0.00000000000E+00 0. -1.
</event>
<event>
 7    1  0.2856214E-009  0.1255297E+03  0.7561462E-02  0.1234244E+00
         -2   -1    0    0    0  501 -0.00000000000E+00  0.00000000000E+00  0.25276531443E+02  0.25276531443E+02  0.00000000000E+00 0. -1.
          2   -1    0    0  501    0  0.00000000000E+00 -0.00000000000E+00 -0.67246033554E+03  0.67246033554E+03  0.00000000000E+00 0.  1.
         25    2    1    2    0    0  0.65681290124E+02 -0.14331128855E+02 -0.28026483027E+03  0.31419048527E+03  0.12509145782E+03 0.  0.
          5    1    3    3  502    0 -0.19866208765E+01 -0.58360391190E+02 -0.14825178150E+03  0.15939242467E+03  0.41800000000E+01 0. -1.
         -5    1    3    3    0  502  0.67667911001E+02  0.44029262336E+02 -0.13201304877E+03  0.15479806060E+03  0.41800000000E+01 0. -1.
        -11    1    1    2    0    0  0.19548095819E+02 -0.11422955171E+02 -0.78010915632E+02  0.81230012389E+02  0.00000000000E+00 0.  1.
         11    1    1    2    0    0 -0.85229385943E+02  0.25754084025E+02 -0.28890805819E+03  0.30231636932E+03  0.00000000000E+00 0. -1.
</event>
<event>
 7    1  0.2856214E-009  0.1155867E+03  0.7561462E-02  0.1250560E+00
         -2   -1    0    0    0  501 -0.00000000000E+00  0.00000000000E+00  0.58816816904E+02  0.58816816904E+02  0.00000000000E+00 0. -1.
          2   -1    0    0  501    0  0.00000000000E+00 -0.00000000000E+00 -0.38412636894E+03  0.38412636894E+03  0.00000000000E+00 0.  1.
         25    2    1    2    0    0 -0.52163030919E+02  0.70478626634E+02 -0.26035221517E+03  0.30185740358E+03  0.12508556091E+03 0.  0.
          5    1    3    3  502    0 -0.95781380456E+01  0.70039034078E+02 -0.48751526102E+02  0.85973197686E+02  0.41800000000E+01 0.  1.
         -5    1    3    3    0  502 -0.42584892874E+02  0.43959255552E+00 -0.21160068907E+03  0.21588420590E+03  0.41800000000E+01 0.  1.
        -11    1    1    2    0    0  0.65176529651E+02 -0.24249636647E+02 -0.13762140063E+02  0.70890206615E+02  0.00000000000E+00 0. -1.
         11    1    1    2    0    0 -0.13013498731E+02 -0.46228989987E+02 -0.51195196807E+02  0.70195575648E+02  0.00000000000E+00 0.  1.
</event>
<event>
 7    1  0.2856214E-009  0.1623428E+03  0.7561462E-02  0.1186077E+00
         -2   -1    0    0    0  501 -0.00000000000E+00  0.00000000000E+00  0.14500451475E+03  0.14500451475E+03  0.00000000000E+00 0.  1.
          2   -1    0    0  501    0  0.00000000000E+00 -0.00000000000E+00 -0.18949304959E+03  0.18949304959E+03  0.00000000000E+00 0. -1.
         25    2    1    2    0    0  0.12231144362E+03 -0.33576682865E+02 -0.15586221032E+02  0.17882157078E+03  0.12508693384E+03 0.  0.
          5    1    3    3  502    0  0.17540047607E+02 -0.64311206101E+02 -0.19198340247E+02  0.69495562222E+02  0.41800000000E+01 0.  1.
         -5    1    3    3    0  502  0.10477139602E+03  0.30734523236E+02  0.36121192157E+01  0.10932600856E+03  0.41800000000E+01 0.  1.
        -11    1    1    2    0    0 -0.27118486510E+02 -0.24977159182E+02  0.84781512107E+01  0.37830541092E+02  0.00000000000E+00 0.  1.
         11    1    1    2    0    0 -0.95192957113E+02  0.58553842047E+02 -0.37380465017E+02  0.11784545247E+03  0.00000000000E+00 0. -1.
</event>
<event>
 7    1  0.2856214E-009  0.1070472E+03  0.7561462E-02  0.1266138E+00
          1   -1    0    0  501    0  0.00000000000E+00  0.00000000000E+00  0.38792940211E+03  0.38792940211E+03  0.00000000000E+00 0. -1.
         -1   -1    0    0    0  501 -0.00000000000E+00 -0.00000000000E+00 -0.43828211727E+02  0.43828211727E+02  0.00000000000E+00 0.  1.
         25    2    1    2    0    0  0.64607137585E+02  0.14550800977E+02  0.14176059573E+03  0.20032217563E+03  0.12508836681E+03 0.  0.
          5    1    3    3  502    0  0.98238141873E+02 -0.73299026280E+01  0.82110689683E+02  0.12831250037E+03  0.41800000000E+01 0. -1.
         -5    1    3    3    0  502 -0.33631004287E+02  0.21880703605E+02  0.59649906051E+02  0.72009675264E+02  0.41800000000E+01 0. -1.
        -11    1    1    2    0    0 -0.37549609642E+02 -0.26106525400E+02  0.25898628196E+02  0.52557233519E+02  0.00000000000E+00 0.  1.
         11    1    1    2    0    0 -0.27057527943E+02  0.11555724423E+02  0.17644196646E+03  0.17887820469E+03  0.00000000000E+00 0. -1.
</event>
<event>
 7    1  0.2856214E-009  0.9401016E+02  0.7561462E-02  0.1293421E+00
         -1   -1    0    0    0  501 -0.00000000000E+00  0.00000000000E+00  0.64814187419E+01  0.64814187419E+01  0.00000000000E+00 0.  1.
          1   -1    0    0  501    0  0.00000000000E+00 -0.00000000000E+00 -0.22505128588E+04  0.22505128588E+04  0.00000000000E+00 0. -1.
         25    2    1    2    0    0 -0.87671642997E+01  0.10402787861E+02 -0.17184516528E+04  0.17230524003E+04  0.12509360510E+03 0.  0.
          5    1    3    3  502    0  0.10455000134E+02  0.49160367845E+02 -0.32209727542E+03  0.32602174165E+03  0.41800000000E+01 0. -1.
         -5    1    3    3    0  502 -0.19222164434E+02 -0.38757579984E+02 -0.13963543773E+04  0.13970306586E+04  0.41800000000E+01 0. -1.
        -11    1    1    2    0    0 -0.34084470303E+02 -0.31453828110E+02 -0.26130077709E+03  0.26538498550E+03  0.00000000000E+00 0. -1.
         11    1    1    2    0    0  0.42851634603E+02  0.21051040249E+02 -0.26427901015E+03  0.26855689172E+03  0.00000000000E+00 0.  1.
</event>
<event>
 7    1  0.2856214E-009  0.1147633E+03  0.7561462E-02  0.1251995E+00
         -2   -1    0    0    0  501 -0.00000000000E+00  0.00000000000E+00  0.26893630772E+02  0.26893630772E+02  0.00000000000E+00 0. -1.
          2   -1    0    0  501    0  0.00000000000E+00 -0.00000000000E+00 -0.53566561568E+03  0.53566561568E+03  0.00000000000E+00 0.  1.
         25    2    1    2    0    0  0.33218902917E+02 -0.40076839003E+02 -0.36198750859E+03  0.38651690163E+03  0.12510279906E+03 0.  0.
          5    1    3    3  502    0  0.12500913762E+02  0.45489941074E+02 -0.12588693229E+03  0.13450130001E+03  0.41800000000E+01 0. -1.
         -5    1    3    3    0  502  0.20717989155E+02 -0.85566780077E+02 -0.23610057631E+03  0.25201560162E+03  0.41800000000E+01 0. -1.
        -11    1    1    2    0    0 -0.20188732303E+02 -0.22429304770E+02 -0.27907728133E+02  0.41103526783E+02  0.00000000000E+00 0.  1.
         11    1    1    2    0    0 -0.13030170614E+02  0.62506143773E+02 -0.11887674818E+03  0.13493881804E+03  0.00000000000E+00 0. -1.
</event>
<event>
 7    1  0.2856214E-009  0.7212297E+02  0.7561462E-02  0.1353019E+00
         -2   -1    0    0    0  501 -0.00000000000E+00  0.00000000000E+00  0.29319613692E+02  0.29319613692E+02  0.00000000000E+00 0.  1.
          2   -1    0    0  501    0  0.00000000000E+00 -0.00000000000E+00 -0.51383263180E+03  0.51383263180E+03  0.00000000000E+00 0. -1.
         25    2    1    2    0    0 -0.14725789134E+02 -0.29932441979E+02 -0.37118576324E+03  0.39311497140E+03  0.12509080686E+03 0.  0.
          5    1    3    3  502    0 -0.31534386922E+02 -0.36735698755E+02 -0.37133950896E+03  0.37450558399E+03  0.41800000000E+01 0.  1.
         -5    1    3    3    0  502  0.16808597789E+02  0.68032567760E+01  0.15374571981E+00  0.18609387419E+02  0.41800000000E+01 0.  1.
        -11    1    1    2    0    0  0.41500697401E+02  0.28273824859E+02 -0.11249931725E+03  0.12319826882E+03  0.00000000000E+00 0. -1.
         11    1    1    2    0    0 -0.26774908267E+02  0.16586171194E+01 -0.82793761910E+00  0.26839005275E+02  0.00000000000E+00 0.  1.
</event>
<event>
 7    1  0.2856214E-009  0.3201612E+03  0.7561462E-02  0.1075575E+00
          2   -1    0    0  501    0  0.00000000000E+00  0.00000000000E+00  0.10118143944E+03  0.10118143944E+03  0.00000000000E+00 0. -1.
         -2   -1    0    0    0  501 -0.00000000000E+00 -0.00000000000E+00 -0.12780458339E+04  0.12780458339E+04  0.00000000000E+00 0.  1.
         25    2    1    2    0    0  0.21596997193E+03  0.22536594939E+03 -0.86972851247E+03  0.93247414057E+03  0.12508995769E+03 0.  0.
          5    1    3    3  502    0  0.15806707230E+03  0.95994014415E+02 -0.38003161650E+03  0.42266009048E+03  0.41800000000E+01 0. -1.
         -5    1    3    3    0  502  0.57902899630E+02  0.12937193497E+03 -0.48969689597E+03  0.50981405009E+03  0.41800000000E+01 0. -1.
        -11    1    1    2    0    0 -0.47798423689E+02 -0.68781297871E+02 -0.35522128787E+02  0.90980096052E+02  0.00000000000E+00 0. -1.
         11    1    1    2    0    0 -0.16817154824E+03 -0.15658465152E+03 -0.27161375322E+03  0.35577303673E+03  0.00000000000E+00 0.  1.
</event>
<event>
 7    1  0.2856214E-009  0.1222199E+03  0.7561462E-02  0.1239479E+00
         -4   -1    0    0    0  501 -0.00000000000E+00  0.00000000000E+00  0.17884068633E+03  0.17884068633E+03  0.00000000000E+00 0.  1.
          4   -1    0    0  501    0  0.00000000000E+00 -0.00000000000E+00 -0.10699418430E+03  0.10699418430E+03  0.00000000000E+00 0. -1.
         25    2    1    2    0    0  0.80237031542E+02  0.16484455874E+02  0.62322538513E+02  0.16197755591E+03  0.12507162466E+03 0.  0.
          5    1    3    3  502    0  0.98589230263E+02 -0.24417977209E+02  0.57251814675E+02  0.11666754741E+03  0.41800000000E+01 0. -1.
         -5    1    3    3    0  502 -0.18352198720E+02  0.40902433083E+02  0.50707238384E+01  0.45310008500E+02  0.41800000000E+01 0. -1.
        -11    1    1    2    0    0 -0.22299942627E+01  0.13875512077E+02  0.33879987357E+02  0.36679098313E+02  0.00000000000E+00 0.  1.
         11    1    1    2    0    0 -0.78007037280E+02 -0.30359967951E+02 -0.24356023843E+02  0.87178216411E+02  0.00000000000E+00 0. -1.
</event>
<event>
 7    1  0.2856214E-009  0.7589574E+02  0.7561462E-02  0.1341119E+00
         -2   -1    0    0    0  501 -0.00000000000E+00  0.00000000000E+00  0.27675275893E+03  0.27675275893E+03  0.00000000000E+00 0. -1.
          2   -1    0    0  501    0  0.00000000000E+00 -0.00000000000E+00 -0.42768693023E+02  0.42768693023E+02  0.00000000000E+00 0.  1.
         25    2    1    2    0    0 -0.73511538971E+01  0.95141359284E+01  0.13932044320E+03  0.18762750844E+03  0.12509731325E+03 0.  0.
          5    1    3    3  502    0 -0.24243246817E+02 -0.26528604396E+02  0.14293322559E+03  0.14744111111E+03  0.41800000000E+01 0.  1.
         -5    1    3    3    0  502  0.16892092920E+02  0.36042740324E+02 -0.36127823933E+01  0.40186397325E+02  0.41800000000E+01 0.  1.
        -11    1    1    2    0    0  0.37570313709E+02  0.10900293001E+02  0.11014180549E+02  0.40640583569E+02  0.00000000000E+00 0.  1.
         11    1    1    2    0    0 -0.30219159812E+02 -0.20414428929E+02  0.83649442156E+02  0.91253359945E+02  0.00000000000E+00 0. -1.
</event>
<event>
 7    1  0.2856214E-009  0.9687786E+02  0.7561462E-02  0.1287002E+00
          1   -1    0    0  501    0  0.00000000000E+00  0.00000000000E+00  0.16870409500E+03  0.16870409500E+03  0.00000000000E+00 0. -1.
         -1   -1    0    0    0  501 -0.00000000000E+00 -0.00000000000E+00 -0.15695414238E+03  0.15695414238E+03  0.00000000000E+00 0.  1.
         25    2    1    2    0    0 -0.49578983891E+02  0.51701996892E+02 -0.90417704810E+02  0.17015399830E+03  0.12508337086E+03 0.  0.
          5    1    3    3  502    0 -0.46063584500E+02 -0.13499790508E+02 -0.92927083694E+02  0.10467575385E+03  0.41800000000E+01 0. -1.
         -5    1    3    3    0  502 -0.35153993910E+01  0.65201787400E+02  0.25093788839E+01  0.65478244444E+02  0.41800000000E+01 0. -1.
        -11    1    1    2    0    0  0.51924018339E+02 -0.33505280052E+02  0.11321903711E+02  0.62824302427E+02  0.00000000000E+00 0.  1.
         11    1    1    2    0    0 -0.23450344477E+01 -0.18196716840E+02  0.90845753722E+02  0.92679936661E+02  0.00000000000E+00 0. -1.
</event>
<event>
 7    1  0.2856214E-009  0.8561568E+02  0.7561462E-02  0.1313830E+00
         -2   -1    0    0    0  501 -0.00000000000E+00  0.00000000000E+00  0.20952841464E+03  0.20952841464E+03  0.00000000000E+00 0.  1.
          2   -1    0    0  501    0  0.00000000000E+00 -0.00000000000E+00 -0.26628237959E+03  0.26628237959E+03  0.00000000000E+00 0. -1.
         25    2    1    2    0    0 -0.40638851338E+02 -0.22850505039E+02 -0.23529467141E+03  0.27052608762E+03  0.12508844817E+03 0.  0.
          5    1    3    3  502    0 -0.18422663820E+02 -0.39226997052E+02 -0.23848783493E+03  0.24242951893E+03  0.41800000000E+01 0. -1.
         -5    1    3    3    0  502 -0.22216187518E+02  0.16376492013E+02  0.31931635181E+01  0.28096568683E+02  0.41800000000E+01 0. -1.
        -11    1    1    2    0    0 -0.27910383667E+02  0.11977518931E+02  0.71842685025E+02  0.77998858118E+02  0.00000000000E+00 0.  1.
         11    1    1    2    0    0  0.68549235004E+02  0.10872986108E+02  0.10669802145E+03  0.12728584850E+03  0.00000000000E+00 0. -1.
</event>
<event>
 7    1  0.2856214E-009  0.9181027E+02  0.7561462E-02  0.1298526E+00
          2   -1    0    0  501    0  0.00000000000E+00  0.00000000000E+00  0.12858464819E+04  0.12858464819E+04  0.00000000000E+00 0. -1.
         -2   -1    0    0    0  501 -0.00000000000E+00 -0.00000000000E+00 -0.15527374612E+02  0.15527374612E+02  0.00000000000E+00 0.  1.
         25    2    1    2    0    0  0.58682649070E+02 -0.52948875471E+02  0.88891545155E+03  0.90114673275E+03  0.12509003653E+03 0.  0.
          5    1    3    3  502    0  0.47304442800E+02 -0.46862093150E+02  0.88430835087E+03  0.88682157050E+03  0.41800000000E+01 0. -1.
         -5    1    3    3    0  502  0.11378206270E+02 -0.60867823212E+01  0.46071006744E+01  0.14325162253E+02  0.41800000000E+01 0. -1.
        -11    1    1    2    0    0  0.46079210749E+01 -0.11877466797E+02  0.60669212655E+01  0.14110800395E+02  0.00000000000E+00 0.  1.
         11    1    1    2    0    0 -0.63290570145E+02  0.64826342268E+02  0.37533673450E+03  0.38611632339E+03  0.00000000000E+00 0. -1.
</event>
<event>
 7    1  0.2856214E-009  0.1435540E+03  0.7561462E-02  0.1208625E+00
          2   -1    0    0  501    0  0.00000000000E+00  0.00000000000E+00  0.35773480845E+03  0.35773480845E+03  0.00000000000E+00 0. -1.
         -2   -1    0    0    0  501 -0.00000000000E+00 -0.00000000000E+00 -0.21461080922E+03  0.21461080922E+03  0.00000000000E+00 0.  1.
         25    2    1    2    0    0  0.97129543798E+02 -0.64423723961E+02  0.31331365673E+03  0.35692756814E+03  0.12508907593E+03 0.  0.
          5    1    3    3  502    0  0.78194590524E+02  0.21857553945E+02  0.17160612900E+03  0.18989018553E+03  0.41800000000E+01 0. -1.
         -5    1    3    3    0  502  0.18934953274E+02 -0.86281277905E+02  0.14170752773E+03  0.16703738260E+03  0.41800000000E+01 0. -1.
        -11    1    1    2    0    0 -0.42597390736E+02  0.36566975605E+02 -0.13150532525E+03  0.14298717415E+03  0.00000000000E+00 0.  1.
         11    1    1    2    0    0 -0.54532153062E+02  0.27856748356E+02 -0.38684332253E+02  0.72430875381E+02  0.00000000000E+00 0. -1.
</event>
<event>
 7    1  0.2856214E-009  0.1102692E+03  0.7561462E-02  0.1260072E+00
         -1   -1    0    0    0  501 -0.00000000000E+00  0.00000000000E+00  0.54455811004E+02  0.54455811004E+02  0.00000000000E+00 0.  1.
          1   -1    0    0  501    0  0.00000000000E+00 -0.00000000000E+00 -0.22880671055E+03  0.22880671055E+03  0.00000000000E+00 0. -1.
         25    2    1    2    0    0 -0.26143679995E+02  0.10212613572E+02 -0.83486416451E+02  0.15298816729E+03  0.12509039979E+03 0.  0.
          5    1    3    3  502    0 -0.12124063617E+02 -0.57481349513E+02 -0.36256029570E+02  0.69159746534E+02  0.41800000000E+01 0.  1.
         -5    1    3    3    0  502 -0.14019616378E+02  0.67693963085E+02 -0.47230386881E+02  0.83828420756E+02  0.41800000000E+01 0.  1.
        -11    1    1    2    0    0  0.10369478047E+02 -0.49225538774E+02 -0.58709592305E+02  0.77314267578E+02  0.00000000000E+00 0.  1.
         11    1    1    2    0    0  0.15774201948E+02  0.39012925203E+02 -0.32154890786E+02  0.52960086683E+02  0.00000000000E+00 0. -1.
</event>
<event>
 7    1  0.2856214E-009  0.1040004E+03  0.7561462E-02  0.1272102E+00
         -1   -1    0    0    0  501 -0.00000000000E+00  0.00000000000E+00  0.40902971995E+02  0.40902971995E+02  0.00000000000E+00 0.  1.
          1   -1    0    0  501    0  0.00000000000E+00 -0.00000000000E+00 -0.33032073872E+03  0.33032073872E+03  0.00000000000E+00 0. -1.
         25    2    1    2    0    0 -0.40067179246E+02 -0.11106310021E+02 -0.15934895594E+03  0.20681123899E+03  0.12510023916E+03 0.  0.
          5    1    3    3  502    0 -0.19124807214E+02 -0.67920233517E+02 -0.77193052151E+02  0.10466688145E+03  0.41800000000E+01 0.  1.
         -5    1    3    3    0  502 -0.20942372031E+02  0.56813923496E+02 -0.82155903791E+02  0.10214435754E+03  0.41800000000E+01 0.  1.
        -11    1    1    2    0    0  0.36125728587E+02 -0.22647401114E+02 -0.16250939828E+02  0.45629662375E+02  0.00000000000E+00 0.  1.
         11    1    1    2    0    0  0.39414506591E+01  0.33753711135E+02 -0.11381787096E+03  0.11878280936E+03  0.00000000000E+00 0. -1.
</event>
<event>
 7    1  0.2856214E-009  0.8927453E+02  0.7561462E-02  0.1304618E+00
         -1   -1    0    0    0  501 -0.00000000000E+00  0.00000000000E+00  0.56146062085E+02  0.56146062085E+02  0.00000000000E+00 0.  1.
          1   -1    0    0  501    0  0.00000000000E+00 -0.00000000000E+00 -0.33088353629E+03  0.33088353629E+03  0.00000000000E+00 0. -1.
         25    2    1    2    0    0  0.30222861019E+02 -0.75487936254E+02 -0.16597948822E+03  0.22317682982E+03  0.12508739749E+03 0.  0.
          5    1    3    3  502    0  0.18387053468E+02 -0.57877738704E+02 -0.53593457199E+01  0.61107375654E+02  0.41800000000E+01 0.  1.
         -5    1    3    3    0  502  0.11835807551E+02 -0.17610197550E+02 -0.16062014250E+03  0.16206945417E+03  0.41800000000E+01 0.  1.
        -11    1    1    2    0    0 -0.44660842420E+02  0.52752377066E+02 -0.11682285621E+03  0.13573866017E+03  0.00000000000E+00 0. -1.
         11    1    1    2    0    0  0.14437981401E+02  0.22735559188E+02  0.80648702212E+01  0.28114108384E+02  0.00000000000E+00 0.  1.
</event>
<event>
 7    1  0.2856214E-009  0.8495608E+02  0.7561462E-02  0.1315547E+00
         -2   -1    0    0    0  501 -0.00000000000E+00  0.00000000000E+00  0.27732852425E+02  0.27732852425E+02  0.00000000000E+00 0.  1.
          2   -1    0    0  501    0  0.00000000000E+00 -0.00000000000E+00 -0.50474684455E+03  0.50474684455E+03  0.00000000000E+00 0. -1.
         25    2    1    2    0    0 -0.34697007980E+02 -0.17551058879E+02 -0.33074084686E+03  0.35574189430E+03  0.12510341940E+03 0.  0.
          5    1    3    3  502    0  0.93130039432E+01 -0.25309698490E+02 -0.30023456287E+03  0.30147235034E+03  0.41800000000E+01 0.  1.
         -5    1    3    3    0  502 -0.44010011923E+02  0.77586396114E+01 -0.30506283996E+02  0.54269543957E+02  0.41800000000E+01 0.  1.
        -11    1    1    2    0    0  0.56810162065E+02 -0.14655775122E+02 -0.10218979624E+03  0.11783437832E+03  0.00000000000E+00 0. -1.
         11    1    1    2    0    0 -0.22113154085E+02  0.32206834001E+02 -0.44083349022E+02  0.58903424356E+02  0.00000000000E+00 0.  1.
</event>
<event>
 7    1  0.2856214E-009  0.9883975E+02  0.7561462E-02  0.1282755E+00
         -3   -1    0    0    0  501 -0.00000000000E+00  0.00000000000E+00  0.52699097320E+02  0.52699097320E+02  0.00000000000E+00 0.  1.
          3   -1    0    0  501    0  0.00000000000E+00 -0.00000000000E+00 -0.37052412914E+03  0.37052412914E+03  0.00000000000E+00 0. -1.
         25    2    1    2    0    0  0.64899819601E+02 -0.23566777706E+02 -0.25450208396E+03  0.29186780866E+03  0.12509247539E+03 0.  0.
          5    1    3    3  502    0  0.13819668237E+02 -0.48756967711E+02 -0.27534135056E+02  0.57825825751E+02  0.41800000000E+01 0. -1.
         -5    1    3    3    0  502  0.51080151364E+02  0.25190190005E+02 -0.22696794890E+03  0.23404198291E+03  0.41800000000E+01 0. -1.
        -11    1    1    2    0    0 -0.21771998476E+02  0.38377165531E+02 -0.72471682522E+02  0.84846753146E+02  0.00000000000E+00 0. -1.
         11    1    1    2    0    0 -0.43127821126E+02 -0.14810387826E+02  0.91487346538E+01  0.46508664659E+02  0.00000000000E+00 0.  1.
</event>
<event>
 7    1  0.2856214E-009  0.1337929E+03  0.7561462E-02  0.1221934E+00
         -2   -1    0    0    0  501 -0.00000000000E+00  0.00000000000E+00  0.37191452293E+02  0.37191452293E+02  0.00000000000E+00 0. -1.
          2   -1    0    0  501    0  0.00000000000E+00 -0.00000000000E+00 -0.78117759570E+03  0.78117759570E+03  0.00000000000E+00 0.  1.
         25    2    1    2    0    0 -0.29424948349E+02  0.84055928151E+02 -0.62657160801E+03  0.64511246293E+03  0.12508750229E+03 0.  0.
          5    1    3    3  502    0 -0.74721789867E+02  0.71005096289E+02 -0.48466772353E+03  0.49552532147E+03  0.41800000000E+01 0. -1.
         -5    1    3    3    0  502  0.45296841518E+02  0.13050831862E+02 -0.14190388447E+03  0.14958714147E+03  0.41800000000E+01 0. -1.
        -11    1    1    2    0    0  0.23339623464E+02 -0.98604323282E+02 -0.69654969419E+02  0.12296082855E+03  0.00000000000E+00 0. -1.
         11    1    1    2    0    0  0.60853248852E+01  0.14548395131E+02 -0.47759565983E+02  0.50295756508E+02  0.00000000000E+00 0.  1.
</event>
<event>
 7    1  0.2856214E-009  0.1272539E+03  0.7561462E-02  0.1231588E+00
         -1   -1    0    0    0  501 -0.00000000000E+00  0.00000000000E+00  0.83092904306E+02  0.83092904306E+02  0.00000000000E+00 0.  1.
          1   -1    0    0  501    0  0.00000000000E+00 -0.00000000000E+00 -0.25719837179E+03  0.25719837179E+03  0.00000000000E+00 0. -1.
         25    2    1    2    0    0  0.76275019132E+02  0.64166647814E+02 -0.94303664624E+02  0.18567514241E+03  0.12508732994E+03 0.  0.
          5    1    3    3  502    0  0.81103421723E+02  0.74352543229E+02 -0.11658275659E+03  0.16035921312E+03  0.41800000000E+01 0. -1.
         -5    1    3    3    0  502 -0.48284025918E+01 -0.10185895415E+02  0.22279091964E+02  0.25315929288E+02  0.41800000000E+01 0. -1.
        -11    1    1    2    0    0 -0.23391135051E+02 -0.74855654459E+02 -0.45144224621E+02  0.90490415073E+02  0.00000000000E+00 0. -1.
         11    1    1    2    0    0 -0.52883884081E+02  0.10689006645E+02 -0.34657578243E+02  0.64125718617E+02  0.00000000000E+00 0.  1.
</event>
<event>
 7    1  0.2856214E-009  0.1194516E+03  0.7561462E-02  0.1244005E+00
          2   -1    0    0  501    0  0.00000000000E+00  0.00000000000E+00  0.28828107356E+03  0.28828107356E+03  0.00000000000E+00 0. -1.
         -2   -1    0    0    0  501 -0.00000000000E+00 -0.00000000000E+00 -0.86872551212E+02  0.86872551212E+02  0.00000000000E+00 0.  1.
         25    2    1    2    0    0  0.98633823878E+01  0.92234157927E+02  0.27166970653E+02  0.15808219437E+03  0.12509000632E+03 0.  0.
          5    1    3    3  502    0 -0.11699828666E+02  0.11021499351E+03 -0.99461650046E+01  0.11135811324E+03  0.41800000000E+01 0.  1.
         -5    1    3    3    0  502  0.21563211054E+02 -0.17980835582E+02  0.37113135657E+02  0.46724081131E+02  0.41800000000E+01 0.  1.
        -11    1    1    2    0    0  0.26467127966E+01 -0.85221719022E+02  0.18184316147E+03  0.20083994088E+03  0.00000000000E+00 0. -1.
         11    1    1    2    0    0 -0.12510095184E+02 -0.70124389046E+01 -0.76016097736E+01  0.16231489521E+02  0.00000000000E+00 0.  1.
</event>
<event>
 7    1  0.2856214E-009  0.1760876E+03  0.7561462E-02  0.1171644E+00
         -2   -1    0    0    0  501 -0.00000000000E+00  0.00000000000E+00  0.26592867709E+02  0.26592867709E+02  0.00000000000E+00 0. -1.
          2   -1    0    0  501    0  0.00000000000E+00 -0.00000000000E+00 -0.13957752622E+04  0.13957752622E+04  0.00000000000E+00 0.  1.
         25    2    1    2    0    0  0.54081439401E+02  0.14030857549E+03 -0.89296203440E+03  0.91413398036E+03  0.12509372777E+03 0.  0.
          5    1    3    3  502    0 -0.22322869280E+01 -0.19727900703E+02 -0.45084820707E+02  0.49439727237E+02  0.41800000000E+01 0. -1.
         -5    1    3    3    0  502  0.56313726329E+02  0.16003647620E+03 -0.84787721369E+03  0.86469425312E+03  0.41800000000E+01 0. -1.
        -11    1    1    2    0    0 -0.67463436902E+02 -0.10987200914E+03 -0.44241183890E+03  0.46081602502E+03  0.00000000000E+00 0.  1.
         11    1    1    2    0    0  0.13381997501E+02 -0.30436566349E+02 -0.33808521161E+02  0.47418124502E+02  0.00000000000E+00 0. -1.
</event>
<event>
 7    1  0.2856214E-009  0.9226742E+02  0.7561462E-02  0.1297452E+00
         -2   -1    0    0    0  501 -0.00000000000E+00  0.00000000000E+00  0.31104296978E+02  0.31104296978E+02  0.00000000000E+00 0.  1.
          2   -1    0    0  501    0  0.00000000000E+00 -0.00000000000E+00 -0.51136891289E+03  0.51136891289E+03  0.00000000000E+00 0. -1.
         25    2    1    2    0    0 -0.13190594511E+01  0.60352123771E+02 -0.21856069418E+03  0.25896167186E+03  0.12509297219E+03 0.  0.
          5    1    3    3  502    0  0.34815611223E+02 -0.24047398809E+01 -0.16523671615E+03  0.16893357962E+03  0.41800000000E+01 0. -1.
         -5    1    3    3    0  502 -0.36134670674E+02  0.62756863652E+02 -0.53323978025E+02  0.90028092241E+02  0.41800000000E+01 0. -1.
        -11    1    1    2    0    0 -0.19307868096E+02 -0.50351431325E+02 -0.25348741952E+03  0.25916005144E+03  0.00000000000E+00 0. -1.
         11    1    1    2    0    0  0.20626927547E+02 -0.10000692445E+02 -0.82165022146E+01  0.24351486568E+02  0.00000000000E+00 0.  1.
</event>
<event>
 7    1  0.2856214E-009  0.1415042E+03  0.7561462E-02  0.1211319E+00
          2   -1    0    0  501    0  0.00000000000E+00  0.00000000000E+00  0.79573937719E+03  0.79573937719E+03  0.00000000000E+00 0. -1.
         -2   -1    0    0    0  501 -0.00000000000E+00 -0.00000000000E+00 -0.34256294145E+02  0.34256294145E+02  0.00000000000E+00 0.  1.
         25    2    1    2    0    0 -0.27821681403E+02 -0.12121996407E+03  0.42672487060E+03  0.46174788795E+03  0.12509464893E+03 0.  0.
          5    1    3    3  502    0  0.34993807266E+01 -0.90789653731E+02  0.40037001681E+03  0.41057110182E+03  0.41800000000E+01 0.  1.
         -5    1    3    3    0  502 -0.31321062130E+02 -0.30430310343E+02  0.26354853796E+02  0.51176786135E+02  0.41800000000E+01 0.  1.
        -11    1    1    2    0    0  0.35536254807E+02  0.10300600696E+02  0.47413010124E+02  0.60140845599E+02  0.00000000000E+00 0.  1.
         11    1    1    2    0    0 -0.77145734036E+01  0.11091936338E+03  0.28734520232E+03  0.30810693778E+03  0.00000000000E+00 0. -1.
</event>
<event>
 7    1  0.2856214E-009  0.1327124E+03  0.7561462E-02  0.1223486E+00
          2   -1    0    0  501    0  0.00000000000E+00  0.00000000000E+00  0.80692303547E+03  0.80692303547E+03  0.00000000000E+00 0. -1.
         -2   -1    0    0    0  501 -0.00000000000E+00 -0.00000000000E+00 -0.25046191078E+02  0.25046191078E+02  0.00000000000E+00 0.  1.
         25    2    1    2    0    0 -0.40848689935E+02 -0.77531899875E+02  0.36396996778E+03  0.39471591271E+03  0.12508678319E+03 0.  0.
          5    1    3    3  502    0 -0.35184640251E+01 -0.10403024887E+03  0.21672046437E+03  0.24045769762E+03  0.41800000000E+01 0.  1.
         -5    1    3    3    0  502 -0.37330225910E+02  0.26498348996E+02  0.14724950342E+03  0.15425821509E+03  0.41800000000E+01 0.  1.
        -11    1    1    2    0    0 -0.17905472506E+02  0.44297534664E+02  0.84418760905E+02  0.97002086141E+02  0.00000000000E+00 0.  1.
         11    1    1    2    0    0  0.58754162441E+02  0.33234365210E+02  0.33348811570E+03  0.34025122770E+03  0.00000000000E+00 0. -1.
</event>
<event>
 7    1  0.2856214E-009  0.2833273E+03  0.7561462E-02  0.1093885E+00
         -1   -1    0    0    0  501 -0.00000000000E+00  0.00000000000E+00  0.21771747002E+03  0.21771747002E+03  0.00000000000E+00 0.  1.
          1   -1    0    0  501    0  0.00000000000E+00 -0.00000000000E+00 -0.41603385435E+03  0.41603385435E+03  0.00000000000E+00 0. -1.
         25    2    1    2    0    0 -0.18760504822E+03  0.19291575630E+03 -0.13146338619E+03  0.32456342818E+03  0.12508658542E+03 0.  0.
          5    1    3    3  502    0 -0.21908389230E+02  0.10479747400E+03 -0.30419510434E+02  0.11137911424E+03  0.41800000000E+01 0.  1.
         -5    1    3    3    0  502 -0.16569665899E+03  0.88118282306E+02 -0.10104387576E+03  0.21318431393E+03  0.41800000000E+01 0.  1.
        -11    1    1    2    0    0  0.81668804429E+02 -0.11137341827E+03  0.33398601847E+02  0.14208905137E+03  0.00000000000E+00 0. -1.
         11    1    1    2    0    0  0.10593624379E+03 -0.81542338037E+02 -0.10025159999E+03  0.16709884482E+03  0.00000000000E+00 0.  1.
</event>
<event>
 7    1  0.2856214E-009  0.1080007E+03  0.7561462E-02  0.1264318E+00
          1   -1    0    0  501    0  0.00000000000E+00  0.00000000000E+00  0.27075977987E+03  0.27075977987E+03  0.00000000000E+00 0. -1.
         -1   -1    0    0    0  501 -0.00000000000E+00 -0.00000000000E+00 -0.56011825293E+02  0.56011825293E+02  0.00000000000E+00 0.  1.
         25    2    1    2    0    0  0.10441305449E+02  0.25600755575E+02  0.18891810155E+03  0.22825784234E+03  0.12508866437E+03 0.  0.
          5    1    3    3  502    0 -0.50186025184E+02 -0.13472762902E+02  0.10705070322E+03  0.11906921485E+03  0.41800000000E+01 0.  1.
         -5    1    3    3    0  502  0.60627330633E+02  0.39073518478E+02  0.81867398328E+02  0.10918862750E+03  0.41800000000E+01 0.  1.
        -11    1    1    2    0    0  0.38740225687E+02 -0.97375464306E+01  0.24419214546E+02  0.46817976630E+02  0.00000000000E+00 0. -1.
         11    1    1    2    0    0 -0.49181531136E+02 -0.15863209145E+02  0.14106384874E+01  0.51695786194E+02  0.00000000000E+00 0.  1.
</event>
<event>
 7    1  0.2856214E-009  0.8233888E+02  0.7561462E-02  0.1322542E+00
         -1   -1    0    0    0  501 -0.00000000000E+00  0.00000000000E+00  0.15267699051E+03  0.15267699051E+03  0.00000000000E+00 0.  1.
          1   -1    0    0  501    0  0.00000000000E+00 -0.00000000000E+00 -0.13033798623E+03  0.13033798623E+03  0.00000000000E+00 0. -1.
         25    2    1    2    0    0 -0.21634881742E+02  0.48500964274E+02 -0.64886406115E+02  0.15059581798E+03  0.12509373706E+03 0.  0.
          5    1    3    3  502    0 -0.52237377162E+02  0.39961667328E+01  0.14469926185E+02  0.54512054493E+02  0.41800000000E+01 0.  1.
         -5    1    3    3    0  502  0.30602495419E+02  0.44504797541E+02 -0.79356332300E+02  0.96083763489E+02  0.41800000000E+01 0.  1.
        -11    1    1    2    0    0  0.20179344234E+02 -0.16919964976E+02  0.96051199392E+02  0.99595803391E+02  0.00000000000E+00 0.  1.
         11    1    1    2    0    0  0.14555375089E+01 -0.31580999298E+02 -0.88257890044E+01  0.32823355369E+02  0.00000000000E+00 0. -1.
</event>
<event>
 7    1  0.2856214E-009  0.8038438E+02  0.7561462E-02  0.1327964E+00
         -1   -1    0    0    0  501 -0.00000000000E+00  0.00000000000E+00  0.80063678810E+02  0.80063678810E+02  0.00000000000E+00 0.  1.
          1   -1    0    0  501    0  0.00000000000E+00 -0.00000000000E+00 -0.16441482193E+03  0.16441482193E+03  0.00000000000E+00 0. -1.
         25    2    1    2    0    0 -0.26056314210E+02 -0.13509743395E+02 -0.21970482118E+02  0.13035404011E+03  0.12509208213E+03 0.  0.
          5    1    3    3  502    0 -0.12650675892E+02 -0.36182206266E+02 -0.67414901542E+02  0.77662301026E+02  0.41800000000E+01 0.  1.
         -5    1    3    3    0  502 -0.13405638318E+02  0.22672462871E+02  0.45444419424E+02  0.52691739088E+02  0.41800000000E+01 0.  1.
        -11    1    1    2    0    0  0.27574719473E+02  0.51023639808E+02 -0.36607697477E+02  0.68584987336E+02  0.00000000000E+00 0.  1.
         11    1    1    2    0    0 -0.15184052632E+01 -0.37513896413E+02 -0.25772963521E+02  0.45539473287E+02  0.00000000000E+00 0. -1.
</event>
<event>
 7    1  0.2856214E-009  0.2816315E+03  0.7561462E-02  0.1094801E+00
          1   -1    0    0  501    0  0.00000000000E+00  0.00000000000E+00  0.32439399316E+03  0.32439399316E+03  0.00000000000E+00 0. -1.
         -1   -1    0    0    0  501 -0.00000000000E+00 -0.00000000000E+00 -0.24500534341E+03  0.24500534341E+03  0.00000000000E+00 0.  1.
         25    2    1    2    0    0 -0.22591823951E+03 -0.12834084895E+03  0.31753973542E+02  0.29011722750E+03  0.12509702798E+03 0.  0.
          5    1    3    3  502    0 -0.21285317553E+03 -0.64014819202E+02  0.19009559967E+02  0.22312150766E+03  0.41800000000E+01 0.  1.
         -5    1    3    3    0  502 -0.13065063971E+02 -0.64326029744E+02  0.12744413575E+02  0.66995719838E+02  0.41800000000E+01 0.  1.
        -11    1    1    2    0    0  0.39845258779E+02  0.69347541618E+02  0.12794636440E+02  0.80996474598E+02  0.00000000000E+00 0. -1.
         11    1    1    2    0    0  0.18607298073E+03  0.58993307328E+02  0.34840039771E+02  0.19828563447E+03  0.00000000000E+00 0.  1.
</event>
<event>
 7    1  0.2856214E-009  0.1029241E+03  0.7561462E-02  0.1274264E+00
         -1   -1    0    0    0  501 -0.00000000000E+00  0.00000000000E+00  0.48679623279E+02  0.48679623279E+02  0.00000000000E+00 0.  1.
          1   -1    0    0  501    0  0.00000000000E+00 -0.00000000000E+00 -0.27464887655E+03  0.27464887655E+03  0.00000000000E+00 0. -1.
         25    2    1    2    0    0 -0.38665829506E+02  0.24291670554E+01 -0.15010207058E+03  0.19919066752E+03  0.12508134638E+03 0.  0.
          5    1    3    3  502    0  0.37593906191E+02 -0.29377590102E+02 -0.48450943870E+02  0.68127167451E+02  0.41800000000E+01 0. -1.
         -5    1    3    3    0  502 -0.76259735697E+02  0.31806757157E+02 -0.10165112671E+03  0.13106350007E+03  0.41800000000E+01 0. -1.
        -11    1    1    2    0    0  0.43535539407E+02  0.23064125672E+02 -0.60318037423E+01  0.49635468577E+02  0.00000000000E+00 0.  1.
         11    1    1    2    0    0 -0.48697099015E+01 -0.25493292727E+02 -0.69835378948E+02  0.74502363730E+02  0.00000000000E+00 0. -1.
</event>
<event>
 7    1  0.2856214E-009  0.1070326E+03  0.7561462E-02  0.1266166E+00
         -1   -1    0    0    0  501 -0.00000000000E+00  0.00000000000E+00  0.40445398914E+02  0.40445398914E+02  0.00000000000E+00 0.  1.
          1   -1    0    0  501    0  0.00000000000E+00 -0.00000000000E+00 -0.41554151153E+03  0.41554151153E+03  0.00000000000E+00 0. -1.
         25    2    1    2    0    0 -0.71115840688E+02  0.20128862425E+02 -0.20484083414E+03  0.25113756716E+03  0.12509067274E+03 0.  0.
          5    1    3    3  502    0  0.31973477699E+02 -0.57147794963E+01 -0.21489003763E+02  0.39169014075E+02  0.41800000000E+01 0. -1.
         -5    1    3    3    0  502 -0.10308931839E+03  0.25843641921E+02 -0.18335183038E+03  0.21196855308E+03  0.41800000000E+01 0. -1.
        -11    1    1    2    0    0  0.59844362660E+02 -0.21525782473E+02 -0.17935434435E+03  0.19029631602E+03  0.00000000000E+00 0. -1.
         11    1    1    2    0    0  0.11271478028E+02  0.13969200480E+01  0.90990658807E+01  0.14553027261E+02  0.00000000000E+00 0.  1.
</event>
<event>
 7    1  0.3273357E-009  0.1268893E+03  0.7561462E-02  0.1232146E+00
          2   -1    0    0  501    0  0.00000000000E+00  0.00000000000E+00  0.41139576482E+03  0.41139576482E+03  0.00000000000E+00 0. -1.
         -2   -1    0    0    0  501 -0.00000000000E+00 -0.00000000000E+00 -0.48096599389E+02  0.48096599389E+02  0.00000000000E+00 0.  1.
         25    2    1    2    0    0 -0.81996056152E+02  0.28182768187E+02  0.23008793648E+03  0.27587293621E+03  0.12509115384E+03 0.  0.
          5    1    3    3  502    0 -0.71405704617E+02  0.75014563063E+02  0.14808809371E+03  0.18075816778E+03  0.41800000000E+01 0. -1.
         -5    1    3    3    0  502 -0.10590351535E+02 -0.46831794876E+02  0.81999842774E+02  0.95114768422E+02  0.41800000000E+01 0. -1.
        -11    1    1    2    0    0  0.63491735939E+02  0.52622032119E+01  0.13059607925E+03  0.14530735436E+03  0.00000000000E+00 0. -1.
         11    1    1    2    0    0  0.18504320213E+02 -0.33444971399E+02  0.26151496916E+01  0.38312073636E+02  0.00000000000E+00 0.  1.
</event>
<event>
 7    1  0.2856214E-009  0.1046772E+03  0.7561462E-02  0.1270757E+00
         -1   -1    0    0    0  501 -0.00000000000E+00  0.00000000000E+00  0.11507372491E+03  0.11507372491E+03  0.00000000000E+00 0.  1.
          1   -1    0    0  501    0  0.00000000000E+00 -0.00000000000E+00 -0.13941670951E+03  0.13941670951E+03  0.00000000000E+00 0. -1.
         25    2    1    2    0    0 -0.21323309521E+02 -0.10821789176E+02  0.48153158945E+02  0.13615445980E+03  0.12509002981E+03 0.  0.
          5    1    3    3  502    0  0.41170668805E+02 -0.32788372679E+02 -0.21982270638E+01  0.52843220521E+02  0.41800000000E+01 0.  1.
         -5    1    3    3    0  502 -0.62493978326E+02  0.21966583504E+02  0.50351386009E+02  0.83311239283E+02  0.41800000000E+01 0.  1.
        -11    1    1    2    0    0 -0.24179728457E+02  0.31905451429E+02 -0.48060304010E+02  0.62549259953E+02  0.00000000000E+00 0.  1.
         11    1    1    2    0    0  0.45503037978E+02 -0.21083662254E+02 -0.24435839538E+02  0.55786714666E+02  0.00000000000E+00 0. -1.
</event>
<event>
 7    1  0.2856214E-009  0.1101542E+03  0.7561462E-02  0.1260285E+00
         -1   -1    0    0    0  501 -0.00000000000E+00  0.00000000000E+00  0.19562015703E+03  0.19562015703E+03  0.00000000000E+00 0.  1.
          1   -1    0    0  501    0  0.00000000000E+00 -0.00000000000E+00 -0.72010248907E+02  0.72010248907E+02  0.00000000000E+00 0. -1.
         25    2    1    2    0    0  0.47095331769E+02  0.22673089742E+01  0.78330795712E+02  0.15494295504E+03  0.12509394388E+03 0.  0.
          5    1    3    3  502    0 -0.14124890751E+01  0.57635969064E+02  0.48313565405E+02  0.75336399286E+02  0.41800000000E+01 0. -1.
         -5    1    3    3    0  502  0.48507820844E+02 -0.55368660089E+02  0.30017230307E+02  0.79606555751E+02  0.41800000000E+01 0. -1.
        -11    1    1    2    0    0 -0.61064953280E+02 -0.21730169543E+02  0.56728272161E+02  0.86134927003E+02  0.00000000000E+00 0.  1.
         11    1    1    2    0    0  0.13969621511E+02  0.19462860568E+02 -0.11449159746E+02  0.26552523902E+02  0.00000000000E+00 0. -1.
</event>
<event>
 7    1  0.2856214E-009  0.1063712E+03  0.7561462E-02  0.1267441E+00
          1   -1    0    0  501    0  0.00000000000E+00  0.00000000000E+00  0.57365948150E+02  0.57365948150E+02  0.00000000000E+00 0. -1.
         -1   -1    0    0    0  501 -0.00000000000E+00 -0.00000000000E+00 -0.40050611448E+03  0.40050611448E+03  0.00000000000E+00 0.  1.
         25    2    1    2    0    0  0.56519534953E+02 -0.39948717790E+02 -0.30644152174E+03  0.33814572008E+03  0.12508302792E+03 0.  0.
          5    1    3    3  502    0  0.62659340040E+02 -0.55845311836E+02 -0.30917054594E+03  0.32038849952E+03  0.41800000000E+01 0. -1.
         -5    1    3    3    0  502 -0.61398050875E+01  0.15896594045E+02  0.27290241982E+01  0.17757220555E+02  0.41800000000E+01 0. -1.
        -11    1    1    2    0    0 -0.65035969242E+02  0.60554153653E+02 -0.39517439777E+02  0.97252819324E+02  0.00000000000E+00 0.  1.
         11    1    1    2    0    0  0.85164342890E+01 -0.20605435862E+02  0.28187951888E+01  0.22473523231E+02  0.00000000000E+00 0. -1.
</event>
<event>
 7    1  0.2856214E-009  0.1201870E+03  0.7561462E-02  0.1242789E+00
          2   -1    0    0  501    0  0.00000000000E+00  0.00000000000E+00  0.67273249184E+03  0.67273249184E+03  0.00000000000E+00 0. -1.
         -2   -1    0    0    0  501 -0.00000000000E+00 -0.00000000000E+00 -0.37972204158E+02  0.37972204158E+02  0.00000000000E+00 0.  1.
         25    2    1    2    0    0 -0.11172480656E+03  0.28115787363E+02  0.36980447609E+03  0.40703216817E+03  0.12508759128E+03 0.  0.
          5    1    3    3  502    0 -0.43095529415E+02  0.35085511189E+02  0.36452360568E+02  0.66591776834E+02  0.41800000000E+01 0. -1.
         -5    1    3    3    0  502 -0.68629277140E+02 -0.69697238262E+01  0.33335211552E+03  0.34044039134E+03  0.41800000000E+01 0. -1.
        -11    1    1    2    0    0  0.41983967643E+02 -0.14933727002E+02  0.20785772321E+03  0.21258057964E+03  0.00000000000E+00 0. -1.
         11    1    1    2    0    0  0.69740838912E+02 -0.13182060360E+02  0.57098088377E+02  0.91091948183E+02  0.00000000000E+00 0.  1.
</event>
<event>
 7    1  0.2856214E-009  0.1151206E+03  0.7561462E-02  0.1251371E+00
          2   -1    0    0  501    0  0.00000000000E+00  0.00000000000E+00  0.15474145931E+03  0.15474145931E+03  0.00000000000E+00 0. -1.
         -2   -1    0    0    0  501 -0.00000000000E+00 -0.00000000000E+00 -0.93512072312E+02  0.93512072312E+02  0.00000000000E+00 0.  1.
         25    2    1    2    0    0 -0.13511183378E+02 -0.45348081715E+02  0.13388463923E+02  0.13440926649E+03  0.12509036478E+03 0.  0.
          5    1    3    3  502    0  0.27080672671E+02  0.33672380282E+02 -0.46580960225E+01  0.43661908853E+02  0.41800000000E+01 0. -1.
         -5    1    3    3    0  502 -0.40591856049E+02 -0.79020461996E+02  0.18046559945E+02  0.90747357634E+02  0.41800000000E+01 0. -1.
        -11    1    1    2    0    0  0.43544901640E+02  0.51285902614E+02  0.48962053545E+02  0.83208683160E+02  0.00000000000E+00 0. -1.
         11    1    1    2    0    0 -0.30033718262E+02 -0.59378208999E+01 -0.11211304656E+01  0.30635581980E+02  0.00000000000E+00 0.  1.
</event>
<event>
 7    1  0.2856214E-009  0.1746629E+03  0.7561462E-02  0.1173071E+00
         -1   -1    0    0    0  501 -0.00000000000E+00  0.00000000000E+00  0.18374897998E+03  0.18374897998E+03  0.00000000000E+00 0.  1.
          1   -1    0    0  501    0  0.00000000000E+00 -0.00000000000E+00 -0.26298618547E+03  0.26298618547E+03  0.00000000000E+00 0. -1.
         25    2    1    2    0    0 -0.52730434015E+01  0.14218305337E+03 -0.17006298070E+03  0.25458159288E+03  0.12508614782E+03 0.  0.
          5    1    3    3  502    0  0.51841314821E+02  0.49668912359E+02 -0.31780089609E+02  0.78625500144E+02  0.41800000000E+01 0.  1.
         -5    1    3    3    0  502 -0.57114358222E+02  0.92514141007E+02 -0.13828289110E+03  0.17595609274E+03  0.41800000000E+01 0.  1.
        -11    1    1    2    0    0  0.47339168248E+02 -0.88894193794E+02  0.45445838016E+02  0.11049207543E+03  0.00000000000E+00 0.  1.
         11    1    1    2    0    0 -0.42066124847E+02 -0.53288859572E+02  0.45379937204E+02  0.81661497137E+02  0.00000000000E+00 0. -1.
</event>
<event>
 7    1  0.2856214E-009  0.1906478E+03  0.7561462E-02  0.1157878E+00
         -3   -1    0    0    0  501 -0.00000000000E+00  0.00000000000E+00  0.12612214223E+03  0.12612214223E+03  0.00000000000E+00 0.  1.
          3   -1    0    0  501    0  0.00000000000E+00 -0.00000000000E+00 -0.37065852070E+03  0.37065852070E+03  0.00000000000E+00 0. -1.
         25    2    1    2    0    0 -0.17368457914E+03  0.42975719903E+01 -0.20579534092E+03  0.29695782627E+03  0.12508967218E+03 0.  0.
          5    1    3    3  502    0  0.12930971592E+02 -0.61517609917E+01 -0.54347518759E+02  0.56357602725E+02  0.41800000000E+01 0. -1.
         -5    1    3    3    0  502 -0.18661555073E+03  0.10449332982E+02 -0.15144782216E+03  0.24060022355E+03  0.41800000000E+01 0. -1.
        -11    1    1    2    0    0  0.72467724548E+02  0.20306924486E+02  0.23049916226E+02  0.78709852758E+02  0.00000000000E+00 0.  1.
         11    1    1    2    0    0  0.10121685459E+03 -0.24604496476E+02 -0.61790953778E+02  0.12111298390E+03  0.00000000000E+00 0. -1.
</event>
<event>
 7    1  0.2856214E-009  0.8857159E+02  0.7561462E-02  0.1306348E+00
         -2   -1    0    0    0  501 -0.00000000000E+00  0.00000000000E+00  0.13191578332E+02  0.13191578332E+02  0.00000000000E+00 0.  1.
          2   -1    0    0  501    0  0.00000000000E+00 -0.00000000000E+00 -0.91376743248E+03  0.91376743248E+03  0.00000000000E+00 0. -1.
         25    2    1    2    0    0 -0.37840938564E+02 -0.16597228591E+02 -0.68179885542E+03  0.69440952171E+03  0.12508996749E+03 0.  0.
          5    1    3    3  502    0 -0.45548284021E+02  0.32282272169E+02 -0.14683541573E+03  0.15714611986E+03  0.41800000000E+01 0. -1.
         -5    1    3    3    0  502  0.77073454571E+01 -0.48879500760E+02 -0.53496343969E+03  0.53726340185E+03  0.41800000000E+01 0. -1.
        -11    1    1    2    0    0 -0.44370594876E+01 -0.16954472264E+02 -0.20080151699E+02  0.26652469283E+02  0.00000000000E+00 0.  1.
         11    1    1    2    0    0  0.42277998051E+02  0.33551700855E+02 -0.19869684703E+03  0.20589701982E+03  0.00000000000E+00 0. -1.
</event>
<event>
 7    1  0.2856214E-009  0.9256847E+02  0.7561462E-02  0.1296748E+00
          1   -1    0    0  501    0  0.00000000000E+00  0.00000000000E+00  0.25103113316E+03  0.25103113316E+03  0.00000000000E+00 0. -1.
         -1   -1    0    0    0  501 -0.00000000000E+00 -0.00000000000E+00 -0.56542300435E+02  0.56542300435E+02  0.00000000000E+00 0.  1.
         25    2    1    2    0    0  0.21856524112E+02  0.38729825907E+01  0.51607658927E+02  0.13712584260E+03  0.12508972223E+03 0.  0.
          5    1    3    3  502    0  0.34732037632E+02 -0.43074399314E+02  0.65964271843E+02  0.86200208086E+02  0.41800000000E+01 0. -1.
         -5    1    3    3    0  502 -0.12875513520E+02  0.46947381905E+02 -0.14356612915E+02  0.50925634513E+02  0.41800000000E+01 0. -1.
        -11    1    1    2    0    0  0.28685931545E+02  0.59543973303E+01  0.97524928594E+02  0.10183049255E+03  0.00000000000E+00 0. -1.
         11    1    1    2    0    0 -0.50542455657E+02 -0.98273799209E+01  0.45356245206E+02  0.68617098446E+02  0.00000000000E+00 0.  1.
</event>
<event>
 7    1  0.3135642E-009  0.1402662E+03  0.7561462E-02  0.1212971E+00
          2   -1    0    0  501    0  0.00000000000E+00  0.00000000000E+00  0.43747788588E+03  0.43747788588E+03  0.00000000000E+00 0. -1.
         -2   -1    0    0    0  501 -0.00000000000E+00 -0.00000000000E+00 -0.66018110869E+02  0.66018110869E+02  0.00000000000E+00 0.  1.
         25    2    1    2    0    0 -0.14419175678E+02  0.10294633656E+03  0.31390782428E+03  0.35354142294E+03  0.12509018646E+03 0.  0.
          5    1    3    3  502    0 -0.25923788588E+02  0.13003956837E+03  0.26373131007E+03  0.29521857745E+03  0.41800000000E+01 0. -1.
         -5    1    3    3    0  502  0.11504612910E+02 -0.27093231810E+02  0.50176514207E+02  0.58322845490E+02  0.41800000000E+01 0. -1.
        -11    1    1    2    0    0  0.34783749569E+02 -0.46074709940E+02 -0.10802946124E+02  0.58732374165E+02  0.00000000000E+00 0. -1.
         11    1    1    2    0    0 -0.20364573891E+02 -0.56871626621E+02  0.68354896857E+02  0.91222199648E+02  0.00000000000E+00 0.  1.
</event>
<event>
 7    1  0.2856214E-009  0.8682578E+02  0.7561462E-02  0.1310726E+00
          2   -1    0    0  501    0  0.00000000000E+00  0.00000000000E+00  0.25982470674E+03  0.25982470674E+03  0.00000000000E+00 0. -1.
         -2   -1    0    0    0  501 -0.00000000000E+00 -0.00000000000E+00 -0.49731985995E+02  0.49731985995E+02  0.00000000000E+00 0.  1.
         25    2    1    2    0    0  0.17999862961E+02  0.71684462209E+01  0.15154816580E+03  0.19745610834E+03  0.12508671582E+03 0.  0.
          5    1    3    3  502    0 -0.48519008763E+01 -0.50208080702E+02  0.11481498254E+03  0.12547647161E+03  0.41800000000E+01 0.  1.
         -5    1    3    3    0  502  0.22851763837E+02  0.57376526923E+02  0.36733183253E+02  0.71979636733E+02  0.41800000000E+01 0.  1.
        -11    1    1    2    0    0 -0.39334701424E+02 -0.57619978013E+01 -0.94173693711E+01  0.40854696188E+02  0.00000000000E+00 0.  1.
         11    1    1    2    0    0  0.21334838463E+02 -0.14064484196E+01  0.67961924321E+02  0.71245888210E+02  0.00000000000E+00 0. -1.
</event>
<event>
 7    1  0.2856214E-009  0.1004138E+03  0.7561462E-02  0.1279428E+00
         -2   -1    0    0    0  501 -0.00000000000E+00  0.00000000000E+00  0.31873564562E+03  0.31873564562E+03  0.00000000000E+00 0. -1.
          2   -1    0    0  501    0  0.00000000000E+00 -0.00000000000E+00 -0.43248498496E+02  0.43248498496E+02  0.00000000000E+00 0.  1.
         25    2    1    2    0    0 -0.35062757702E+02  0.21660978772E+02  0.12907620498E+03  0.18440921468E+03  0.12508995478E+03 0.  0.
          5    1    3    3  502    0  0.38594562627E+02  0.39453219836E+02  0.62146832625E+02  0.83221379615E+02  0.41800000000E+01 0. -1.
         -5    1    3    3    0  502 -0.73657320328E+02 -0.17792241064E+02  0.66929372359E+02  0.10118783506E+03  0.41800000000E+01 0. -1.
        -11    1    1    2    0    0  0.18813319196E+02 -0.40531186603E+02  0.20389603225E+02  0.49116738352E+02  0.00000000000E+00 0.  1.
         11    1    1    2    0    0  0.16249438506E+02  0.18870207831E+02  0.12602133892E+03  0.12845819109E+03  0.00000000000E+00 0. -1.
</event>
<event>
 7    1  0.2856214E-009  0.1271135E+03  0.7561462E-02  0.1231803E+00
          1   -1    0    0  501    0  0.00000000000E+00  0.00000000000E+00  0.62531082608E+03  0.62531082608E+03  0.00000000000E+00 0. -1.
         -1   -1    0    0    0  501 -0.00000000000E+00 -0.00000000000E+00 -0.44910914875E+02  0.44910914875E+02  0.00000000000E+00 0.  1.
         25    2    1    2    0    0 -0.52294825923E+02 -0.97928649505E+02  0.43603734305E+03  0.46701159078E+03  0.12508593917E+03 0.  0.
          5    1    3    3  502    0 -0.45753127852E+02 -0.81439522432E+02  0.12842091697E+03  0.15885574852E+03  0.41800000000E+01 0. -1.
         -5    1    3    3    0  502 -0.65416980713E+01 -0.16489127073E+02  0.30761642609E+03  0.30815584227E+03  0.41800000000E+01 0. -1.
        -11    1    1    2    0    0  0.33519080434E+02  0.11334840210E+03  0.11287287896E+03  0.16343706990E+03  0.00000000000E+00 0. -1.
         11    1    1    2    0    0  0.18775745489E+02 -0.15419752599E+02  0.31489689192E+02  0.39773080272E+02  0.00000000000E+00 0.  1.
</event>
<event>
 7    1  0.2856214E-009  0.1354330E+03  0.7561462E-02  0.1219610E+00
         -1   -1    0    0    0  501 -0.00000000000E+00  0.00000000000E+00  0.72709356253E+02  0.72709356253E+02  0.00000000000E+00 0.  1.
          1   -1    0    0  501    0  0.00000000000E+00 -0.00000000000E+00 -0.32271436042E+03  0.32271436042E+03  0.00000000000E+00 0. -1.
         25    2    1    2    0    0 -0.45984734068E+01 -0.94415021307E+02 -0.67589357201E+02  0.17074675447E+03  0.12510312046E+03 0.  0.
          5    1    3    3  502    0  0.49281163715E+02 -0.21795613783E+02 -0.58696452070E+02  0.79789897625E+02  0.41800000000E+01 0.  1.
         -5    1    3    3    0  502 -0.53879637122E+02 -0.72619407524E+02 -0.88929051310E+01  0.90956856845E+02  0.41800000000E+01 0.  1.
        -11    1    1    2    0    0  0.37744066284E+02  0.83105926090E+02 -0.15626327461E+03  0.18096800956E+03  0.00000000000E+00 0. -1.
         11    1    1    2    0    0 -0.33145592877E+02  0.11309095216E+02 -0.26152372359E+02  0.43708952651E+02  0.00000000000E+00 0.  1.
</event>
<event>
 7    1  0.2856214E-009  0.2225928E+03  0.7561462E-02  0.1131965E+00
          2   -1    0    0  501    0  0.00000000000E+00  0.00000000000E+00  0.79966635626E+03  0.79966635626E+03  0.00000000000E+00 0. -1.
         -2   -1    0    0    0  501 -0.00000000000E+00 -0.00000000000E+00 -0.74272070103E+02  0.74272070103E+02  0.00000000000E+00 0.  1.
         25    2    1    2    0    0 -0.10144595611E+03  0.17965535651E+03  0.24288233305E+03  0.34235176602E+03  0.12508227234E+03 0.  0.
          5    1    3    3  502    0 -0.37220050632E+02  0.51744894795E+00  0.92402090974E+02  0.99705660516E+02  0.41800000000E+01 0. -1.
         -5    1    3    3    0  502 -0.64225905480E+02  0.17913790756E+03  0.15048024208E+03  0.24264610550E+03  0.41800000000E+01 0. -1.
        -11    1    1    2    0    0 -0.38793340304E+01 -0.50828662619E+02  0.68509247077E+02  0.85393905586E+02  0.00000000000E+00 0. -1.
         11    1    1    2    0    0  0.10532529014E+03 -0.12882669389E+03  0.41400270603E+03  0.44619275476E+03  0.00000000000E+00 0.  1.
</event>
<event>
 7    1  0.2856214E-009  0.1150042E+03  0.7561462E-02  0.1251574E+00
          3   -1    0    0  501    0  0.00000000000E+00  0.00000000000E+00  0.39427035277E+03  0.39427035277E+03  0.00000000000E+00 0. -1.
         -3   -1    0    0    0  501 -0.00000000000E+00 -0.00000000000E+00 -0.42399094250E+02  0.42399094250E+02  0.00000000000E+00 0.  1.
         25    2    1    2    0    0 -0.70715484065E+02 -0.52928525245E+01  0.17393871740E+03  0.22568139855E+03  0.12509485308E+03 0.  0.
          5    1    3    3  502    0 -0.31460983888E+02 -0.61530783083E+02  0.11913790737E+03  0.13779384654E+03  0.41800000000E+01 0.  1.
         -5    1    3    3    0  502 -0.39254500177E+02  0.56237930559E+02  0.54800810035E+02  0.87887552009E+02  0.41800000000E+01 0.  1.
        -11    1    1    2    0    0  0.80107377966E+02 -0.20645796787E+01  0.18161001065E+03  0.19850352758E+03  0.00000000000E+00 0. -1.
         11    1    1    2    0    0 -0.93918939007E+01  0.73574322032E+01 -0.36774695287E+01  0.12484520888E+02  0.00000000000E+00 0.  1.
</event>
<event>
 7    1  0.3059315E-009  0.1031396E+03  0.7561462E-02  0.1273829E+00
         -1   -1    0    0    0  501 -0.00000000000E+00  0.00000000000E+00  0.20496052148E+02  0.20496052148E+02  0.00000000000E+00 0.  1.
          1   -1    0    0  501    0  0.00000000000E+00 -0.00000000000E+00 -0.96187310874E+03  0.96187310874E+03  0.00000000000E+00 0. -1.
         25    2    1    2    0    0  0.24469113067E+02 -0.16472578936E+02 -0.80714723617E+03  0.81731540015E+03  0.12509084343E+03 0.  0.
          5    1    3    3  502    0  0.45354209265E+02 -0.56251570297E+02 -0.32002534758E+03  0.32810812083E+03  0.41800000000E+01 0.  1.
         -5    1    3    3    0  502 -0.20885096199E+02  0.39778991361E+02 -0.48712188859E+03  0.48920727932E+03  0.41800000000E+01 0.  1.
        -11    1    1    2    0    0  0.11517462199E+02  0.42714057267E+02 -0.98417222945E+02  0.10790316212E+03  0.00000000000E+00 0. -1.
         11    1    1    2    0    0 -0.35986575266E+02 -0.26241478332E+02 -0.35812597476E+02  0.57150598618E+02  0.00000000000E+00 0.  1.
</event>
<event>
 7    1  0.2856214E-009  0.1361415E+03  0.7561462E-02  0.1218617E+00
          2   -1    0    0  501    0  0.00000000000E+00  0.00000000000E+00  0.28461422218E+03  0.28461422218E+03  0.00000000000E+00 0. -1.
         -2   -1    0    0    0  501 -0.00000000000E+00 -0.00000000000E+00 -0.80165702684E+02  0.80165702684E+02  0.00000000000E+00 0.  1.
         25    2    1    2    0    0  0.28750880339E+02 -0.98253265131E+02  0.13921272170E+03  0.21333118036E+03  0.12509873461E+03 0.  0.
          5    1    3    3  502    0  0.74969164325E+02 -0.39149264252E+02  0.57717961447E+02  0.10247866102E+03  0.41800000000E+01 0. -1.
         -5    1    3    3    0  502 -0.46218283986E+02 -0.59104000879E+02  0.81494760251E+02  0.11085251933E+03  0.41800000000E+01 0. -1.
        -11    1    1    2    0    0  0.11731597731E+02  0.38772676855E+02 -0.15438651949E+02  0.43350926516E+02  0.00000000000E+00 0.  1.
         11    1    1    2    0    0 -0.40482478070E+02  0.59480588276E+02  0.80674449743E+02  0.10809781799E+03  0.00000000000E+00 0. -1.
</event>
<event>
 7    1  0.2856214E-009  0.1222928E+03  0.7561462E-02  0.1239362E+00
         -1   -1    0    0    0  501 -0.00000000000E+00  0.00000000000E+00  0.54845961583E+02  0.54845961583E+02  0.00000000000E+00 0.  1.
          1   -1    0    0  501    0  0.00000000000E+00 -0.00000000000E+00 -0.42894819817E+03  0.42894819817E+03  0.00000000000E+00 0. -1.
         25    2    1    2    0    0  0.32193924486E+02  0.99953463648E+02 -0.23398498522E+03  0.28535010418E+03  0.12509422439E+03 0.  0.
          5    1    3    3  502    0  0.12420750684E+02  0.90444635547E+02 -0.24423631977E+03  0.26077453757E+03  0.41800000000E+01 0.  1.
         -5    1    3    3    0  502  0.19773173802E+02  0.95088281008E+01  0.10251334552E+02  0.24575566609E+02  0.41800000000E+01 0.  1.
        -11    1    1    2    0    0  0.24164460471E+02 -0.50075106412E+02 -0.25127604607E+02  0.61015030487E+02  0.00000000000E+00 0.  1.
         11    1    1    2    0    0 -0.56358384957E+02 -0.49878357235E+02 -0.11498964675E+03  0.13742902508E+03  0.00000000000E+00 0. -1.
</event>
<event>
 7    1  0.2856214E-009  0.1028143E+03  0.7561462E-02  0.1274487E+00
         -1   -1    0    0    0  501 -0.00000000000E+00  0.00000000000E+00  0.45106508291E+02  0.45106508291E+02  0.00000000000E+00 0.  1.
          1   -1    0    0  501    0  0.00000000000E+00 -0.00000000000E+00 -0.29943419096E+03  0.29943419096E+03  0.00000000000E+00 0. -1.
         25    2    1    2    0    0  0.30638021618E+02 -0.14606733154E+02 -0.18571023713E+03  0.22646903744E+03  0.12509151739E+03 0.  0.
          5    1    3    3  502    0  0.74138307419E+02  0.18417310513E+01 -0.15102276342E+03  0.16830100437E+03  0.41800000000E+01 0.  1.
         -5    1    3    3    0  502 -0.43500285801E+02 -0.16448464205E+02 -0.34687473708E+02  0.58168033074E+02  0.41800000000E+01 0.  1.
        -11    1    1    2    0    0 -0.42776790687E+01 -0.31369100889E+02 -0.54825176926E+02  0.63309707421E+02  0.00000000000E+00 0. -1.
         11    1    1    2    0    0 -0.26360342549E+02  0.45975834043E+02 -0.13792268621E+02  0.54761954393E+02  0.00000000000E+00 0.  1.
</event>
<event>
 7    1  0.2856214E-009  0.1106170E+03  0.7561462E-02  0.1259432E+00
         -3   -1    0    0    0  501 -0.00000000000E+00  0.00000000000E+00  0.28561991159E+03  0.28561991159E+03  0.00000000000E+00 0.  1.
          3   -1    0    0  501    0  0.00000000000E+00 -0.00000000000E+00 -0.63267142628E+02  0.63267142628E+02  0.00000000000E+00 0. -1.
         25    2    1    2    0    0 -0.71510439959E+02 -0.91686231405E+01  0.78824879401E+02  0.16449447297E+03  0.12508902170E+03 0.  0.
          5    1    3    3  502    0  0.12317305053E+02 -0.25800358467E+02  0.73257501300E+02  0.78749656491E+02  0.41800000000E+01 0. -1.
         -5    1    3    3    0  502 -0.83827745011E+02  0.16631735327E+02  0.55673781009E+01  0.85744816476E+02  0.41800000000E+01 0. -1.
        -11    1    1    2    0    0  0.45828559691E+02  0.43979422018E+02  0.48287022879E+02  0.79787737296E+02  0.00000000000E+00 0.  1.
         11    1    1    2    0    0  0.25681880268E+02 -0.34810798877E+02  0.95240866684E+02  0.10460484396E+03  0.00000000000E+00 0. -1.
</event>
<event>
 7    1  0.2856214E-009  0.1342564E+03  0.7561462E-02  0.1221273E+00
          3   -1    0    0  501    0  0.00000000000E+00  0.00000000000E+00  0.49162307882E+03  0.49162307882E+03  0.00000000000E+00 0. -1.
         -3   -1    0    0    0  501 -0.00000000000E+00 -0.00000000000E+00 -0.64513841664E+02  0.64513841664E+02  0.00000000000E+00 0.  1.
         25    2    1    2    0    0  0.11777927932E+03 -0.23462348758E+01  0.10648559125E+03  0.20215058608E+03  0.12509282495E+03 0.  0.
          5    1    3    3  502    0  0.10461420510E+03 -0.33836587530E+02  0.12211967593E+03  0.16437680558E+03  0.41800000000E+01 0. -1.
         -5    1    3    3    0  502  0.13165074219E+02  0.31490352654E+02 -0.15634084675E+02  0.37773780497E+02  0.41800000000E+01 0. -1.
        -11    1    1    2    0    0 -0.10440387963E+02 -0.11883770819E+02  0.26154628418E+00  0.15820686337E+02  0.00000000000E+00 0.  1.
         11    1    1    2    0    0 -0.10733889136E+03  0.14230005695E+02  0.32036209962E+03  0.33816564807E+03  0.00000000000E+00 0. -1.
</event>
<event>
 7    1  0.2856214E-009  0.3783837E+03  0.7561462E-02  0.1051533E+00
         -1   -1    0    0    0  501 -0.00000000000E+00  0.00000000000E+00  0.14412302013E+03  0.14412302013E+03  0.00000000000E+00 0.  1.
          1   -1    0    0  501    0  0.00000000000E+00 -0.00000000000E+00 -0.10890730528E+04  0.10890730528E+04  0.00000000000E+00 0. -1.
         25    2    1    2    0    0 -0.35387005847E+03 -0.95020661644E+02 -0.31603178608E+03  0.49977738118E+03  0.12509355100E+03 0.  0.
          5    1    3    3  502    0 -0.57584942014E+01  0.16229411297E+02 -0.33230443790E+02  0.37660175796E+02  0.41800000000E+01 0. -1.
         -5    1    3    3    0  502 -0.34811156427E+03 -0.11125007294E+03 -0.28280134228E+03  0.46211720538E+03  0.41800000000E+01 0. -1.
        -11    1    1    2    0    0  0.22579508737E+03  0.96329461679E+02 -0.46032121599E+03  0.52168803758E+03  0.00000000000E+00 0.  1.
         11    1    1    2    0    0  0.12807497111E+03 -0.13088000348E+01 -0.16859703058E+03  0.21173065414E+03  0.00000000000E+00 0. -1.
</event>
<event>
 7    1  0.2856214E-009  0.1313725E+03  0.7561462E-02  0.1225433E+00
         -2   -1    0    0    0  501 -0.00000000000E+00  0.00000000000E+00  0.58169173617E+02  0.58169173617E+02  0.00000000000E+00 0.  1.
          2   -1    0    0  501    0  0.00000000000E+00 -0.00000000000E+00 -0.36274734100E+03  0.36274734100E+03  0.00000000000E+00 0. -1.
         25    2    1    2    0    0 -0.94680975640E+02 -0.16620874820E+02 -0.17639339863E+03  0.23664937661E+03  0.12509019044E+03 0.  0.
          5    1    3    3  502    0 -0.56576785782E+02 -0.55835287304E+02 -0.16114317593E+03  0.17973065277E+03  0.41800000000E+01 0.  1.
         -5    1    3    3    0  502 -0.38104189858E+02  0.39214412484E+02 -0.15250222698E+02  0.56918723840E+02  0.41800000000E+01 0.  1.
        -11    1    1    2    0    0  0.68673663741E+02  0.50756093326E+02 -0.10549029368E+03  0.13572197744E+03  0.00000000000E+00 0.  1.
         11    1    1    2    0    0  0.26007311899E+02 -0.34135218506E+02 -0.22694475080E+02  0.48545160560E+02  0.00000000000E+00 0. -1.
</event>
<event>
 7    1  0.2856214E-009  0.1053986E+03  0.7561462E-02  0.1269336E+00
          1   -1    0    0  501    0  0.00000000000E+00  0.00000000000E+00  0.19929411789E+03  0.19929411789E+03  0.00000000000E+00 0. -1.
         -1   -1    0    0    0  501 -0.00000000000E+00 -0.00000000000E+00 -0.85203829106E+02  0.85203829106E+02  0.00000000000E+00 0.  1.
         25    2    1    2    0    0 -0.70518803526E+01  0.46261019647E+02  0.43147753676E+01  0.13362604145E+03  0.12508993049E+03 0.  0.
          5    1    3    3  502    0 -0.56155142779E+02  0.52690489755E+02 -0.17932450532E+02  0.79175330458E+02  0.41800000000E+01 0. -1.
         -5    1    3    3    0  502  0.49103262426E+02 -0.64294701080E+01  0.22247225900E+02  0.54450710987E+02  0.41800000000E+01 0. -1.
        -11    1    1    2    0    0  0.25173563555E+02 -0.57422226010E+02  0.32305003273E+02  0.70531082357E+02  0.00000000000E+00 0.  1.
         11    1    1    2    0    0 -0.18121683203E+02  0.11161206363E+02  0.77470510142E+02  0.80340823193E+02  0.00000000000E+00 0. -1.
</event>
<event>
 7    1  0.2856214E-009  0.1237466E+03  0.7561462E-02  0.1237041E+00
         -2   -1    0    0    0  501 -0.00000000000E+00  0.00000000000E+00  0.10048098102E+03  0.10048098102E+03  0.00000000000E+00 0.  1.
          2   -1    0    0  501    0  0.00000000000E+00 -0.00000000000E+00 -0.27189695511E+03  0.27189695511E+03  0.00000000000E+00 0. -1.
         25    2    1    2    0    0  0.87136246043E+02  0.28560734592E+02  0.20778667781E+01  0.15511852479E+03  0.12509595624E+03 0.  0.
          5    1    3    3  502    0  0.14323013935E+02 -0.23213610595E+02 -0.45948650053E+02  0.53598239586E+02  0.41800000000E+01 0. -1.
         -5    1    3    3    0  502  0.72813232108E+02  0.51774345186E+02  0.48026516831E+02  0.10152028521E+03  0.41800000000E+01 0. -1.
        -11    1    1    2    0    0 -0.57473952452E+02 -0.62817063482E+02 -0.12029734096E+03  0.14737940465E+03  0.00000000000E+00 0.  1.
         11    1    1    2    0    0 -0.29662293591E+02  0.34256328890E+02 -0.53196499919E+02  0.69880006681E+02  0.00000000000E+00 0. -1.
</event>
<event>
 7    1  0.2856214E-009  0.1394815E+03  0.7561462E-02  0.1214028E+00
         -2   -1    0    0    0  501 -0.00000000000E+00  0.00000000000E+00  0.32083984328E+02  0.32083984328E+02  0.00000000000E+00 0.  1.
          2   -1    0    0  501    0  0.00000000000E+00 -0.00000000000E+00 -0.73888066000E+03  0.73888066000E+03  0.00000000000E+00 0. -1.
         25    2    1    2    0    0  0.10237784263E+03 -0.35218687039E+02 -0.32631637018E+03  0.36585760389E+03  0.12509130384E+03 0.  0.
          5    1    3    3  502    0  0.26031398916E+02 -0.55241224933E+02 -0.24471183457E+03  0.25225102783E+03  0.41800000000E+01 0. -1.
         -5    1    3    3    0  502  0.76346443717E+02  0.20022537894E+02 -0.81604535609E+02  0.11360657606E+03  0.41800000000E+01 0. -1.
        -11    1    1    2    0    0 -0.36361310504E+01  0.39704145086E+02 -0.12330913938E+03  0.12959469295E+03  0.00000000000E+00 0. -1.
         11    1    1    2    0    0 -0.98741711582E+02 -0.44854580468E+01 -0.25717116611E+03  0.27551234749E+03  0.00000000000E+00 0.  1.
</event>
<event>
 7    1  0.2856214E-009  0.8105540E+02  0.7561462E-02  0.1326083E+00
         -1   -1    0    0    0  501 -0.00000000000E+00  0.00000000000E+00  0.13981811698E+03  0.13981811698E+03  0.00000000000E+00 0.  1.
          1   -1    0    0  501    0  0.00000000000E+00 -0.00000000000E+00 -0.94625210295E+02  0.94625210295E+02  0.00000000000E+00 0. -1.
         25    2    1    2    0    0  0.34533253208E+02  0.11819674424E+02  0.39970540231E+02  0.13629986025E+03  0.12509099703E+03 0.  0.
          5    1    3    3  502    0  0.55928285760E+02 -0.14385661881E+02 -0.24893526923E+02  0.63024443659E+02  0.41800000000E+01 0. -1.
         -5    1    3    3    0  502 -0.21395032553E+02  0.26205336305E+02  0.64864067154E+02  0.73275416591E+02  0.41800000000E+01 0. -1.
        -11    1    1    2    0    0 -0.43010623599E+02 -0.28372850193E+02 -0.29049511950E+02  0.59150710182E+02  0.00000000000E+00 0. -1.
         11    1    1    2    0    0  0.84773703917E+01  0.16553175769E+02  0.34271878403E+02  0.38992756841E+02  0.00000000000E+00 0.  1.
</event>
<event>
 7    1  0.2856214E-009  0.2436734E+03  0.7561462E-02  0.1117370E+00
          2   -1    0    0  501    0  0.00000000000E+00  0.00000000000E+00  0.93909592275E+03  0.93909592275E+03  0.00000000000E+00 0.  1.
         -2   -1    0    0    0  501 -0.00000000000E+00 -0.00000000000E+00 -0.80045145079E+02  0.80045145079E+02  0.00000000000E+00 0. -1.
         25    2    1    2    0    0  0.19244515032E+03 -0.13515971817E+03  0.27366971734E+03  0.38189771578E+03  0.12508983105E+03 0.  0.
          5    1    3    3  502    0  0.14240262743E+03 -0.56597531042E+02  0.94952090452E+02  0.18031960709E+03  0.41800000000E+01 0.  1.
         -5    1    3    3    0  502  0.50042522886E+02 -0.78562187132E+02  0.17871762688E+03  0.20157810869E+03  0.41800000000E+01 0.  1.
        -11    1    1    2    0    0 -0.10945675185E+03  0.10728478303E+03  0.45565304006E+03  0.48073953250E+03  0.00000000000E+00 0.  1.
         11    1    1    2    0    0 -0.82988398462E+02  0.27874935145E+02  0.12972802028E+03  0.15650381955E+03  0.00000000000E+00 0. -1.
</event>
<event>
 7    1  0.2856214E-009  0.1168255E+03  0.7561462E-02  0.1248428E+00
          1   -1    0    0  501    0  0.00000000000E+00  0.00000000000E+00  0.29353788917E+03  0.29353788917E+03  0.00000000000E+00 0. -1.
         -1   -1    0    0    0  501 -0.00000000000E+00 -0.00000000000E+00 -0.67710680522E+02  0.67710680522E+02  0.00000000000E+00 0.  1.
         25    2    1    2    0    0  0.98069371428E+01 -0.64388113883E+02  0.20224958137E+03  0.24656599339E+03  0.12509152932E+03 0.  0.
          5    1    3    3  502    0  0.53714765595E+02  0.90802480771E+01  0.90964902010E+02  0.10611226482E+03  0.41800000000E+01 0.  1.
         -5    1    3    3    0  502 -0.43907828453E+02 -0.73468361960E+02  0.11128467936E+03  0.14045372857E+03  0.41800000000E+01 0.  1.
        -11    1    1    2    0    0 -0.13510566504E+02  0.78028042612E+02 -0.84855575735E+01  0.79642422919E+02  0.00000000000E+00 0.  1.
         11    1    1    2    0    0  0.37036293614E+01 -0.13639928729E+02  0.32063184845E+02  0.35040153376E+02  0.00000000000E+00 0. -1.
</event>
<event>
 7    1  0.2856214E-009  0.8390333E+02  0.7561462E-02  0.1318326E+00
          2   -1    0    0  501    0  0.00000000000E+00  0.00000000000E+00  0.77885911367E+03  0.77885911367E+03  0.00000000000E+00 0.  1.
         -2   -1    0    0    0  501 -0.00000000000E+00 -0.00000000000E+00 -0.18476999108E+02  0.18476999108E+02  0.00000000000E+00 0. -1.
         25    2    1    2    0    0  0.35752723223E+02  0.38589080905E+01  0.30133487521E+03  0.32824318800E+03  0.12509090718E+03 0.  0.
          5    1    3    3  502    0  0.51561557371E+00 -0.25123964220E+02  0.21439686933E+01  0.25564593470E+02  0.41800000000E+01 0.  1.
         -5    1    3    3    0  502  0.35237107650E+02  0.28982872311E+02  0.29919090651E+03  0.30267859453E+03  0.41800000000E+01 0.  1.
        -11    1    1    2    0    0  0.17921734004E+02 -0.31425190938E+02  0.16525763089E+03  0.16917096601E+03  0.00000000000E+00 0.  1.
         11    1    1    2    0    0 -0.53674457228E+02  0.27566282848E+02  0.29378960847E+03  0.29992195877E+03  0.00000000000E+00 0. -1.
</event>
<event>
 7    1  0.3775075E-009  0.9481853E+02  0.7561462E-02  0.1291585E+00
         -2   -1    0    0    0  501 -0.00000000000E+00  0.00000000000E+00  0.25336653391E+02  0.25336653391E+02  0.00000000000E+00 0.  1.
          2   -1    0    0  501    0  0.00000000000E+00 -0.00000000000E+00 -0.61424676370E+03  0.61424676370E+03  0.00000000000E+00 0. -1.
         25    2    1    2    0    0 -0.26900586345E+02 -0.38190338173E+02 -0.22426004037E+03  0.26100202796E+03  0.12508936571E+03 0.  0.
          5    1    3    3  502    0 -0.85855728141E+00 -0.56970195495E+02 -0.30902063576E+02  0.64951907043E+02  0.41800000000E+01 0. -1.
         -5    1    3    3    0  502 -0.26042029063E+02  0.18779857321E+02 -0.19335797680E+03  0.19605012091E+03  0.41800000000E+01 0. -1.
        -11    1    1    2    0    0  0.21189538722E+01  0.64181915201E+02 -0.26460845617E+03  0.27228926398E+03  0.00000000000E+00 0. -1.
         11    1    1    2    0    0  0.24781632473E+02 -0.25991577028E+02 -0.10004161376E+03  0.10629212515E+03  0.00000000000E+00 0.  1.
</event>
<event>
 7    1  0.2856214E-009  0.1213372E+03  0.7561462E-02  0.1240907E+00
         -4   -1    0    0    0  501 -0.00000000000E+00  0.00000000000E+00  0.17358999397E+03  0.17358999397E+03  0.00000000000E+00 0. -1.
          4   -1    0    0  501    0  0.00000000000E+00 -0.00000000000E+00 -0.99708037154E+02  0.99708037154E+02  0.00000000000E+00 0.  1.
         25    2    1    2    0    0 -0.40734620413E+02  0.43285637114E+02 -0.65294307954E+01  0.13864520074E+03  0.12508757948E+03 0.  0.
          5    1    3    3  502    0 -0.73418554028E+02  0.62635350118E+02 -0.19005020277E+02  0.98448638161E+02  0.41800000000E+01 0.  1.
         -5    1    3    3    0  502  0.32683933615E+02 -0.19349713004E+02  0.12475589482E+02  0.40196562575E+02  0.41800000000E+01 0.  1.
        -11    1    1    2    0    0 -0.25704020718E+02 -0.31052104517E+02  0.33398568660E+02  0.52348775196E+02  0.00000000000E+00 0. -1.
         11    1    1    2    0    0  0.66438641132E+02 -0.12233532597E+02  0.47012818953E+02  0.82304055192E+02  0.00000000000E+00 0.  1.
</event>
<event>
 7    1  0.2856214E-009  0.1640892E+03  0.7561462E-02  0.1184156E+00
          2   -1    0    0  501    0  0.00000000000E+00  0.00000000000E+00  0.79490312123E+03  0.79490312123E+03  0.00000000000E+00 0.  1.
         -2   -1    0    0    0  501 -0.00000000000E+00 -0.00000000000E+00 -0.37555136731E+02  0.37555136731E+02  0.00000000000E+00 0. -1.
         25    2    1    2    0    0  0.12347099869E+03  0.36367705480E+02  0.30846647164E+03  0.35688615786E+03  0.12509383687E+03 0.  0.
          5    1    3    3  502    0  0.52210876331E+02  0.76043109764E+02  0.11942323894E+03  0.15095665785E+03  0.41800000000E+01 0. -1.
         -5    1    3    3    0  502  0.71260122364E+02 -0.39675404283E+02  0.18904323270E+03  0.20592950001E+03  0.41800000000E+01 0. -1.
        -11    1    1    2    0    0  0.29577009828E+01  0.16772805039E+02  0.85336998627E+02  0.87019988041E+02  0.00000000000E+00 0.  1.
         11    1    1    2    0    0 -0.12642869968E+03 -0.53140510520E+02  0.36354451423E+03  0.38855211207E+03  0.00000000000E+00 0. -1.
</event>
<event>
 7    1  0.2856214E-009  0.9192226E+02  0.7561462E-02  0.1298262E+00
          1   -1    0    0  501    0  0.00000000000E+00  0.00000000000E+00  0.23813847956E+02  0.23813847956E+02  0.00000000000E+00 0. -1.
         -1   -1    0    0    0  501 -0.00000000000E+00 -0.00000000000E+00 -0.52145046209E+03  0.52145046209E+03  0.00000000000E+00 0.  1.
         25    2    1    2    0    0 -0.16509689945E+02 -0.12438651924E+02 -0.32977542995E+03  0.35330772389E+03  0.12508886298E+03 0.  0.
          5    1    3    3  502    0  0.16143390675E+02  0.33027266229E+02 -0.26510423481E+03  0.26767356442E+03  0.41800000000E+01 0. -1.
         -5    1    3    3    0  502 -0.32653080620E+02 -0.45465918153E+02 -0.64671195141E+02  0.85634159472E+02  0.41800000000E+01 0. -1.
        -11    1    1    2    0    0 -0.52647016121E+01  0.48393758712E+02 -0.11135636444E+03  0.12153153034E+03  0.00000000000E+00 0.  1.
         11    1    1    2    0    0  0.21774391557E+02 -0.35955106788E+02 -0.56504819746E+02  0.70425055814E+02  0.00000000000E+00 0. -1.
</event>
<event>
 7    1  0.2856214E-009  0.1025641E+03  0.7561462E-02  0.1274995E+00
          2   -1    0    0  501    0  0.00000000000E+00  0.00000000000E+00  0.24819744653E+03  0.24819744653E+03  0.00000000000E+00 0. -1.
         -2   -1    0    0    0  501 -0.00000000000E+00 -0.00000000000E+00 -0.54341880816E+02  0.54341880816E+02  0.00000000000E+00 0.  1.
         25    2    1    2    0    0  0.35665592637E+02  0.69376762860E+01  0.13394082052E+03  0.18683508489E+03  0.12508812771E+03 0.  0.
          5    1    3    3  502    0  0.62689486116E+02  0.43443907837E+02  0.11359915058E+03  0.13689260101E+03  0.41800000000E+01 0.  1.
         -5    1    3    3    0  502 -0.27023893479E+02 -0.36506231551E+02  0.20341669940E+02  0.49942483887E+02  0.41800000000E+01 0.  1.
        -11    1    1    2    0    0  0.11865302810E+02 -0.28549087262E+02  0.55212936846E+02  0.63279571660E+02  0.00000000000E+00 0. -1.
         11    1    1    2    0    0 -0.47530895446E+02  0.21611410976E+02  0.47018083505E+01  0.52424670796E+02  0.00000000000E+00 0.  1.
</event>
<event>
 7    1  0.2856214E-009  0.1140468E+03  0.7561462E-02  0.1253254E+00
          2   -1    0    0  501    0  0.00000000000E+00  0.00000000000E+00  0.35435126450E+02  0.35435126450E+02  0.00000000000E+00 0. -1.
         -2   -1    0    0    0  501 -0.00000000000E+00 -0.00000000000E+00 -0.37433267808E+03  0.37433267808E+03  0.00000000000E+00 0.  1.
         25    2    1    2    0    0  0.27609408358E+02 -0.12607633128E+02 -0.21908473718E+03  0.25410094878E+03  0.12509171939E+03 0.  0.
          5    1    3    3  502    0 -0.24992415581E+02 -0.55303944416E+02 -0.10190834281E+03  0.11868416001E+03  0.41800000000E+01 0.  1.
         -5    1    3    3    0  502  0.52601823939E+02  0.42696311288E+02 -0.11717639438E+03  0.13541678876E+03  0.41800000000E+01 0.  1.
        -11    1    1    2    0    0 -0.63072648498E+02  0.66388940368E+01 -0.76638002748E+02  0.99476717717E+02  0.00000000000E+00 0. -1.
         11    1    1    2    0    0  0.35463240140E+02  0.59687390908E+01 -0.43174811700E+02  0.56190138039E+02  0.00000000000E+00 0.  1.
</event>
<event>
 7    1  0.2856214E-009  0.9397909E+02  0.7561462E-02  0.1293492E+00
          2   -1    0    0  501    0  0.00000000000E+00  0.00000000000E+00  0.41650736212E+03  0.41650736212E+03  0.00000000000E+00 0. -1.
         -2   -1    0    0    0  501 -0.00000000000E+00 -0.00000000000E+00 -0.44054973221E+02  0.44054973221E+02  0.00000000000E+00 0.  1.
         25    2    1    2    0    0  0.13406788936E+02  0.77763567841E+02  0.17868607058E+03  0.23195691557E+03  0.12509350259E+03 0.  0.
          5    1    3    3  502    0 -0.15447380781E+02  0.70371735385E+02  0.18725639841E+03  0.20068192211E+03  0.41800000000E+01 0.  1.
         -5    1    3    3    0  502  0.28854169717E+02  0.73918324562E+01 -0.85703278349E+01  0.31274993466E+02  0.41800000000E+01 0.  1.
        -11    1    1    2    0    0 -0.21609566863E+02 -0.28479175134E+02  0.85351752359E+01  0.36754401269E+02  0.00000000000E+00 0.  1.
         11    1    1    2    0    0  0.82027779263E+01 -0.49284392707E+02  0.18523114308E+03  0.19185101850E+03  0.00000000000E+00 0. -1.
</event>
<event>
 7    1  0.2856214E-009  0.2547196E+03  0.7561462E-02  0.1110358E+00
          2   -1    0    0  501    0  0.00000000000E+00  0.00000000000E+00  0.95181299610E+03  0.95181299610E+03  0.00000000000E+00 0. -1.
         -2   -1    0    0    0  501 -0.00000000000E+00 -0.00000000000E+00 -0.75424344202E+02  0.75424344202E+02  0.00000000000E+00 0.  1.
         25    2    1    2    0    0  0.55009265361E+02 -0.23305393384E+03  0.35072113952E+03  0.44271037561E+03  0.12508798348E+03 0.  0.
          5    1    3    3  502    0 -0.31034930825E+02 -0.13841114922E+03  0.19434917297E+03  0.24064473108E+03  0.41800000000E+01 0.  1.
         -5    1    3    3    0  502  0.86044196186E+02 -0.94642784625E+02  0.15637196655E+03  0.20206564453E+03  0.41800000000E+01 0.  1.
        -11    1    1    2    0    0 -0.30593457059E+02  0.11501761242E+03  0.15936522756E+03  0.19890270621E+03  0.00000000000E+00 0.  1.
         11    1    1    2    0    0 -0.24415808302E+02  0.11803632142E+03  0.36630228482E+03  0.38562425849E+03  0.00000000000E+00 0. -1.
</event>
<event>
 7    1  0.2856214E-009  0.1265668E+03  0.7561462E-02  0.1232641E+00
          2   -1    0    0  501    0  0.00000000000E+00  0.00000000000E+00  0.74165482199E+02  0.74165482199E+02  0.00000000000E+00 0. -1.
         -2   -1    0    0    0  501 -0.00000000000E+00 -0.00000000000E+00 -0.28662350451E+03  0.28662350451E+03  0.00000000000E+00 0.  1.
         25    2    1    2    0    0 -0.65771764582E+02  0.50699389683E+02 -0.90757759118E+02  0.17544347478E+03  0.12508832428E+03 0.  0.
          5    1    3    3  502    0 -0.88894537694E+02  0.11817360637E+02 -0.21001809453E+02  0.92197815834E+02  0.41800000000E+01 0. -1.
         -5    1    3    3    0  502  0.23122773111E+02  0.38882029046E+02 -0.69755949664E+02  0.83245658942E+02  0.41800000000E+01 0. -1.
        -11    1    1    2    0    0  0.49237222801E+02 -0.74287369907E+02 -0.38106823258E+02  0.96928052780E+02  0.00000000000E+00 0. -1.
         11    1    1    2    0    0  0.16534541781E+02  0.23587980224E+02 -0.83593439931E+02  0.88417459150E+02  0.00000000000E+00 0.  1.
</event>
<event>
 7    1  0.2856214E-009  0.1068684E+03  0.7561462E-02  0.1266481E+00
          2   -1    0    0  501    0  0.00000000000E+00  0.00000000000E+00  0.59615965031E+03  0.59615965031E+03  0.00000000000E+00 0. -1.
         -2   -1    0    0    0  501 -0.00000000000E+00 -0.00000000000E+00 -0.22837875797E+02  0.22837875797E+02  0.00000000000E+00 0.  1.
         25    2    1    2    0    0  0.66529068312E+01  0.38228395183E+02  0.37967070555E+03  0.40162600356E+03  0.12509168924E+03 0.  0.
          5    1    3    3  502    0  0.45965774602E+02 -0.18325041271E+02  0.80373341623E+02  0.94477542390E+02  0.41800000000E+01 0. -1.
         -5    1    3    3    0  502 -0.39312867771E+02  0.56553436453E+02  0.29929736392E+03  0.30714846117E+03  0.41800000000E+01 0. -1.
        -11    1    1    2    0    0  0.35722119155E+02  0.31338087203E+01  0.10327833213E+03  0.10932659531E+03  0.00000000000E+00 0.  1.
         11    1    1    2    0    0 -0.42375025987E+02 -0.41362203903E+02  0.90372736833E+02  0.10804492724E+03  0.00000000000E+00 0. -1.
</event>
<event>
 7    1  0.2856214E-009  0.8241840E+02  0.7561462E-02  0.1322325E+00
          1   -1    0    0  501    0  0.00000000000E+00  0.00000000000E+00  0.79116755896E+03  0.79116755896E+03  0.00000000000E+00 0. -1.
         -1   -1    0    0    0  501 -0.00000000000E+00 -0.00000000000E+00 -0.36648003981E+02  0.36648003981E+02  0.00000000000E+00 0.  1.
         25    2    1    2    0    0 -0.20134902448E+00 -0.28961980381E+02  0.71171734578E+03  0.72320685512E+03  0.12509091961E+03 0.  0.
          5    1    3    3  502    0 -0.47566277023E+02 -0.14505657380E+02  0.12810205600E+03  0.13747935829E+03  0.41800000000E+01 0. -1.
         -5    1    3    3    0  502  0.47364927999E+02 -0.14456323002E+02  0.58361528978E+03  0.58572749683E+03  0.41800000000E+01 0. -1.
        -11    1    1    2    0    0 -0.87085044249E+01 -0.16634218107E+02  0.53701085718E+02  0.56888855399E+02  0.00000000000E+00 0. -1.
         11    1    1    2    0    0  0.89098534493E+01  0.45596198489E+02 -0.10898876520E+02  0.47719852415E+02  0.00000000000E+00 0.  1.
</event>
<event>
 7    1  0.2856214E-009  0.8965065E+02  0.7561462E-02  0.1303700E+00
          2   -1    0    0  501    0  0.00000000000E+00  0.00000000000E+00  0.16623106041E+03  0.16623106041E+03  0.00000000000E+00 0. -1.
         -2   -1    0    0    0  501 -0.00000000000E+00 -0.00000000000E+00 -0.83618298222E+02  0.83618298222E+02  0.00000000000E+00 0.  1.
         25    2    1    2    0    0 -0.48548510103E+02  0.70000401581E+01  0.48330192014E+02  0.14279273167E+03  0.12509195963E+03 0.  0.
          5    1    3    3  502    0 -0.18460834240E+02 -0.51578335904E+02 -0.86388730112E+01  0.55616810969E+02  0.41800000000E+01 0. -1.
         -5    1    3    3    0  502 -0.30087675863E+02  0.58578376062E+02  0.56969065025E+02  0.87175920705E+02  0.41800000000E+01 0. -1.
        -11    1    1    2    0    0  0.21861281991E+02  0.12627020818E+02  0.60015244452E+02  0.65109038326E+02  0.00000000000E+00 0. -1.
         11    1    1    2    0    0  0.26687228112E+02 -0.19627060976E+02 -0.25732674276E+02  0.41947588635E+02  0.00000000000E+00 0.  1.
</event>
<event>
 7    1  0.2856214E-009  0.1085651E+03  0.7561462E-02  0.1263250E+00
          1   -1    0    0  501    0  0.00000000000E+00  0.00000000000E+00  0.88383626917E+02  0.88383626917E+02  0.00000000000E+00 0. -1.
         -1   -1    0    0    0  501 -0.00000000000E+00 -0.00000000000E+00 -0.20631083354E+03  0.20631083354E+03  0.00000000000E+00 0.  1.
         25    2    1    2    0    0 -0.10077406199E+02  0.42806942189E+02  0.88014904599E+01  0.13288645255E+03  0.12508938653E+03 0.  0.
          5    1    3    3  502    0 -0.49622334042E+01  0.80508685870E+02  0.33383182330E+02  0.87396690575E+02  0.41800000000E+01 0.  1.
         -5    1    3    3    0  502 -0.51151727952E+01 -0.37701743681E+02 -0.24581691870E+02  0.45489761975E+02  0.41800000000E+01 0.  1.
        -11    1    1    2    0    0  0.49158327100E+02 -0.23074417400E+02 -0.87729496765E+02  0.10317671474E+03  0.00000000000E+00 0.  1.
         11    1    1    2    0    0 -0.39080920901E+02 -0.19732524789E+02 -0.38999200315E+02  0.58631293165E+02  0.00000000000E+00 0. -1.
</event>
<event>
 7    1  0.2856214E-009  0.1091405E+03  0.7561462E-02  0.1262170E+00
         -2   -1    0    0    0  501 -0.00000000000E+00  0.00000000000E+00  0.39010612008E+02  0.39010612008E+02  0.00000000000E+00 0.  1.
          2   -1    0    0  501    0  0.00000000000E+00 -0.00000000000E+00 -0.35527152864E+03  0.35527152864E+03  0.00000000000E+00 0. -1.
         25    2    1    2    0    0 -0.44928665433E-01  0.27274225807E+02 -0.12176205940E+03  0.17668336378E+03  0.12508847475E+03 0.  0.
          5    1    3    3  502    0 -0.26363760787E+02  0.71537808171E+02 -0.71826937515E+02  0.10482980127E+03  0.41800000000E+01 0.  1.
         -5    1    3    3    0  502  0.26318832121E+02 -0.44263582364E+02 -0.49935121887E+02  0.71853562513E+02  0.41800000000E+01 0.  1.
        -11    1    1    2    0    0  0.42797725365E+02 -0.18449000283E+02 -0.14126690974E+03  0.14875601062E+03  0.00000000000E+00 0. -1.
         11    1    1    2    0    0 -0.42752796700E+02 -0.88252255244E+01 -0.53231947491E+02  0.68842766250E+02  0.00000000000E+00 0.  1.
</event>
<event>
 7    1  0.2856214E-009  0.1235936E+03  0.7561462E-02  0.1237284E+00
          1   -1    0    0  501    0  0.00000000000E+00  0.00000000000E+00  0.24371388470E+03  0.24371388470E+03  0.00000000000E+00 0. -1.
         -1   -1    0    0    0  501 -0.00000000000E+00 -0.00000000000E+00 -0.95750557695E+02  0.95750557695E+02  0.00000000000E+00 0.  1.
         25    2    1    2    0    0 -0.68304639717E+02  0.65711321866E+02  0.21327435031E+02  0.15839117630E+03  0.12509757638E+03 0.  0.
          5    1    3    3  502    0 -0.98682098883E+02  0.70139742882E+02  0.65013846835E+00  0.12114303633E+03  0.41800000000E+01 0.  1.
         -5    1    3    3    0  502  0.30377459166E+02 -0.44284210165E+01  0.20677296562E+02  0.37248139970E+02  0.41800000000E+01 0.  1.
        -11    1    1    2    0    0  0.52758957191E+02 -0.54813969274E+02  0.28697653527E+02  0.81311955513E+02  0.00000000000E+00 0.  1.
         11    1    1    2    0    0  0.15545682526E+02 -0.10897352592E+02  0.97938238444E+02  0.99761310578E+02  0.00000000000E+00 0. -1.
</event>
<event>
 7    1  0.2856214E-009  0.1229624E+03  0.7561462E-02  0.1238289E+00
         -1   -1    0    0    0  501 -0.00000000000E+00  0.00000000000E+00  0.18806161601E+02  0.18806161601E+02  0.00000000000E+00 0. -1.
          1   -1    0    0  501    0  0.00000000000E+00 -0.00000000000E+00 -0.10745056787E+04  0.10745056787E+04  0.00000000000E+00 0.  1.
         25    2    1    2    0    0  0.55837764986E+02  0.47373371506E+02 -0.78318527278E+03  0.79648488322E+03  0.12508759080E+03 0.  0.
          5    1    3    3  502    0  0.77862313170E+02  0.64887145340E+02 -0.41562273640E+03  0.42782310930E+03  0.41800000000E+01 0.  1.
         -5    1    3    3    0  502 -0.22024548185E+02 -0.17513773834E+02 -0.36756253638E+03  0.36866177392E+03  0.41800000000E+01 0.  1.
        -11    1    1    2    0    0  0.17710000246E+02 -0.37959578164E+02 -0.75823629769E+02  0.86624456791E+02  0.00000000000E+00 0.  1.
         11    1    1    2    0    0 -0.73547765232E+02 -0.94137933412E+01 -0.19669061456E+03  0.21020250030E+03  0.00000000000E+00 0. -1.
</event>
<event>
 7    1  0.2856214E-009  0.1318202E+03  0.7561462E-02  0.1224780E+00
         -1   -1    0    0    0  501 -0.00000000000E+00  0.00000000000E+00  0.16833354593E+03  0.16833354593E+03  0.00000000000E+00 0.  1.
          1   -1    0    0  501    0  0.00000000000E+00 -0.00000000000E+00 -0.16998149153E+03  0.16998149153E+03  0.00000000000E+00 0. -1.
         25    2    1    2    0    0 -0.11512247265E+03  0.13863321649E+02  0.56349234751E+02  0.17963423961E+03  0.12509136016E+03 0.  0.
          5    1    3    3  502    0 -0.81623831052E+02  0.28589163827E+02 -0.25178551711E+02  0.90173288452E+02  0.41800000000E+01 0. -1.
         -5    1    3    3    0  502 -0.33498641597E+02 -0.14725842178E+02  0.81527786462E+02  0.89460951158E+02  0.41800000000E+01 0. -1.
        -11    1    1    2    0    0  0.44555402392E+02 -0.44789790168E+02 -0.15968214250E+01  0.63196985880E+02  0.00000000000E+00 0. -1.
         11    1    1    2    0    0  0.70567070257E+02  0.30926468519E+02 -0.56400358926E+02  0.95483811962E+02  0.00000000000E+00 0.  1.
</event>
<event>
 7    1  0.2856214E-009  0.9517592E+02  0.7561462E-02  0.1290780E+00
         -1   -1    0    0    0  501 -0.00000000000E+00  0.00000000000E+00  0.37999560593E+02  0.37999560593E+02  0.00000000000E+00 0.  1.
          1   -1    0    0  501    0  0.00000000000E+00 -0.00000000000E+00 -0.40124063271E+03  0.40124063271E+03  0.00000000000E+00 0. -1.
         25    2    1    2    0    0 -0.27705095234E+02 -0.51521201057E+02 -0.17845788339E+03  0.22564611580E+03  0.12508775708E+03 0.  0.
          5    1    3    3  502    0 -0.85730683904E+01  0.20658958238E+02  0.84951120427E+01  0.24288461988E+02  0.41800000000E+01 0. -1.
         -5    1    3    3    0  502 -0.19132026844E+02 -0.72180159295E+02 -0.18695299543E+03  0.20135765381E+03  0.41800000000E+01 0. -1.
        -11    1    1    2    0    0 -0.25197119770E+00  0.62698660788E+02 -0.65916619236E+02  0.90973546955E+02  0.00000000000E+00 0.  1.
         11    1    1    2    0    0  0.27957066432E+02 -0.11177459730E+02 -0.11886656949E+03  0.12262053055E+03  0.00000000000E+00 0. -1.
</event>
<event>
 7    1  0.2856214E-009  0.1086692E+03  0.7561462E-02  0.1263054E+00
         -2   -1    0    0    0  501 -0.00000000000E+00  0.00000000000E+00  0.42845294503E+02  0.42845294503E+02  0.00000000000E+00 0.  1.
          2   -1    0    0  501    0  0.00000000000E+00 -0.00000000000E+00 -0.48380894897E+03  0.48380894897E+03  0.00000000000E+00 0. -1.
         25    2    1    2    0    0  0.40577425804E+02 -0.21031897677E+02 -0.87291481942E+02  0.15923455164E+03  0.12508785478E+03 0.  0.
          5    1    3    3  502    0  0.62121589128E+02 -0.51323040947E+02 -0.21419493473E+02  0.83483013053E+02  0.41800000000E+01 0. -1.
         -5    1    3    3    0  502 -0.21544163323E+02  0.30291143270E+02 -0.65871988470E+02  0.75751538591E+02  0.41800000000E+01 0. -1.
        -11    1    1    2    0    0 -0.46143629440E+02  0.50992466946E+02 -0.23103502692E+03  0.24105320965E+03  0.00000000000E+00 0.  1.
         11    1    1    2    0    0  0.55662036356E+01 -0.29960569269E+02 -0.12263714561E+03  0.12636648217E+03  0.00000000000E+00 0. -1.
</event>
<event>
 7    1  0.2856214E-009  0.1084112E+03  0.7561462E-02  0.1263541E+00
          2   -1    0    0  501    0  0.00000000000E+00  0.00000000000E+00  0.21064538073E+02  0.21064538073E+02  0.00000000000E+00 0. -1.
         -2   -1    0    0    0  501 -0.00000000000E+00 -0.00000000000E+00 -0.59802968848E+03  0.59802968848E+03  0.00000000000E+00 0.  1.
         25    2    1    2    0    0  0.31139823558E+02 -0.28858935536E+01 -0.31316002632E+03  0.33866505843E+03  0.12508718051E+03 0.  0.
          5    1    3    3  502    0  0.79083854993E+01  0.58746188496E+02 -0.18803917215E+03  0.19720512135E+03  0.41800000000E+01 0. -1.
         -5    1    3    3    0  502  0.23231438058E+02 -0.61632082050E+02 -0.12512085417E+03  0.14145993708E+03  0.41800000000E+01 0. -1.
        -11    1    1    2    0    0  0.11685682409E+02 -0.33327851968E+02 -0.66355736939E+02  0.75169040933E+02  0.00000000000E+00 0.  1.
         11    1    1    2    0    0 -0.42825505967E+02  0.36213745522E+02 -0.19744938715E+03  0.20526012718E+03  0.00000000000E+00 0. -1.
</event>
<event>
 7    1  0.2856214E-009  0.1975091E+03  0.7561462E-02  0.1151858E+00
          2   -1    0    0  501    0  0.00000000000E+00  0.00000000000E+00  0.25292513721E+04  0.25292513721E+04  0.00000000000E+00 0. -1.
         -2   -1    0    0    0  501 -0.00000000000E+00 -0.00000000000E+00 -0.21669154849E+02  0.21669154849E+02  0.00000000000E+00 0.  1.
         25    2    1    2    0    0 -0.15622782371E+03  0.10366516354E+03  0.17818913372E+04  0.17960895597E+04  0.12508944705E+03 0.  0.
          5    1    3    3  502    0 -0.60537024397E+02  0.58962624799E+02  0.34150628078E+03  0.35183140090E+03  0.41800000000E+01 0.  1.
         -5    1    3    3    0  502 -0.95690799317E+02  0.44702538739E+02  0.14403850565E+04  0.14442581588E+04  0.41800000000E+01 0.  1.
        -11    1    1    2    0    0  0.98286724607E+02 -0.15932839582E+02  0.28937276699E+03  0.30602407403E+03  0.00000000000E+00 0. -1.
         11    1    1    2    0    0  0.57941099107E+02 -0.87732323956E+02  0.43631811297E+03  0.44880689315E+03  0.00000000000E+00 0.  1.
</event>
<event>
 7    1  0.2856214E-009  0.1343871E+03  0.7561462E-02  0.1221087E+00
          2   -1    0    0  501    0  0.00000000000E+00  0.00000000000E+00  0.10269385721E+03  0.10269385721E+03  0.00000000000E+00 0.  1.
         -2   -1    0    0    0  501 -0.00000000000E+00 -0.00000000000E+00 -0.27025272613E+03  0.27025272613E+03  0.00000000000E+00 0. -1.
         25    2    1    2    0    0 -0.37583137587E+02  0.88731309522E+02 -0.17677193181E+03  0.23702573123E+03  0.12508854410E+03 0.  0.
          5    1    3    3  502    0 -0.71800595352E+02  0.11937778028E+02 -0.94139142921E+02  0.11906925156E+03  0.41800000000E+01 0. -1.
         -5    1    3    3    0  502  0.34217457765E+02  0.76793531494E+02 -0.82632788892E+02  0.11795647967E+03  0.41800000000E+01 0. -1.
        -11    1    1    2    0    0  0.50167475701E+02 -0.49440200199E+02 -0.32215667171E+02  0.77452942005E+02  0.00000000000E+00 0. -1.
         11    1    1    2    0    0 -0.12584338114E+02 -0.39291109324E+02  0.41428730063E+02  0.58467910107E+02  0.00000000000E+00 0.  1.
</event>
<event>
 7    1  0.2856214E-009  0.1160701E+03  0.7561462E-02  0.1249725E+00
          2   -1    0    0  501    0  0.00000000000E+00  0.00000000000E+00  0.24739541138E+03  0.24739541138E+03  0.00000000000E+00 0.  1.
         -2   -1    0    0    0  501 -0.00000000000E+00 -0.00000000000E+00 -0.59602925205E+02  0.59602925205E+02  0.00000000000E+00 0. -1.
         25    2    1    2    0    0 -0.42070708770E+02 -0.25692733262E+02  0.12761130848E+03  0.18537098801E+03  0.12509075132E+03 0.  0.
          5    1    3    3  502    0  0.39749011007E+02 -0.19308326238E+02  0.16901650611E+02  0.47496668636E+02  0.41800000000E+01 0.  1.
         -5    1    3    3    0  502 -0.81819719777E+02 -0.63844070239E+01  0.11070965787E+03  0.13787431937E+03  0.41800000000E+01 0.  1.
        -11    1    1    2    0    0 -0.21201182476E+02  0.35698556464E+02  0.26479045894E+02  0.49244461043E+02  0.00000000000E+00 0.  1.
         11    1    1    2    0    0  0.63271891246E+02 -0.10005823202E+02  0.33702131803E+02  0.72382887535E+02  0.00000000000E+00 0. -1.
</event>
<event>
 7    1  0.2856214E-009  0.1087337E+03  0.7561462E-02  0.1262933E+00
         -1   -1    0    0    0  501 -0.00000000000E+00  0.00000000000E+00  0.36300475093E+03  0.36300475093E+03  0.00000000000E+00 0.  1.
          1   -1    0    0  501    0  0.00000000000E+00 -0.00000000000E+00 -0.78646608978E+02  0.78646608978E+02  0.00000000000E+00 0. -1.
         25    2    1    2    0    0  0.61591200693E+02  0.47299659870E+02  0.28852823799E+03  0.32391986456E+03  0.12507917777E+03 0.  0.
          5    1    3    3  502    0 -0.11513771285E+02  0.22929049485E+02  0.21746011323E+03  0.21900840505E+03  0.41800000000E+01 0.  1.
         -5    1    3    3    0  502  0.73104971978E+02  0.24370610385E+02  0.71068124768E+02  0.10491145951E+03  0.41800000000E+01 0.  1.
        -11    1    1    2    0    0 -0.39337666434E+02 -0.71384838518E+02 -0.15636694478E+02  0.82992489931E+02  0.00000000000E+00 0. -1.
         11    1    1    2    0    0 -0.22253534259E+02  0.24085178648E+02  0.11466598437E+02  0.34739005415E+02  0.00000000000E+00 0.  1.
</event>
<event>
 7    1  0.2856214E-009  0.1084689E+03  0.7561462E-02  0.1263432E+00
         -1   -1    0    0    0  501 -0.00000000000E+00  0.00000000000E+00  0.21913280131E+02  0.21913280131E+02  0.00000000000E+00 0.  1.
          1   -1    0    0  501    0  0.00000000000E+00 -0.00000000000E+00 -0.75030388371E+03  0.75030388371E+03  0.00000000000E+00 0. -1.
         25    2    1    2    0    0 -0.42320675281E+02  0.37489292283E+01 -0.56562454445E+03  0.58084584631E+03  0.12508268410E+03 0.  0.
          5    1    3    3  502    0 -0.41403889353E+02  0.52931730688E+02 -0.45161169560E+03  0.45660337950E+03  0.41800000000E+01 0.  1.
         -5    1    3    3    0  502 -0.91678592820E+00 -0.49182801460E+02 -0.11401284885E+03  0.12424246681E+03  0.41800000000E+01 0.  1.
        -11    1    1    2    0    0  0.43895241073E+02 -0.42710041522E+02 -0.10772700219E+03  0.12391951757E+03  0.00000000000E+00 0.  1.
         11    1    1    2    0    0 -0.15745657921E+01  0.38961112293E+02 -0.55039056942E+02  0.67451799958E+02  0.00000000000E+00 0. -1.
</event>
<event>
 7    1  0.2856214E-009  0.1051326E+03  0.7561462E-02  0.1269859E+00
          2   -1    0    0  501    0  0.00000000000E+00  0.00000000000E+00  0.39812630072E+02  0.39812630072E+02  0.00000000000E+00 0. -1.
         -2   -1    0    0    0  501 -0.00000000000E+00 -0.00000000000E+00 -0.42522788840E+03  0.42522788840E+03  0.00000000000E+00 0.  1.
         25    2    1    2    0    0 -0.66401444824E+02 -0.98750514182E+01 -0.16747095096E+03  0.21954532667E+03  0.12508781929E+03 0.  0.
          5    1    3    3  502    0 -0.21115348590E+02  0.57057822768E+02 -0.68850730610E+02  0.91974717127E+02  0.41800000000E+01 0.  1.
         -5    1    3    3    0  502 -0.45286096234E+02 -0.66932874186E+02 -0.98620220347E+02  0.12757060955E+03  0.41800000000E+01 0.  1.
        -11    1    1    2    0    0  0.44015845248E+02  0.30958096562E+00 -0.21669408062E+03  0.22111945877E+03  0.00000000000E+00 0.  1.
         11    1    1    2    0    0  0.22385599577E+02  0.95654704526E+01 -0.12502267487E+01  0.24375733021E+02  0.00000000000E+00 0. -1.
</event>
<event>
 7    1  0.2856214E-009  0.1253132E+03  0.7561462E-02  0.1234581E+00
         -2   -1    0    0    0  501 -0.00000000000E+00  0.00000000000E+00  0.25951413137E+03  0.25951413137E+03  0.00000000000E+00 0.  1.
          2   -1    0    0  501    0  0.00000000000E+00 -0.00000000000E+00 -0.10065076350E+03  0.10065076350E+03  0.00000000000E+00 0. -1.
         25    2    1    2    0    0  0.50487543024E+02 -0.84398099838E+02  0.98544701312E+01  0.15942664815E+03  0.12509082421E+03 0.  0.
          5    1    3    3  502    0  0.54786084211E+02 -0.32070849921E+02  0.59455765257E+02  0.87077636969E+02  0.41800000000E+01 0.  1.
         -5    1    3    3    0  502 -0.42985411864E+01 -0.52327249917E+02 -0.49601295126E+02  0.72349011177E+02  0.41800000000E+01 0.  1.
        -11    1    1    2    0    0 -0.53806042384E+01  0.88847937167E+02  0.93891353002E+02  0.12937732803E+03  0.00000000000E+00 0.  1.
         11    1    1    2    0    0 -0.45106938786E+02 -0.44498373287E+01  0.55117544729E+02  0.71360918687E+02  0.00000000000E+00 0. -1.
</event>
<event>
 7    1  0.2856214E-009  0.8585680E+02  0.7561462E-02  0.1313207E+00
          2   -1    0    0  501    0  0.00000000000E+00  0.00000000000E+00  0.27817913430E+03  0.27817913430E+03  0.00000000000E+00 0. -1.
         -2   -1    0    0    0  501 -0.00000000000E+00 -0.00000000000E+00 -0.52710929595E+02  0.52710929595E+02  0.00000000000E+00 0.  1.
         25    2    1    2    0    0  0.19169804076E+02 -0.47189824896E+02  0.10544717867E+03  0.17135142840E+03  0.12509134088E+03 0.  0.
          5    1    3    3  502    0  0.27590933373E+02 -0.10861967855E+02 -0.22857494594E+02  0.37671997680E+02  0.41800000000E+01 0. -1.
         -5    1    3    3    0  502 -0.84211292969E+01 -0.36327857041E+02  0.12830467326E+03  0.13367943072E+03  0.41800000000E+01 0. -1.
        -11    1    1    2    0    0  0.61367237590E+01 -0.26045835646E+02  0.40223827173E+02  0.48311501792E+02  0.00000000000E+00 0. -1.
         11    1    1    2    0    0 -0.25306527835E+02  0.73235660542E+02  0.79797198866E+02  0.11122713371E+03  0.00000000000E+00 0.  1.
</event>
<event>
 7    1  0.2856214E-009  0.1639825E+03  0.7561462E-02  0.1184273E+00
          1   -1    0    0  501    0  0.00000000000E+00  0.00000000000E+00  0.42214823801E+02  0.42214823801E+02  0.00000000000E+00 0. -1.
         -1   -1    0    0    0  501 -0.00000000000E+00 -0.00000000000E+00 -0.85601529451E+03  0.85601529451E+03  0.00000000000E+00 0.  1.
         25    2    1    2    0    0  0.90589437056E+02 -0.94073883335E+02 -0.62913949934E+03  0.65461477384E+03  0.12509057063E+03 0.  0.
          5    1    3    3  502    0  0.51612309879E+02  0.18511697135E+02 -0.12482381328E+03  0.13640003747E+03  0.41800000000E+01 0.  1.
         -5    1    3    3    0  502  0.38977127176E+02 -0.11258558047E+03 -0.50431568606E+03  0.51821473636E+03  0.41800000000E+01 0.  1.
        -11    1    1    2    0    0 -0.52086183216E+02  0.10192603920E+03 -0.10752222287E+03  0.15704431336E+03  0.00000000000E+00 0. -1.
         11    1    1    2    0    0 -0.38503253839E+02 -0.78521558626E+01 -0.77138748497E+02  0.86571031111E+02  0.00000000000E+00 0.  1.
</event>
<event>
 7    1  0.2856214E-009  0.1313878E+03  0.7561462E-02  0.1225411E+00
          2   -1    0    0  501    0  0.00000000000E+00  0.00000000000E+00  0.68689820258E+02  0.68689820258E+02  0.00000000000E+00 0. -1.
         -2   -1    0    0    0  501 -0.00000000000E+00 -0.00000000000E+00 -0.25468120211E+03  0.25468120211E+03  0.00000000000E+00 0.  1.
         25    2    1    2    0    0  0.28558454312E+02  0.70261226405E+02 -0.88896934694E+02  0.17118082459E+03  0.12509190405E+03 0.  0.
          5    1    3    3  502    0  0.29036381444E+02  0.10593113888E+03 -0.61058727201E+02  0.12573845155E+03  0.41800000000E+01 0.  1.
         -5    1    3    3    0  502 -0.47792713200E+00 -0.35669912476E+02 -0.27838207493E+02  0.45442373033E+02  0.41800000000E+01 0.  1.
        -11    1    1    2    0    0 -0.57591812192E+02 -0.24150428255E+02 -0.46841078111E+02  0.78065015308E+02  0.00000000000E+00 0.  1.
         11    1    1    2    0    0  0.29033357880E+02 -0.46110798150E+02 -0.50253369045E+02  0.74125182470E+02  0.00000000000E+00 0. -1.
</event>
<event>
 7    1  0.2856214E-009  0.1352202E+03  0.7561462E-02  0.1219909E+00
          1   -1    0    0  501    0  0.00000000000E+00  0.00000000000E+00  0.88169706296E+03  0.88169706296E+03  0.00000000000E+00 0. -1.
         -1   -1    0    0    0  501 -0.00000000000E+00 -0.00000000000E+00 -0.23081597922E+02  0.23081597922E+02  0.00000000000E+00 0.  1.
         25    2    1    2    0    0 -0.13072499172E+02  0.29046323535E+02  0.37660105362E+03  0.39810967912E+03  0.12509350054E+03 0.  0.
          5    1    3    3  502    0  0.44576301522E+02 -0.84716968961E+01  0.24857294325E+03  0.25271485279E+03  0.41800000000E+01 0. -1.
         -5    1    3    3    0  502 -0.57648800693E+02  0.37518020431E+02  0.12802811036E+03  0.14539482632E+03  0.41800000000E+01 0. -1.
        -11    1    1    2    0    0  0.45276679797E+02 -0.82183779158E+02  0.27859400631E+03  0.29397069861E+03  0.00000000000E+00 0.  1.
         11    1    1    2    0    0 -0.32204180625E+02  0.53137455624E+02  0.20342040511E+03  0.21269828315E+03  0.00000000000E+00 0. -1.
</event>
<event>
 7    1  0.2856214E-009  0.8533233E+02  0.7561462E-02  0.1314566E+00
         -1   -1    0    0    0  501 -0.00000000000E+00  0.00000000000E+00  0.25292227023E+02  0.25292227023E+02  0.00000000000E+00 0.  1.
          1   -1    0    0  501    0  0.00000000000E+00 -0.00000000000E+00 -0.48282166474E+03  0.48282166474E+03  0.00000000000E+00 0. -1.
         25    2    1    2    0    0  0.87561172729E+00 -0.18217273524E+02 -0.29211372960E+03  0.31829338941E+03  0.12509042718E+03 0.  0.
          5    1    3    3  502    0  0.57597848698E+02 -0.23378080381E+02 -0.20390866510E+03  0.21321412458E+03  0.41800000000E+01 0.  1.
         -5    1    3    3    0  502 -0.56722236971E+02  0.51608068571E+01 -0.88205064502E+02  0.10507926483E+03  0.41800000000E+01 0.  1.
        -11    1    1    2    0    0  0.12479487407E+02  0.30596160664E+02 -0.16818595946E+03  0.17140122407E+03  0.00000000000E+00 0. -1.
         11    1    1    2    0    0 -0.13355099134E+02 -0.12378887140E+02  0.27702513483E+01  0.18419278277E+02  0.00000000000E+00 0.  1.
</event>
<event>
 7    1  0.2856214E-009  0.1208596E+03  0.7561462E-02  0.1241686E+00
         -1   -1    0    0    0  501 -0.00000000000E+00  0.00000000000E+00  0.11169057414E+04  0.11169057414E+04  0.00000000000E+00 0.  1.
          1   -1    0    0  501    0  0.00000000000E+00 -0.00000000000E+00 -0.23335416317E+02  0.23335416317E+02  0.00000000000E+00 0. -1.
         25    2    1    2    0    0  0.79207288650E+02 -0.89752136890E+01  0.89299212004E+03  0.90522788509E+03  0.12509295923E+03 0.  0.
          5    1    3    3  502    0  0.61550915216E+02 -0.54504829467E+02  0.74028912584E+03  0.74485216911E+03  0.41800000000E+01 0.  1.
         -5    1    3    3    0  502  0.17656373434E+02  0.45529615778E+02  0.15270299421E+03  0.16037571598E+03  0.41800000000E+01 0.  1.
        -11    1    1    2    0    0 -0.52888503321E+02 -0.31904956784E+02  0.59385926849E+02  0.85684353056E+02  0.00000000000E+00 0.  1.
         11    1    1    2    0    0 -0.26318785328E+02  0.40880170473E+02  0.14119227816E+03  0.14932891954E+03  0.00000000000E+00 0. -1.
</event>
<event>
 7    1  0.2856214E-009  0.1359174E+03  0.7561462E-02  0.1218930E+00
          1   -1    0    0  501    0  0.00000000000E+00  0.00000000000E+00  0.18266622317E+03  0.18266622317E+03  0.00000000000E+00 0. -1.
         -1   -1    0    0    0  501 -0.00000000000E+00 -0.00000000000E+00 -0.10982527062E+03  0.10982527062E+03  0.00000000000E+00 0.  1.
         25    2    1    2    0    0 -0.36160458029E+02  0.94076538474E+02  0.68631077683E+02  0.17468551336E+03  0.12508728928E+03 0.  0.
          5    1    3    3  502    0  0.16111114272E+02 -0.24143715978E+02  0.23930225371E+02  0.37849902386E+02  0.41800000000E+01 0.  1.
         -5    1    3    3    0  502 -0.52271572301E+02  0.11822025445E+03  0.44700852313E+02  0.13683561098E+03  0.41800000000E+01 0.  1.
        -11    1    1    2    0    0  0.37527580387E+01 -0.75962107373E+02 -0.12529801582E+02  0.77079964175E+02  0.00000000000E+00 0.  1.
         11    1    1    2    0    0  0.32407699990E+02 -0.18114431101E+02  0.16739676450E+02  0.40726016260E+02  0.00000000000E+00 0. -1.
</event>
<event>
 7    1  0.2856214E-009  0.1285741E+03  0.7561462E-02  0.1229587E+00
          2   -1    0    0  501    0  0.00000000000E+00  0.00000000000E+00  0.26675516143E+02  0.26675516143E+02  0.00000000000E+00 0. -1.
         -2   -1    0    0    0  501 -0.00000000000E+00 -0.00000000000E+00 -0.85356871183E+03  0.85356871183E+03  0.00000000000E+00 0.  1.
         25    2    1    2    0    0  0.95163496926E+02  0.46256909413E+02 -0.43066609282E+03  0.46077566946E+03  0.12508053902E+03 0.  0.
          5    1    3    3  502    0 -0.41870464657E+01  0.22600873114E+02 -0.61928737648E+01  0.24169296826E+02  0.41800000000E+01 0.  1.
         -5    1    3    3    0  502  0.99350543392E+02  0.23656036299E+02 -0.42447321906E+03  0.43660637263E+03  0.41800000000E+01 0.  1.
        -11    1    1    2    0    0 -0.92306613086E+02 -0.73916174906E+01 -0.32878587588E+03  0.34157766175E+03  0.00000000000E+00 0.  1.
         11    1    1    2    0    0 -0.28568838404E+01 -0.38865291923E+02 -0.67441226980E+02  0.77890896760E+02  0.00000000000E+00 0. -1.
</event>
<event>
 7    1  0.2856214E-009  0.1367424E+03  0.7561462E-02  0.1217781E+00
         -2   -1    0    0    0  501 -0.00000000000E+00  0.00000000000E+00  0.46179031212E+02  0.46179031212E+02  0.00000000000E+00 0.  1.
          2   -1    0    0  501    0  0.00000000000E+00 -0.00000000000E+00 -0.45977254755E+03  0.45977254755E+03  0.00000000000E+00 0. -1.
         25    2    1    2    0    0 -0.90862609115E+02  0.13578338265E+02 -0.26973807594E+03  0.31120149607E+03  0.12508939421E+03 0.  0.
          5    1    3    3  502    0  0.42363950772E+01  0.51390343751E+02 -0.74095603293E+02  0.90368939915E+02  0.41800000000E+01 0. -1.
         -5    1    3    3    0  502 -0.95099004192E+02 -0.37812005485E+02 -0.19564247264E+03  0.22083255616E+03  0.41800000000E+01 0. -1.
        -11    1    1    2    0    0  0.80889220731E+02  0.20807165156E+02 -0.57878685716E+02  0.10161666405E+03  0.00000000000E+00 0.  1.
         11    1    1    2    0    0  0.99733883838E+01 -0.34385503421E+02 -0.85976754688E+02  0.93133418643E+02  0.00000000000E+00 0. -1.
</event>
<event>
 7    1  0.2856214E-009  0.1012307E+03  0.7561462E-02  0.1277729E+00
         -1   -1    0    0    0  501 -0.00000000000E+00  0.00000000000E+00  0.18569368776E+03  0.18569368776E+03  0.00000000000E+00 0.  1.
          1   -1    0    0  501    0  0.00000000000E+00 -0.00000000000E+00 -0.99544309722E+02  0.99544309722E+02  0.00000000000E+00 0. -1.
         25    2    1    2    0    0 -0.25804811992E+02  0.56754967052E+02  0.10040834428E+03  0.17209323881E+03  0.12508889894E+03 0.  0.
          5    1    3    3  502    0 -0.48777804502E+02  0.88032069250E+02  0.72934023798E+02  0.12436142350E+03  0.41800000000E+01 0. -1.
         -5    1    3    3    0  502  0.22972992510E+02 -0.31277102198E+02  0.27474320484E+02  0.47731815310E+02  0.41800000000E+01 0. -1.
        -11    1    1    2    0    0  0.21649252041E+02 -0.40508307578E+02  0.37147331902E+02  0.59072306238E+02  0.00000000000E+00 0.  1.
         11    1    1    2    0    0  0.41555599502E+01 -0.16246659474E+02 -0.51406298147E+02  0.54072452430E+02  0.00000000000E+00 0. -1.
</event>
<event>
 7    1  0.2856214E-009  0.1349657E+03  0.7561462E-02  0.1220268E+00
          1   -1    0    0  501    0  0.00000000000E+00  0.00000000000E+00  0.79716503896E+03  0.79716503896E+03  0.00000000000E+00 0. -1.
         -1   -1    0    0    0  501 -0.00000000000E+00 -0.00000000000E+00 -0.32548435329E+02  0.32548435329E+02  0.00000000000E+00 0.  1.
         25    2    1    2    0    0 -0.11177483385E+03 -0.35056122496E+02  0.45606494078E+03  0.48720578743E+03  0.12510676995E+03 0.  0.
          5    1    3    3  502    0  0.11009242426E+01 -0.32657535054E+02  0.25035413185E+03  0.25251215885E+03  0.41800000000E+01 0. -1.
         -5    1    3    3    0  502 -0.11287575809E+03 -0.23985874420E+01  0.20571080893E+03  0.23469362858E+03  0.41800000000E+01 0. -1.
        -11    1    1    2    0    0  0.33071027850E+02 -0.83799179089E+01  0.19358523461E+03  0.19656845873E+03  0.00000000000E+00 0. -1.
         11    1    1    2    0    0  0.78703806001E+02  0.43436040405E+02  0.11496642823E+03  0.14593922812E+03  0.00000000000E+00 0.  1.
</event>
<event>
 7    1  0.2856214E-009  0.1604174E+03  0.7561462E-02  0.1188226E+00
         -1   -1    0    0    0  501 -0.00000000000E+00  0.00000000000E+00  0.80398132293E+02  0.80398132293E+02  0.00000000000E+00 0.  1.
          1   -1    0    0  501    0  0.00000000000E+00 -0.00000000000E+00 -0.43898712244E+03  0.43898712244E+03  0.00000000000E+00 0. -1.
         25    2    1    2    0    0  0.88436699944E+02 -0.10339009519E+03 -0.91833706682E+02  0.20637175999E+03  0.12508122144E+03 0.  0.
          5    1    3    3  502    0  0.75619885903E+02 -0.23721841549E+02  0.58760214180E+01  0.79580732204E+02  0.41800000000E+01 0.  1.
         -5    1    3    3    0  502  0.12816814041E+02 -0.79668253644E+02 -0.97709728100E+02  0.12679102778E+03  0.41800000000E+01 0.  1.
        -11    1    1    2    0    0 -0.49046266052E+02  0.11026835866E+03 -0.17150884829E+03  0.20971392939E+03  0.00000000000E+00 0.  1.
         11    1    1    2    0    0 -0.39390433892E+02 -0.68782634705E+01 -0.95246435175E+02  0.10329956536E+03  0.00000000000E+00 0. -1.
</event>
<event>
 7    1  0.2856214E-009  0.1214811E+03  0.7561462E-02  0.1240673E+00
         -2   -1    0    0    0  501 -0.00000000000E+00  0.00000000000E+00  0.10841834332E+02  0.10841834332E+02  0.00000000000E+00 0.  1.
          2   -1    0    0  501    0  0.00000000000E+00 -0.00000000000E+00 -0.14746897671E+04  0.14746897671E+04  0.00000000000E+00 0. -1.
         25    2    1    2    0    0  0.29986879379E+02 -0.39167551470E+02 -0.80088981843E+03  0.81209932328E+03  0.12508996598E+03 0.  0.
          5    1    3    3  502    0  0.73155166050E+02 -0.35036674011E+02 -0.64971910979E+03  0.65477602344E+03  0.41800000000E+01 0. -1.
         -5    1    3    3    0  502 -0.43168286672E+02 -0.41308774594E+01 -0.15117070864E+03  0.15732329984E+03  0.41800000000E+01 0. -1.
        -11    1    1    2    0    0 -0.78872119185E+01  0.75358791465E+02 -0.40938373704E+03  0.41633664229E+03  0.00000000000E+00 0. -1.
         11    1    1    2    0    0 -0.22099667460E+02 -0.36191239995E+02 -0.25357437734E+03  0.25709563590E+03  0.00000000000E+00 0.  1.
</event>
<event>
 7    1  0.2856214E-009  0.1083469E+03  0.7561462E-02  0.1263662E+00
          2   -1    0    0  501    0  0.00000000000E+00  0.00000000000E+00  0.52980772907E+03  0.52980772907E+03  0.00000000000E+00 0. -1.
         -2   -1    0    0    0  501 -0.00000000000E+00 -0.00000000000E+00 -0.31474249308E+02  0.31474249308E+02  0.00000000000E+00 0.  1.
         25    2    1    2    0    0  0.17734814663E+02 -0.15085660549E+02  0.13369285467E+03  0.18456199981E+03  0.12508897464E+03 0.  0.
          5    1    3    3  502    0  0.20087969701E+02 -0.66976576590E+02  0.10144189904E+03  0.12327740920E+03  0.41800000000E+01 0.  1.
         -5    1    3    3    0  502 -0.23531550384E+01  0.51890916041E+02  0.32250955629E+02  0.61284590602E+02  0.41800000000E+01 0.  1.
        -11    1    1    2    0    0 -0.35835265240E+02  0.46240796319E+02  0.23393729971E+03  0.24114111569E+03  0.00000000000E+00 0.  1.
         11    1    1    2    0    0  0.18100450577E+02 -0.31155135770E+02  0.13070332538E+03  0.13557886288E+03  0.00000000000E+00 0. -1.
</event>
<event>
 7    1  0.2856214E-009  0.1140762E+03  0.7561462E-02  0.1253202E+00
          2   -1    0    0  501    0  0.00000000000E+00  0.00000000000E+00  0.48425557752E+03  0.48425557752E+03  0.00000000000E+00 0. -1.
         -2   -1    0    0    0  501 -0.00000000000E+00 -0.00000000000E+00 -0.29888487889E+02  0.29888487889E+02  0.00000000000E+00 0.  1.
         25    2    1    2    0    0 -0.17829187448E+02  0.39707304874E+02  0.19327511070E+03  0.23430178182E+03  0.12508999386E+03 0.  0.
          5    1    3    3  502    0  0.79725428014E+01  0.82030730914E+02  0.11462000624E+03  0.14123675330E+03  0.41800000000E+01 0.  1.
         -5    1    3    3    0  502 -0.25801730249E+02 -0.42323426040E+02  0.78655104462E+02  0.93065028520E+02  0.41800000000E+01 0.  1.
        -11    1    1    2    0    0 -0.34678322595E+02 -0.17948822016E+02  0.66471568705E+02  0.77092254578E+02  0.00000000000E+00 0. -1.
         11    1    1    2    0    0  0.52507510043E+02 -0.21758482859E+02  0.19462041022E+03  0.20275002901E+03  0.00000000000E+00 0.  1.
</event>
<event>
 7    1  0.2856214E-009  0.1051338E+03  0.7561462E-02  0.1269856E+00
         -1   -1    0    0    0  501 -0.00000000000E+00  0.00000000000E+00  0.71760765271E+02  0.71760765271E+02  0.00000000000E+00 0.  1.
          1   -1    0    0  501    0  0.00000000000E+00 -0.00000000000E+00 -0.34528968319E+03  0.34528968319E+03  0.00000000000E+00 0. -1.
         25    2    1    2    0    0 -0.94166488264E+01  0.47224513603E+02 -0.11807750663E+02  0.13456030100E+03  0.12509286018E+03 0.  0.
          5    1    3    3  502    0  0.27382036305E+01  0.86883157814E+02  0.98471169288E+01  0.87582069984E+02  0.41800000000E+01 0.  1.
         -5    1    3    3    0  502 -0.12154852457E+02 -0.39658644211E+02 -0.21654867591E+02  0.46978231015E+02  0.41800000000E+01 0.  1.
        -11    1    1    2    0    0 -0.28534217103E+02 -0.20013159462E+02 -0.29624168725E+02  0.45741878733E+02  0.00000000000E+00 0.  1.
         11    1    1    2    0    0  0.37950865929E+02 -0.27211354141E+02 -0.23209699854E+03  0.23674826873E+03  0.00000000000E+00 0. -1.
</event>
<event>
 7    1  0.2856214E-009  0.9584887E+02  0.7561462E-02  0.1289276E+00
          1   -1    0    0  501    0  0.00000000000E+00  0.00000000000E+00  0.42363399605E+02  0.42363399605E+02  0.00000000000E+00 0. -1.
         -1   -1    0    0    0  501 -0.00000000000E+00 -0.00000000000E+00 -0.35957546800E+03  0.35957546800E+03  0.00000000000E+00 0.  1.
         25    2    1    2    0    0 -0.10410539574E+02 -0.46008558031E+02 -0.24798702484E+03  0.28172636565E+03  0.12508802448E+03 0.  0.
          5    1    3    3  502    0  0.38328308656E+02 -0.23641600695E+02 -0.23661771061E+02  0.51042495409E+02  0.41800000000E+01 0. -1.
         -5    1    3    3    0  502 -0.48738848230E+02 -0.22366957336E+02 -0.22432525378E+03  0.23068387024E+03  0.41800000000E+01 0. -1.
        -11    1    1    2    0    0  0.42331667881E+02  0.80577719960E+01 -0.12502443225E+02  0.44868796304E+02  0.00000000000E+00 0.  1.
         11    1    1    2    0    0 -0.31921128307E+02  0.37950786035E+02 -0.56722600331E+02  0.75343705652E+02  0.00000000000E+00 0. -1.
</event>
<event>
 7    1  0.2856214E-009  0.1310214E+03  0.7561462E-02  0.1225948E+00
         -2   -1    0    0    0  501 -0.00000000000E+00  0.00000000000E+00  0.18422232033E+02  0.18422232033E+02  0.00000000000E+00 0.  1.
          2   -1    0    0  501    0  0.00000000000E+00 -0.00000000000E+00 -0.95712602378E+03  0.95712602378E+03  0.00000000000E+00 0. -1.
         25    2    1    2    0    0 -0.75629618130E+02  0.17328641340E+02 -0.56286334251E+03  0.58179346321E+03  0.12509344724E+03 0.  0.
          5    1    3    3  502    0  0.34315641476E+02  0.10651689357E+02 -0.16682887387E+03  0.17070549872E+03  0.41800000000E+01 0. -1.
         -5    1    3    3    0  502 -0.10994525961E+03  0.66769519831E+01 -0.39603446864E+03  0.41108796449E+03  0.41800000000E+01 0. -1.
        -11    1    1    2    0    0  0.27179683031E+02  0.35009490055E+02 -0.17854880177E+03  0.18396759002E+03  0.00000000000E+00 0. -1.
         11    1    1    2    0    0  0.48449935099E+02 -0.52338131395E+02 -0.19729164747E+03  0.20978720259E+03  0.00000000000E+00 0.  1.
</event>
<event>
 7    1  0.2856214E-009  0.1406202E+03  0.7561462E-02  0.1212497E+00
          2   -1    0    0  501    0  0.00000000000E+00  0.00000000000E+00  0.16258570449E+04  0.16258570449E+04  0.00000000000E+00 0.  1.
         -2   -1    0    0    0  501 -0.00000000000E+00 -0.00000000000E+00 -0.13415975408E+02  0.13415975408E+02  0.00000000000E+00 0. -1.
         25    2    1    2    0    0 -0.55061020194E+02 -0.83705667964E+02  0.91351929833E+03  0.92747142060E+03  0.12508945924E+03 0.  0.
          5    1    3    3  502    0  0.30137953552E+02 -0.41068448536E+02  0.16060674437E+03  0.16854350313E+03  0.41800000000E+01 0. -1.
         -5    1    3    3    0  502 -0.85198973746E+02 -0.42637219428E+02  0.75291255396E+03  0.75892791747E+03  0.41800000000E+01 0. -1.
        -11    1    1    2    0    0  0.47755399028E+02 -0.29078612593E+01  0.24090101387E+03  0.24560605098E+03  0.00000000000E+00 0.  1.
         11    1    1    2    0    0  0.73056211659E+01  0.86613529223E+02  0.45802075725E+03  0.46619554869E+03  0.00000000000E+00 0. -1.
</event>
<event>
 7    1  0.2856214E-009  0.3235048E+03  0.7561462E-02  0.1074048E+00
          1   -1    0    0  501    0  0.00000000000E+00  0.00000000000E+00  0.19053609043E+03  0.19053609043E+03  0.00000000000E+00 0. -1.
         -1   -1    0    0    0  501 -0.00000000000E+00 -0.00000000000E+00 -0.61795197528E+03  0.61795197528E+03  0.00000000000E+00 0.  1.
         25    2    1    2    0    0 -0.26885746213E+03  0.15594399778E+03 -0.32772642998E+03  0.46867364324E+03  0.12508998989E+03 0.  0.
          5    1    3    3  502    0 -0.24350309705E+03  0.86157832994E+02 -0.27632078668E+03  0.37826918987E+03  0.41800000000E+01 0.  1.
         -5    1    3    3    0  502 -0.25354365081E+02  0.69786164787E+02 -0.51405643304E+02  0.90404453363E+02  0.41800000000E+01 0.  1.
        -11    1    1    2    0    0  0.19221519452E+02 -0.27552906926E+02  0.14718993914E+02  0.36678035280E+02  0.00000000000E+00 0. -1.
         11    1    1    2    0    0  0.24963594268E+03 -0.12839109085E+03 -0.11440844878E+03  0.30313638719E+03  0.00000000000E+00 0.  1.
</event>
<event>
 7    1  0.2856214E-009  0.7675980E+02  0.7561462E-02  0.1338507E+00
          3   -1    0    0  501    0  0.00000000000E+00  0.00000000000E+00  0.66847510993E+02  0.66847510993E+02  0.00000000000E+00 0. -1.
         -3   -1    0    0    0  501 -0.00000000000E+00 -0.00000000000E+00 -0.19284935812E+03  0.19284935812E+03  0.00000000000E+00 0.  1.
         25    2    1    2    0    0 -0.34489811836E-01  0.12651070309E+02 -0.36982899839E+02  0.13105402962E+03  0.12508946011E+03 0.  0.
          5    1    3    3  502    0 -0.47771960548E+02 -0.26008128904E+02  0.75412118761E+01  0.55072000692E+02  0.41800000000E+01 0. -1.
         -5    1    3    3    0  502  0.47737470736E+02  0.38659199213E+02 -0.44524111716E+02  0.75982028929E+02  0.41800000000E+01 0. -1.
        -11    1    1    2    0    0 -0.16246297988E+02  0.81705637098E+00  0.15224268850E+02  0.22279769780E+02  0.00000000000E+00 0. -1.
         11    1    1    2    0    0  0.16280787800E+02 -0.13468126680E+02 -0.10424321613E+03  0.10636306971E+03  0.00000000000E+00 0.  1.
</event>
<event>
 7    1  0.2856214E-009  0.1055357E+03  0.7561462E-02  0.1269068E+00
          1   -1    0    0  501    0  0.00000000000E+00  0.00000000000E+00  0.10527066930E+03  0.10527066930E+03  0.00000000000E+00 0. -1.
         -1   -1    0    0    0  501 -0.00000000000E+00 -0.00000000000E+00 -0.17834125359E+03  0.17834125359E+03  0.00000000000E+00 0.  1.
         25    2    1    2    0    0 -0.20015966150E+02 -0.78112777496E+02 -0.18362055330E+02  0.14995658958E+03  0.12509024252E+03 0.  0.
          5    1    3    3  502    0 -0.29575379906E+02 -0.32965409332E+02  0.50282725191E+02  0.67136027300E+02  0.41800000000E+01 0.  1.
         -5    1    3    3    0  502  0.95594137561E+01 -0.45147368164E+02 -0.68644780521E+02  0.82820562280E+02  0.41800000000E+01 0.  1.
        -11    1    1    2    0    0  0.47409925786E+02  0.12324672529E+02 -0.33347142018E+02  0.59259011946E+02  0.00000000000E+00 0.  1.
         11    1    1    2    0    0 -0.27393959636E+02  0.65788104967E+02 -0.21361386946E+02  0.74396321361E+02  0.00000000000E+00 0. -1.
</event>
<event>
 7    1  0.2856214E-009  0.1584215E+03  0.7561462E-02  0.1190491E+00
          1   -1    0    0  501    0  0.00000000000E+00  0.00000000000E+00  0.65456562330E+03  0.65456562330E+03  0.00000000000E+00 0. -1.
         -1   -1    0    0    0  501 -0.00000000000E+00 -0.00000000000E+00 -0.50179139004E+02  0.50179139004E+02  0.00000000000E+00 0.  1.
         25    2    1    2    0    0 -0.11892490256E+03  0.81991642939E+02  0.33519122027E+03  0.38583178622E+03  0.12508897294E+03 0.  0.
          5    1    3    3  502    0 -0.26719018290E+02  0.66346738701E+02  0.24712823463E+03  0.25730455190E+03  0.41800000000E+01 0. -1.
         -5    1    3    3    0  502 -0.92205884275E+02  0.15644904238E+02  0.88062985633E+02  0.12852723432E+03  0.41800000000E+01 0. -1.
        -11    1    1    2    0    0  0.11378152090E+03 -0.59290995630E+02  0.26612028849E+03  0.29543470447E+03  0.00000000000E+00 0. -1.
         11    1    1    2    0    0  0.51433816673E+01 -0.22700647309E+02  0.30749755377E+01  0.23478271610E+02  0.00000000000E+00 0.  1.
</event>
<event>
 7    1  0.2856214E-009  0.7578398E+02  0.7561462E-02  0.1341460E+00
          1   -1    0    0  501    0  0.00000000000E+00  0.00000000000E+00  0.48411642635E+03  0.48411642635E+03  0.00000000000E+00 0. -1.
         -1   -1    0    0    0  501 -0.00000000000E+00 -0.00000000000E+00 -0.30187282799E+02  0.30187282799E+02  0.00000000000E+00 0.  1.
         25    2    1    2    0    0 -0.72526707445E+01 -0.24106873715E+01  0.36156640855E+03  0.38266976187E+03  0.12508983257E+03 0.  0.
          5    1    3    3  502    0 -0.34712693352E+02  0.42940569339E+02  0.87931413587E+02  0.10391472211E+03  0.41800000000E+01 0.  1.
         -5    1    3    3    0  502  0.27460022608E+02 -0.45351256710E+02  0.27363499496E+03  0.27875503977E+03  0.41800000000E+01 0.  1.
        -11    1    1    2    0    0 -0.17222995551E+02 -0.40608819211E+01 -0.13834058604E+02  0.22461155696E+02  0.00000000000E+00 0.  1.
         11    1    1    2    0    0  0.24475666295E+02  0.64715692925E+01  0.10619679360E+03  0.10917279158E+03  0.00000000000E+00 0. -1.
</event>
<event>
 7    1  0.2856214E-009  0.1365826E+03  0.7561462E-02  0.1218003E+00
          2   -1    0    0  501    0  0.00000000000E+00  0.00000000000E+00  0.97856291446E+03  0.97856291446E+03  0.00000000000E+00 0. -1.
         -2   -1    0    0    0  501 -0.00000000000E+00 -0.00000000000E+00 -0.21569988033E+02  0.21569988033E+02  0.00000000000E+00 0.  1.
         25    2    1    2    0    0 -0.45690773005E+02  0.76402704776E+02  0.62895660389E+03  0.64742347609E+03  0.12508288362E+03 0.  0.
          5    1    3    3  502    0 -0.73916379812E+02  0.86159500815E+02  0.37911376648E+03  0.39576736995E+03  0.41800000000E+01 0. -1.
         -5    1    3    3    0  502  0.28225606807E+02 -0.97567960390E+01  0.24984283741E+03  0.25165610613E+03  0.41800000000E+01 0. -1.
        -11    1    1    2    0    0  0.73284862712E+02 -0.69426878724E+02  0.24774462972E+03  0.26752226850E+03  0.00000000000E+00 0. -1.
         11    1    1    2    0    0 -0.27594089706E+02 -0.69758260522E+01  0.80291692823E+02  0.85187157907E+02  0.00000000000E+00 0.  1.
</event>
<event>
 7    1  0.2856214E-009  0.1184026E+03  0.7561462E-02  0.1245756E+00
         -1   -1    0    0    0  501 -0.00000000000E+00  0.00000000000E+00  0.68689300769E+02  0.68689300769E+02  0.00000000000E+00 0.  1.
          1   -1    0    0  501    0  0.00000000000E+00 -0.00000000000E+00 -0.37256315982E+03  0.37256315982E+03  0.00000000000E+00 0. -1.
         25    2    1    2    0    0 -0.86494577196E+02  0.25976484903E+02 -0.26620800713E+03  0.30768423118E+03  0.12508714325E+03 0.  0.
          5    1    3    3  502    0 -0.23396839797E+02  0.44316804877E+02 -0.22376923542E+03  0.22935024401E+03  0.41800000000E+01 0. -1.
         -5    1    3    3    0  502 -0.63097737399E+02 -0.18340319974E+02 -0.42438771705E+02  0.78333987167E+02  0.41800000000E+01 0. -1.
        -11    1    1    2    0    0  0.70086477067E+02 -0.53813267742E+02 -0.63822935542E+01  0.88592977847E+02  0.00000000000E+00 0.  1.
         11    1    1    2    0    0  0.16408100129E+02  0.27836782839E+02 -0.31283558366E+02  0.44975251558E+02  0.00000000000E+00 0. -1.
</event>
<event>
 7    1  0.2856214E-009  0.1211303E+03  0.7561462E-02  0.1241244E+00
          2   -1    0    0  501    0  0.00000000000E+00  0.00000000000E+00  0.40402983165E+03  0.40402983165E+03  0.00000000000E+00 0.  1.
         -2   -1    0    0    0  501 -0.00000000000E+00 -0.00000000000E+00 -0.14388940752E+03  0.14388940752E+03  0.00000000000E+00 0. -1.
         25    2    1    2    0    0  0.17845838486E+01 -0.12005424170E+03  0.34209027402E+03  0.38352260707E+03  0.12509048271E+03 0.  0.
          5    1    3    3  502    0  0.31272108499E+01 -0.59590708556E+01  0.20481751140E+03  0.20497066948E+03  0.41800000000E+01 0. -1.
         -5    1    3    3    0  502 -0.13426270012E+01 -0.11409517084E+03  0.13727276262E+03  0.17855193758E+03  0.41800000000E+01 0. -1.
        -11    1    1    2    0    0 -0.28885883152E+01  0.43198291026E+02 -0.75792483564E+02  0.87286521610E+02  0.00000000000E+00 0. -1.
         11    1    1    2    0    0  0.11040044665E+01  0.76855950675E+02 -0.61573663306E+01  0.77110110492E+02  0.00000000000E+00 0.  1.
</event>
<event>
 7    1  0.2856214E-009  0.1043760E+03  0.7561462E-02  0.1271354E+00
          2   -1    0    0  501    0  0.00000000000E+00  0.00000000000E+00  0.28884298109E+02  0.28884298109E+02  0.00000000000E+00 0. -1.
         -2   -1    0    0    0  501 -0.00000000000E+00 -0.00000000000E+00 -0.58308337922E+03  0.58308337922E+03  0.00000000000E+00 0.  1.
         25    2    1    2    0    0  0.43442298044E+02 -0.22966863335E+02 -0.18644759788E+03  0.22983809601E+03  0.12509249998E+03 0.  0.
          5    1    3    3  502    0 -0.26298006618E+02 -0.24235046127E+02 -0.62205341252E+01  0.36538884188E+02  0.41800000000E+01 0.  1.
         -5    1    3    3    0  502  0.69740304662E+02  0.12681827930E+01 -0.18022706376E+03  0.19329921182E+03  0.41800000000E+01 0.  1.
        -11    1    1    2    0    0 -0.63644421059E+02 -0.97810397167E+01 -0.20415617569E+03  0.21407014071E+03  0.00000000000E+00 0. -1.
         11    1    1    2    0    0  0.20202123015E+02  0.32747903051E+02 -0.16359530754E+03  0.16805944061E+03  0.00000000000E+00 0.  1.
</event>
<event>
 7    1  0.2856214E-009  0.1058469E+03  0.7561462E-02  0.1268460E+00
         -2   -1    0    0    0  501 -0.00000000000E+00  0.00000000000E+00  0.81069465174E+02  0.81069465174E+02  0.00000000000E+00 0.  1.
          2   -1    0    0  501    0  0.00000000000E+00 -0.00000000000E+00 -0.16999876768E+03  0.16999876768E+03  0.00000000000E+00 0. -1.
         25    2    1    2    0    0  0.32685507145E+02  0.25479162745E+02 -0.63117018404E+02  0.14611053032E+03  0.12508796484E+03 0.  0.
          5    1    3    3  502    0  0.19668685401E+02 -0.50607146770E+02 -0.27139655003E+02  0.60843847374E+02  0.41800000000E+01 0. -1.
         -5    1    3    3    0  502  0.13016821745E+02  0.76086309515E+02 -0.35977363401E+02  0.85266682949E+02  0.41800000000E+01 0. -1.
        -11    1    1    2    0    0 -0.50133636049E+02 -0.33940354549E+02  0.12681150787E+02  0.61855805837E+02  0.00000000000E+00 0.  1.
         11    1    1    2    0    0  0.17448128903E+02  0.84611918042E+01 -0.38493434888E+02  0.43101896692E+02  0.00000000000E+00 0. -1.
</event>
<event>
 7    1  0.2856214E-009  0.2776151E+03  0.7561462E-02  0.1096999E+00
         -1   -1    0    0    0  501 -0.00000000000E+00  0.00000000000E+00  0.38708189260E+02  0.38708189260E+02  0.00000000000E+00 0.  1.
          1   -1    0    0  501    0  0.00000000000E+00 -0.00000000000E+00 -0.21791330972E+04  0.21791330972E+04  0.00000000000E+00 0. -1.
         25    2    1    2    0    0 -0.26201346303E+03  0.44859532659E+02 -0.93480229095E+03  0.97988058734E+03  0.12508880763E+03 0.  0.
          5    1    3    3  502    0 -0.22924303567E+02 -0.30053259936E+02 -0.72001349072E+02  0.81427199357E+02  0.41800000000E+01 0. -1.
         -5    1    3    3    0  502 -0.23908915947E+03  0.74912792595E+02 -0.86280094188E+03  0.89845338798E+03  0.41800000000E+01 0. -1.
        -11    1    1    2    0    0  0.14548912022E+03 -0.35233549140E+02 -0.86429852882E+03  0.87716613820E+03  0.00000000000E+00 0.  1.
         11    1    1    2    0    0  0.11652434281E+03 -0.96259835190E+01 -0.34132408820E+03  0.36079456095E+03  0.00000000000E+00 0. -1.
</event>
<event>
 7    1  0.2856214E-009  0.1478943E+03  0.7561462E-02  0.1203085E+00
          4   -1    0    0  501    0  0.00000000000E+00  0.00000000000E+00  0.23141705186E+03  0.23141705186E+03  0.00000000000E+00 0.  1.
         -4   -1    0    0    0  501 -0.00000000000E+00 -0.00000000000E+00 -0.17630297684E+03  0.17630297684E+03  0.00000000000E+00 0. -1.
         25    2    1    2    0    0 -0.41002554132E+02 -0.98387477722E+02  0.16208282687E+03  0.23082315492E+03  0.12508869199E+03 0.  0.
          5    1    3    3  502    0  0.27308717769E+02  0.11384741245E+02  0.10795019096E+02  0.31770792195E+02  0.41800000000E+01 0. -1.
         -5    1    3    3    0  502 -0.68311271901E+02 -0.10977221897E+03  0.15128780777E+03  0.19905236273E+03  0.41800000000E+01 0. -1.
        -11    1    1    2    0    0  0.67826513299E+02  0.68802994667E+02 -0.94285910028E+02  0.13499674371E+03  0.00000000000E+00 0. -1.
         11    1    1    2    0    0 -0.26823959166E+02  0.29584483055E+02 -0.12682841825E+02  0.41900130069E+02  0.00000000000E+00 0.  1.
</event>
<event>
 7    1  0.2856214E-009  0.1655627E+03  0.7561462E-02  0.1182556E+00
         -2   -1    0    0    0  501 -0.00000000000E+00  0.00000000000E+00  0.36320825306E+02  0.36320825306E+02  0.00000000000E+00 0.  1.
          2   -1    0    0  501    0  0.00000000000E+00 -0.00000000000E+00 -0.84513828977E+03  0.84513828977E+03  0.00000000000E+00 0. -1.
         25    2    1    2    0    0 -0.13487044340E+03  0.24499472008E+01 -0.37318179477E+03  0.41605831149E+03  0.12507528880E+03 0.  0.
          5    1    3    3  502    0 -0.73826091194E+02 -0.57464372338E+02 -0.24105176901E+03  0.25860369985E+03  0.41800000000E+01 0.  1.
         -5    1    3    3    0  502 -0.61044352205E+02  0.59914319539E+02 -0.13213002575E+03  0.15745461164E+03  0.41800000000E+01 0.  1.
        -11    1    1    2    0    0  0.21749803262E+02  0.27270127844E+02 -0.41165036394E+02  0.53956223329E+02  0.00000000000E+00 0.  1.
         11    1    1    2    0    0  0.11312064014E+03 -0.29720075045E+02 -0.39447063330E+03  0.41144458026E+03  0.00000000000E+00 0. -1.
</event>
<event>
 7    1  0.2856214E-009  0.1845296E+03  0.7561462E-02  0.1163490E+00
          2   -1    0    0  501    0  0.00000000000E+00  0.00000000000E+00  0.59481950285E+03  0.59481950285E+03  0.00000000000E+00 0. -1.
         -2   -1    0    0    0  501 -0.00000000000E+00 -0.00000000000E+00 -0.99377291817E+02  0.99377291817E+02  0.00000000000E+00 0.  1.
         25    2    1    2    0    0  0.16393342621E+03  0.80014692439E+02  0.83824629248E+02  0.23654165046E+03  0.12509542236E+03 0.  0.
          5    1    3    3  502    0  0.55596152730E+02  0.10818664646E+02 -0.30494449144E+02  0.64462078245E+02  0.41800000000E+01 0.  1.
         -5    1    3    3    0  502  0.10833727348E+03  0.69196027792E+02  0.11431907839E+03  0.17207957221E+03  0.41800000000E+01 0.  1.
        -11    1    1    2    0    0 -0.12827571413E+03 -0.72000677341E+02  0.38584467056E+03  0.41293445747E+03  0.00000000000E+00 0. -1.
         11    1    1    2    0    0 -0.35657712084E+02 -0.80140150980E+01  0.25772911230E+02  0.44720686738E+02  0.00000000000E+00 0.  1.
</event>
<event>
 7    1  0.2856214E-009  0.1115689E+03  0.7561462E-02  0.1257692E+00
         -2   -1    0    0    0  501 -0.00000000000E+00  0.00000000000E+00  0.73195354694E+03  0.73195354694E+03  0.00000000000E+00 0.  1.
          2   -1    0    0  501    0  0.00000000000E+00 -0.00000000000E+00 -0.36552910257E+02  0.36552910257E+02  0.00000000000E+00 0. -1.
         25    2    1    2    0    0 -0.88786146892E+02 -0.33617074800E+02  0.54753825035E+03  0.56961278544E+03  0.12508997618E+03 0.  0.
          5    1    3    3  502    0 -0.33806378751E+02 -0.78102818640E+01  0.23647205256E+02  0.42196379744E+02  0.41800000000E+01 0. -1.
         -5    1    3    3    0  502 -0.54979768141E+02 -0.25806792936E+02  0.52389104509E+03  0.52741640569E+03  0.41800000000E+01 0. -1.
        -11    1    1    2    0    0  0.46869057089E+02  0.61235395516E+02  0.11648215343E+03  0.13969457486E+03  0.00000000000E+00 0.  1.
         11    1    1    2    0    0  0.41917089803E+02 -0.27618320716E+02  0.31380232898E+02  0.59199096897E+02  0.00000000000E+00 0. -1.
</event>
<event>
 7    1  0.2856214E-009  0.1299512E+03  0.7561462E-02  0.1227528E+00
         -3   -1    0    0    0  501 -0.00000000000E+00  0.00000000000E+00  0.34747675224E+02  0.34747675224E+02  0.00000000000E+00 0.  1.
          3   -1    0    0  501    0  0.00000000000E+00 -0.00000000000E+00 -0.59068728275E+03  0.59068728275E+03  0.00000000000E+00 0. -1.
         25    2    1    2    0    0  0.88655846190E+01  0.91309533236E+02 -0.26826673765E+03  0.30988806549E+03  0.12509013212E+03 0.  0.
          5    1    3    3  502    0 -0.50431050021E+02  0.45300860672E+02 -0.18812843007E+03  0.20001309303E+03  0.41800000000E+01 0. -1.
         -5    1    3    3    0  502  0.59296634640E+02  0.46008672565E+02 -0.80138307584E+02  0.10987497246E+03  0.41800000000E+01 0. -1.
        -11    1    1    2    0    0  0.19042230659E+02 -0.86406241643E+02 -0.14326229716E+03  0.16838269190E+03  0.00000000000E+00 0.  1.
         11    1    1    2    0    0 -0.27907815278E+02 -0.49032915928E+01 -0.14441057272E+03  0.14716420059E+03  0.00000000000E+00 0. -1.
</event>
<event>
 7    1  0.2856214E-009  0.1273732E+03  0.7561462E-02  0.1231406E+00
         -4   -1    0    0    0  501 -0.00000000000E+00  0.00000000000E+00  0.25710971928E+03  0.25710971928E+03  0.00000000000E+00 0.  1.
          4   -1    0    0  501    0  0.00000000000E+00 -0.00000000000E+00 -0.72180537821E+02  0.72180537821E+02  0.00000000000E+00 0. -1.
         25    2    1    2    0    0 -0.58868650210E+02  0.36341209745E+02  0.15151907557E+03  0.20830711251E+03  0.12509045271E+03 0.  0.
          5    1    3    3  502    0 -0.90812443163E+02  0.51305487408E+02  0.92764067511E+02  0.13964883635E+03  0.41800000000E+01 0. -1.
         -5    1    3    3    0  502  0.31943792953E+02 -0.14964277663E+02  0.58755008057E+02  0.68658276166E+02  0.41800000000E+01 0. -1.
        -11    1    1    2    0    0  0.11381829814E+02 -0.60498171932E+02  0.84107895022E+01  0.62131443224E+02  0.00000000000E+00 0.  1.
         11    1    1    2    0    0  0.47486820397E+02  0.24156962187E+02  0.24999316383E+02  0.58851701361E+02  0.00000000000E+00 0. -1.
</event>
<event>
 7    1  0.2856214E-009  0.1313244E+03  0.7561462E-02  0.1225504E+00
         -2   -1    0    0    0  501 -0.00000000000E+00  0.00000000000E+00  0.30164668525E+03  0.30164668525E+03  0.00000000000E+00 0.  1.
          2   -1    0    0  501    0  0.00000000000E+00 -0.00000000000E+00 -0.80293519607E+02  0.80293519607E+02  0.00000000000E+00 0. -1.
         25    2    1    2    0    0  0.14570684930E+02 -0.74214517553E+02  0.22049529675E+03  0.26454670155E+03  0.12508669768E+03 0.  0.
          5    1    3    3  502    0 -0.54989555360E+02 -0.30667227421E+02  0.81430246671E+02  0.10301789898E+03  0.41800000000E+01 0.  1.
         -5    1    3    3    0  502  0.69560240290E+02 -0.43547290132E+02  0.13906505008E+03  0.16152880257E+03  0.41800000000E+01 0.  1.
        -11    1    1    2    0    0  0.26565176481E+02  0.71353972873E+02  0.14957969943E+01  0.76153367982E+02  0.00000000000E+00 0.  1.
         11    1    1    2    0    0 -0.41135861411E+02  0.28605446795E+01 -0.63792809666E+00  0.41240135331E+02  0.00000000000E+00 0. -1.
</event>
<event>
 7    1  0.2856214E-009  0.8846420E+02  0.7561462E-02  0.1306614E+00
         -2   -1    0    0    0  501 -0.00000000000E+00  0.00000000000E+00  0.75285509567E+02  0.75285509567E+02  0.00000000000E+00 0.  1.
          2   -1    0    0  501    0  0.00000000000E+00 -0.00000000000E+00 -0.15699175382E+03  0.15699175382E+03  0.00000000000E+00 0. -1.
         25    2    1    2    0    0 -0.17586361574E+01  0.25106279076E+02 -0.53871435955E+02  0.13850293185E+03  0.12509001747E+03 0.  0.
          5    1    3    3  502    0  0.56039668497E+01  0.70252892627E+02 -0.59365232161E+02  0.92241945754E+02  0.41800000000E+01 0. -1.
         -5    1    3    3    0  502 -0.73626030071E+01 -0.45146613551E+02  0.54937962066E+01  0.46260986100E+02  0.41800000000E+01 0. -1.
        -11    1    1    2    0    0 -0.90326440463E+01 -0.40555932388E+02 -0.49784229325E+02  0.64844751521E+02  0.00000000000E+00 0. -1.
         11    1    1    2    0    0  0.10791280204E+02  0.15449653312E+02  0.21949421031E+02  0.28929580008E+02  0.00000000000E+00 0.  1.
</event>
<event>
 7    1  0.2856214E-009  0.8845003E+02  0.7561462E-02  0.1306649E+00
         -1   -1    0    0    0  501 -0.00000000000E+00  0.00000000000E+00  0.19595787161E+02  0.19595787161E+02  0.00000000000E+00 0.  1.
          1   -1    0    0  501    0  0.00000000000E+00 -0.00000000000E+00 -0.63145522156E+03  0.63145522156E+03  0.00000000000E+00 0. -1.
         25    2    1    2    0    0  0.10454005461E+02 -0.18888677773E+02 -0.38008661302E+03  0.40072509399E+03  0.12509476081E+03 0.  0.
          5    1    3    3  502    0 -0.23845797896E+02 -0.37893168511E+02 -0.46029048293E+02  0.64347960215E+02  0.41800000000E+01 0. -1.
         -5    1    3    3    0  502  0.34299803357E+02  0.19004490739E+02 -0.33405756473E+03  0.33637713378E+03  0.41800000000E+01 0. -1.
        -11    1    1    2    0    0  0.11352468729E+02 -0.33703841542E+02 -0.64867419493E+02  0.73977088295E+02  0.00000000000E+00 0.  1.
         11    1    1    2    0    0 -0.21806474190E+02  0.52592519315E+02 -0.16690540189E+03  0.17634882643E+03  0.00000000000E+00 0. -1.
</event>
<event>
 7    1  0.3810968E-009  0.8418116E+02  0.7561462E-02  0.1317588E+00
          3   -1    0    0  501    0  0.00000000000E+00  0.00000000000E+00  0.42181777702E+03  0.42181777702E+03  0.00000000000E+00 0. -1.
         -3   -1    0    0    0  501 -0.00000000000E+00 -0.00000000000E+00 -0.44071420399E+02  0.44071420399E+02  0.00000000000E+00 0.  1.
         25    2    1    2    0    0  0.47463897908E+02  0.48532321663E+02  0.12696217200E+03  0.19072299679E+03  0.12509060930E+03 0.  0.
          5    1    3    3  502    0  0.53505942190E+02  0.56227448535E+02  0.16135276160E+02  0.79386594304E+02  0.41800000000E+01 0.  1.
         -5    1    3    3    0  502 -0.60420442816E+01 -0.76951268723E+01  0.11082689584E+03  0.11133640248E+03  0.41800000000E+01 0.  1.
        -11    1    1    2    0    0 -0.36158383627E+02 -0.68452698383E+01  0.23163646473E+02  0.43483800933E+02  0.00000000000E+00 0.  1.
         11    1    1    2    0    0 -0.11305514282E+02 -0.41687051825E+02  0.22762053815E+03  0.23168239970E+03  0.00000000000E+00 0. -1.
</event>
<event>
 7    1  0.2856214E-009  0.2517751E+03  0.7561462E-02  0.1112188E+00
          3   -1    0    0  501    0  0.00000000000E+00  0.00000000000E+00  0.25252962094E+03  0.25252962094E+03  0.00000000000E+00 0. -1.
         -3   -1    0    0    0  501 -0.00000000000E+00 -0.00000000000E+00 -0.26901432799E+03  0.26901432799E+03  0.00000000000E+00 0.  1.
         25    2    1    2    0    0 -0.12284323213E+03 -0.20082701604E+03 -0.36519014668E+02  0.26907893467E+03  0.12509150491E+03 0.  0.
          5    1    3    3  502    0 -0.88113747460E+02 -0.20397453253E+03 -0.56249350421E+01  0.22230329441E+03  0.41800000000E+01 0.  1.
         -5    1    3    3    0  502 -0.34729484668E+02  0.31475164949E+01 -0.30894079626E+02  0.46775640256E+02  0.41800000000E+01 0.  1.
        -11    1    1    2    0    0  0.85779237511E+01  0.77875531874E+02 -0.17937047728E+02  0.80373608365E+02  0.00000000000E+00 0.  1.
         11    1    1    2    0    0  0.11426530838E+03  0.12295148416E+03  0.37971355341E+02  0.17209140589E+03  0.00000000000E+00 0. -1.
</event>
<event>
 7    1  0.2856214E-009  0.1156962E+03  0.7561462E-02  0.1250371E+00
          3   -1    0    0  501    0  0.00000000000E+00  0.00000000000E+00  0.21392184842E+02  0.21392184842E+02  0.00000000000E+00 0. -1.
         -3   -1    0    0    0  501 -0.00000000000E+00 -0.00000000000E+00 -0.88836304302E+03  0.88836304302E+03  0.00000000000E+00 0.  1.
         25    2    1    2    0    0 -0.16852974351E+02  0.71487072113E+02 -0.61273222503E+03  0.62966880699E+03  0.12509037802E+03 0.  0.
          5    1    3    3  502    0 -0.29415188506E+01  0.10556751116E+03 -0.39961297419E+03  0.41335354539E+03  0.41800000000E+01 0.  1.
         -5    1    3    3    0  502 -0.13911455500E+02 -0.34080439046E+02 -0.21311925084E+03  0.21631526159E+03  0.41800000000E+01 0.  1.
        -11    1    1    2    0    0  0.30869324138E+02 -0.23882906067E+02 -0.21003044844E+03  0.21362606968E+03  0.00000000000E+00 0.  1.
         11    1    1    2    0    0 -0.14016349787E+02 -0.47604166047E+02 -0.44208184708E+02  0.66460351199E+02  0.00000000000E+00 0. -1.
</event>
<event>
 7    1  0.2856214E-009  0.1749487E+03  0.7561462E-02  0.1172783E+00
          2   -1    0    0  501    0  0.00000000000E+00  0.00000000000E+00  0.18440310373E+04  0.18440310373E+04  0.00000000000E+00 0. -1.
         -2   -1    0    0    0  501 -0.00000000000E+00 -0.00000000000E+00 -0.27748372770E+02  0.27748372770E+02  0.00000000000E+00 0.  1.
         25    2    1    2    0    0  0.82528272474E+02  0.13995771128E+03  0.14086446204E+04  0.14234907578E+04  0.12508874610E+03 0.  0.
          5    1    3    3  502    0  0.18716664919E+02  0.49466160876E+02  0.95636184798E+03  0.95783227722E+03  0.41800000000E+01 0.  1.
         -5    1    3    3    0  502  0.63811607555E+02  0.90491550401E+02  0.45228277238E+03  0.46565848059E+03  0.41800000000E+01 0.  1.
        -11    1    1    2    0    0 -0.31035280236E+02  0.56919209907E+01  0.57585858690E+02  0.65663671120E+02  0.00000000000E+00 0.  1.
         11    1    1    2    0    0 -0.51492992238E+02 -0.14564963227E+03  0.35005218544E+03  0.38262498110E+03  0.00000000000E+00 0. -1.
</event>
<event>
 7    1  0.2856214E-009  0.1578751E+03  0.7561462E-02  0.1191117E+00
         -1   -1    0    0    0  501 -0.00000000000E+00  0.00000000000E+00  0.70441923112E+02  0.70441923112E+02  0.00000000000E+00 0.  1.
          1   -1    0    0  501    0  0.00000000000E+00 -0.00000000000E+00 -0.54189426512E+03  0.54189426512E+03  0.00000000000E+00 0. -1.
         25    2    1    2    0    0  0.10897053443E+03 -0.60186741929E+02 -0.83856423374E+02  0.19538629326E+03  0.12508749968E+03 0.  0.
          5    1    3    3  502    0  0.96895040519E+02 -0.89703152427E+02 -0.93452721764E+02  0.16182146964E+03  0.41800000000E+01 0.  1.
         -5    1    3    3    0  502  0.12075493912E+02  0.29516410498E+02  0.95962983899E+01  0.33564823621E+02  0.41800000000E+01 0.  1.
        -11    1    1    2    0    0 -0.30408590910E+02  0.66033087026E+02 -0.15112190665E+03  0.16769878250E+03  0.00000000000E+00 0.  1.
         11    1    1    2    0    0 -0.78561943521E+02 -0.58463450964E+01 -0.23647401198E+03  0.24925111246E+03  0.00000000000E+00 0. -1.
</event>
<event>
 7    1  0.2856214E-009  0.9914684E+02  0.7561462E-02  0.1282100E+00
         -2   -1    0    0    0  501 -0.00000000000E+00  0.00000000000E+00  0.44369875042E+02  0.44369875042E+02  0.00000000000E+00 0.  1.
          2   -1    0    0  501    0  0.00000000000E+00 -0.00000000000E+00 -0.32477459345E+03  0.32477459345E+03  0.00000000000E+00 0. -1.
         25    2    1    2    0    0 -0.17939333593E+02  0.42510898089E+02 -0.19146082258E+03  0.23330953201E+03  0.12508834876E+03 0.  0.
          5    1    3    3  502    0  0.26292782678E+02 -0.32833843563E+02 -0.89437357938E+02  0.98923632662E+02  0.41800000000E+01 0.  1.
         -5    1    3    3    0  502 -0.44232116271E+02  0.75344741652E+02 -0.10202346465E+03  0.13438589934E+03  0.41800000000E+01 0.  1.
        -11    1    1    2    0    0  0.14615031642E+02  0.88498416215E+01  0.13110923394E+02  0.21536368284E+02  0.00000000000E+00 0.  1.
         11    1    1    2    0    0  0.33243019516E+01 -0.51360739710E+02 -0.10205481921E+03  0.11429856820E+03  0.00000000000E+00 0. -1.
</event>
<event>
 7    1  0.2856214E-009  0.1166760E+03  0.7561462E-02  0.1248684E+00
         -1   -1    0    0    0  501 -0.00000000000E+00  0.00000000000E+00  0.26410721613E+03  0.26410721613E+03  0.00000000000E+00 0.  1.
          1   -1    0    0  501    0  0.00000000000E+00 -0.00000000000E+00 -0.80599079862E+02  0.80599079862E+02  0.00000000000E+00 0. -1.
         25    2    1    2    0    0  0.78302657818E+02  0.27828783166E+02  0.16294745568E+03  0.22159616488E+03  0.12508892670E+03 0.  0.
          5    1    3    3  502    0  0.89695121473E+02  0.65144812882E+02  0.11985500661E+03  0.16331489972E+03  0.41800000000E+01 0. -1.
         -5    1    3    3    0  502 -0.11392463655E+02 -0.37316029716E+02  0.43092449062E+02  0.58281265155E+02  0.41800000000E+01 0. -1.
        -11    1    1    2    0    0 -0.13061146555E+02 -0.60748477783E+01 -0.32957027142E+02  0.35967526505E+02  0.00000000000E+00 0. -1.
         11    1    1    2    0    0 -0.65241511263E+02 -0.21753935388E+02  0.53517707734E+02  0.87142604607E+02  0.00000000000E+00 0.  1.
</event>
<event>
 7    1  0.2856214E-009  0.9755279E+02  0.7561462E-02  0.1285528E+00
         -3   -1    0    0    0  501 -0.00000000000E+00  0.00000000000E+00  0.72804853266E+02  0.72804853266E+02  0.00000000000E+00 0.  1.
          3   -1    0    0  501    0  0.00000000000E+00 -0.00000000000E+00 -0.23933547167E+03  0.23933547167E+03  0.00000000000E+00 0. -1.
         25    2    1    2    0    0  0.65691338018E+02 -0.10554884172E+02 -0.14880936927E+03  0.20547035472E+03  0.12508829209E+03 0.  0.
          5    1    3    3  502    0 -0.11810740627E+02  0.35940785285E+02 -0.92840059937E+01  0.39177784628E+02  0.41800000000E+01 0. -1.
         -5    1    3    3    0  502  0.77502078645E+02 -0.46495669457E+02 -0.13952536327E+03  0.16629257009E+03  0.41800000000E+01 0. -1.
        -11    1    1    2    0    0 -0.24913462904E+02  0.29603353827E+01  0.32804716736E+02  0.41298833634E+02  0.00000000000E+00 0. -1.
         11    1    1    2    0    0 -0.40777875115E+02  0.75945487891E+01 -0.50525965875E+02  0.65371136580E+02  0.00000000000E+00 0.  1.
</event>
<event>
 7    1  0.2856214E-009  0.1721138E+03  0.7561462E-02  0.1175661E+00
          1   -1    0    0  501    0  0.00000000000E+00  0.00000000000E+00  0.41637623383E+03  0.41637623383E+03  0.00000000000E+00 0. -1.
         -1   -1    0    0    0  501 -0.00000000000E+00 -0.00000000000E+00 -0.18010547270E+03  0.18010547270E+03  0.00000000000E+00 0.  1.
         25    2    1    2    0    0  0.12532868550E+03 -0.90318511583E+02 -0.94999329386E+02  0.22031374148E+03  0.12509420114E+03 0.  0.
          5    1    3    3  502    0  0.74870283062E+02 -0.10776318494E+03 -0.10207158798E+03  0.16629655675E+03  0.41800000000E+01 0.  1.
         -5    1    3    3    0  502  0.50458402440E+02  0.17444673354E+02  0.70722585928E+01  0.54017184736E+02  0.41800000000E+01 0.  1.
        -11    1    1    2    0    0 -0.10177796700E+03  0.51698921447E+02  0.14532261697E+03  0.18479771657E+03  0.00000000000E+00 0.  1.
         11    1    1    2    0    0 -0.23550718503E+02  0.38619590136E+02  0.18594747354E+03  0.19137024847E+03  0.00000000000E+00 0. -1.
</event>
<event>
 7    1  0.2856214E-009  0.8384712E+02  0.7561462E-02  0.1318475E+00
         -1   -1    0    0    0  501 -0.00000000000E+00  0.00000000000E+00  0.16718979289E+03  0.16718979289E+03  0.00000000000E+00 0.  1.
          1   -1    0    0  501    0  0.00000000000E+00 -0.00000000000E+00 -0.88734718267E+02  0.88734718267E+02  0.00000000000E+00 0. -1.
         25    2    1    2    0    0 -0.33828200183E+02 -0.18134834108E+02  0.26221722874E+01  0.13085302494E+03  0.12506965664E+03 0.  0.
          5    1    3    3  502    0 -0.55157919821E+02  0.22021322698E+01  0.50199904771E+02  0.74731173847E+02  0.41800000000E+01 0. -1.
         -5    1    3    3    0  502  0.21329719638E+02 -0.20336966378E+02 -0.47577732484E+02  0.56121851088E+02  0.41800000000E+01 0. -1.
        -11    1    1    2    0    0  0.57100484520E+02  0.10368090466E+02  0.15691121005E+02  0.60117999890E+02  0.00000000000E+00 0. -1.
         11    1    1    2    0    0 -0.23272284337E+02  0.77667436423E+01  0.60141781332E+02  0.64953486334E+02  0.00000000000E+00 0.  1.
</event>
<event>
 7    1  0.2856214E-009  0.1180569E+03  0.7561462E-02  0.1246337E+00
          2   -1    0    0  501    0  0.00000000000E+00  0.00000000000E+00  0.57531596445E+03  0.57531596445E+03  0.00000000000E+00 0. -1.
         -2   -1    0    0    0  501 -0.00000000000E+00 -0.00000000000E+00 -0.32410854736E+02  0.32410854736E+02  0.00000000000E+00 0.  1.
         25    2    1    2    0    0 -0.19549009076E+02 -0.66990013356E+02  0.39985860274E+03  0.42473850739E+03  0.12508425892E+03 0.  0.
          5    1    3    3  502    0 -0.60719156893E+02 -0.28346982137E+01  0.11903096699E+03  0.13371871608E+03  0.41800000000E+01 0.  1.
         -5    1    3    3    0  502  0.41170147817E+02 -0.64155315142E+02  0.28082763576E+03  0.29101979131E+03  0.41800000000E+01 0.  1.
        -11    1    1    2    0    0 -0.15920858909E+02 -0.65333211260E+01  0.74293953722E+02  0.76261062103E+02  0.00000000000E+00 0. -1.
         11    1    1    2    0    0  0.35469867985E+02  0.73523334482E+02  0.68752553246E+02  0.10672724969E+03  0.00000000000E+00 0.  1.
</event>
<event>
 7    1  0.2856214E-009  0.1104783E+03  0.7561462E-02  0.1259687E+00
          2   -1    0    0  501    0  0.00000000000E+00  0.00000000000E+00  0.20999625118E+03  0.20999625118E+03  0.00000000000E+00 0. -1.
         -2   -1    0    0    0  501 -0.00000000000E+00 -0.00000000000E+00 -0.92095548689E+02  0.92095548689E+02  0.00000000000E+00 0.  1.
         25    2    1    2    0    0  0.54401323449E+02  0.63034683443E+02  0.91463194727E+02  0.17592052610E+03  0.12509852199E+03 0.  0.
          5    1    3    3  502    0  0.75353952684E+02  0.72396701053E+02  0.27937283874E+02  0.10824723894E+03  0.41800000000E+01 0. -1.
         -5    1    3    3    0  502 -0.20952629234E+02 -0.93620176102E+01  0.63525910853E+02  0.67673287162E+02  0.41800000000E+01 0. -1.
        -11    1    1    2    0    0 -0.10122112555E+02 -0.43484380614E+02 -0.28488025217E+02  0.52961458635E+02  0.00000000000E+00 0.  1.
         11    1    1    2    0    0 -0.44279210895E+02 -0.19550302829E+02  0.54925532979E+02  0.73209815129E+02  0.00000000000E+00 0. -1.
</event>
<event>
 7    1  0.2856214E-009  0.1024828E+03  0.7561462E-02  0.1275160E+00
          2   -1    0    0  501    0  0.00000000000E+00  0.00000000000E+00  0.13219563944E+04  0.13219563944E+04  0.00000000000E+00 0.  1.
         -2   -1    0    0    0  501 -0.00000000000E+00 -0.00000000000E+00 -0.11556725555E+02  0.11556725555E+02  0.00000000000E+00 0. -1.
         25    2    1    2    0    0  0.17497749365E+02 -0.58022577009E+02  0.78012097535E+03  0.79240717304E+03  0.12509037144E+03 0.  0.
          5    1    3    3  502    0 -0.28693973527E+02 -0.99541658532E+01  0.59175391821E+03  0.59254755223E+03  0.41800000000E+01 0. -1.
         -5    1    3    3    0  502  0.46191722893E+02 -0.48068411156E+02  0.18836705714E+03  0.19985962081E+03  0.41800000000E+01 0. -1.
        -11    1    1    2    0    0  0.31381424564E+02  0.48417042818E+02  0.26838930452E+03  0.27452107865E+03  0.00000000000E+00 0. -1.
         11    1    1    2    0    0 -0.48879173929E+02  0.96055341914E+01  0.26188938902E+03  0.26658486831E+03  0.00000000000E+00 0.  1.
</event>
<event>
 7    1  0.2856214E-009  0.1058322E+03  0.7561462E-02  0.1268489E+00
          4   -1    0    0  501    0  0.00000000000E+00  0.00000000000E+00  0.29125134554E+02  0.29125134554E+02  0.00000000000E+00 0. -1.
         -4   -1    0    0    0  501 -0.00000000000E+00 -0.00000000000E+00 -0.39032376444E+03  0.39032376444E+03  0.00000000000E+00 0.  1.
         25    2    1    2    0    0  0.52042490647E+01  0.58102846884E+01 -0.21183636633E+03  0.24613575590E+03  0.12508925060E+03 0.  0.
          5    1    3    3  502    0  0.59240013835E+02 -0.22668701032E+02 -0.11931457473E+03  0.13519130663E+03  0.41800000000E+01 0.  1.
         -5    1    3    3    0  502 -0.54035764771E+02  0.28478985721E+02 -0.92521791601E+02  0.11094444927E+03  0.41800000000E+01 0.  1.
        -11    1    1    2    0    0 -0.43396199375E+02 -0.17709871565E+02 -0.93680135656E+02  0.10475131258E+03  0.00000000000E+00 0. -1.
         11    1    1    2    0    0  0.38191950310E+02  0.11899586877E+02 -0.55682127903E+02  0.68561830519E+02  0.00000000000E+00 0.  1.
</event>
<event>
 7    1  0.2856214E-009  0.1108086E+03  0.7561462E-02  0.1259080E+00
          1   -1    0    0  501    0  0.00000000000E+00  0.00000000000E+00  0.19776918815E+03  0.19776918815E+03  0.00000000000E+00 0. -1.
         -1   -1    0    0    0  501 -0.00000000000E+00 -0.00000000000E+00 -0.11183933775E+03  0.11183933775E+03  0.00000000000E+00 0.  1.
         25    2    1    2    0    0 -0.67079757099E+02  0.51992366655E+02  0.10276968962E+03  0.18278909294E+03  0.12508934163E+03 0.  0.
          5    1    3    3  502    0 -0.75282943257E+02  0.54663701055E+02  0.14799542810E+02  0.94298147521E+02  0.41800000000E+01 0.  1.
         -5    1    3    3    0  502  0.82031861576E+01 -0.26713343997E+01  0.87970146812E+02  0.88490945416E+02  0.41800000000E+01 0.  1.
        -11    1    1    2    0    0  0.83062551617E+02 -0.23651656529E+02  0.67547301224E+01  0.86628025007E+02  0.00000000000E+00 0. -1.
         11    1    1    2    0    0 -0.15982794517E+02 -0.28340710126E+02 -0.23594569347E+02  0.40191407959E+02  0.00000000000E+00 0.  1.
</event>
<event>
 7    1  0.2856214E-009  0.1235005E+03  0.7561462E-02  0.1237431E+00
         -2   -1    0    0    0  501 -0.00000000000E+00  0.00000000000E+00  0.14672396082E+02  0.14672396082E+02  0.00000000000E+00 0.  1.
          2   -1    0    0  501    0  0.00000000000E+00 -0.00000000000E+00 -0.15854521163E+04  0.15854521163E+04  0.00000000000E+00 0. -1.
         25    2    1    2    0    0 -0.44571791209E+02  0.89903127983E+02 -0.10409655559E+04  0.10532447923E+04  0.12508431928E+03 0.  0.
          5    1    3    3  502    0 -0.16633829339E+02 -0.44654986427E+01 -0.64386130220E+03  0.64410517296E+03  0.41800000000E+01 0.  1.
         -5    1    3    3    0  502 -0.27937961870E+02  0.94368626626E+02 -0.39710425366E+03  0.40913961930E+03  0.41800000000E+01 0.  1.
        -11    1    1    2    0    0  0.23390797134E+02 -0.10316401347E+03 -0.47502314985E+03  0.48665895241E+03  0.00000000000E+00 0.  1.
         11    1    1    2    0    0  0.21180994075E+02  0.13260885486E+02 -0.54791014487E+02  0.60220767701E+02  0.00000000000E+00 0. -1.
</event>
<event>
 7    1  0.2856214E-009  0.4763243E+03  0.7561462E-02  0.1020150E+00
         -1   -1    0    0    0  501 -0.00000000000E+00  0.00000000000E+00  0.20075552664E+03  0.20075552664E+03  0.00000000000E+00 0.  1.
          1   -1    0    0  501    0  0.00000000000E+00 -0.00000000000E+00 -0.12648811190E+04  0.12648811190E+04  0.00000000000E+00 0. -1.
         25    2    1    2    0    0 -0.14091773653E+03 -0.44414175882E+03 -0.76686110550E+03  0.90600562915E+03  0.12510209642E+03 0.  0.
          5    1    3    3  502    0 -0.16182659247E+03 -0.34551464991E+03 -0.60628817946E+03  0.71635958029E+03  0.41800000000E+01 0. -1.
         -5    1    3    3    0  502  0.20908855938E+02 -0.98627108917E+02 -0.16057292604E+03  0.18964604886E+03  0.41800000000E+01 0. -1.
        -11    1    1    2    0    0  0.42089488708E+02  0.58408982881E+02 -0.21021524634E+02  0.75000258925E+02  0.00000000000E+00 0.  1.
         11    1    1    2    0    0  0.98828247820E+02  0.38573277594E+03 -0.27624296223E+03  0.48463075757E+03  0.00000000000E+00 0. -1.
</event>
<event>
 7    1  0.2856214E-009  0.8689073E+02  0.7561462E-02  0.1310561E+00
         -1   -1    0    0    0  501 -0.00000000000E+00  0.00000000000E+00  0.31239728744E+02  0.31239728744E+02  0.00000000000E+00 0.  1.
          1   -1    0    0  501    0  0.00000000000E+00 -0.00000000000E+00 -0.54980297942E+03  0.54980297942E+03  0.00000000000E+00 0. -1.
         25    2    1    2    0    0 -0.40636411756E+02  0.17982628094E+02 -0.40412029511E+03  0.42536416935E+03  0.12508705276E+03 0.  0.
          5    1    3    3  502    0 -0.10648010961E+00 -0.26122036315E+02 -0.12663922329E+02  0.29329497916E+02  0.41800000000E+01 0. -1.
         -5    1    3    3    0  502 -0.40529931646E+02  0.44104664409E+02 -0.39145637278E+03  0.39603467143E+03  0.41800000000E+01 0. -1.
        -11    1    1    2    0    0  0.12045673377E+02 -0.45820597278E+02 -0.16921568053E+02  0.50308695545E+02  0.00000000000E+00 0.  1.
         11    1    1    2    0    0  0.28590738379E+02  0.27837969184E+02 -0.97521387511E+02  0.10536984327E+03  0.00000000000E+00 0. -1.
</event>
<event>
 7    1  0.2856214E-009  0.1021977E+03  0.7561462E-02  0.1275741E+00
         -3   -1    0    0    0  501 -0.00000000000E+00  0.00000000000E+00  0.11282086636E+03  0.11282086636E+03  0.00000000000E+00 0.  1.
          3   -1    0    0  501    0  0.00000000000E+00 -0.00000000000E+00 -0.21484909670E+03  0.21484909670E+03  0.00000000000E+00 0. -1.
         25    2    1    2    0    0 -0.77909502435E+02 -0.37805058354E+02  0.18800712663E+02  0.15329717151E+03  0.12508973975E+03 0.  0.
          5    1    3    3  502    0 -0.43736877835E+02  0.21580778706E+02 -0.39763827451E+02  0.63065671057E+02  0.41800000000E+01 0. -1.
         -5    1    3    3    0  502 -0.34172624600E+02 -0.59385837060E+02  0.58564540114E+02  0.90231500454E+02  0.41800000000E+01 0. -1.
        -11    1    1    2    0    0  0.19372408789E+02  0.12316666916E+02 -0.10649084454E+03  0.10893709412E+03  0.00000000000E+00 0. -1.
         11    1    1    2    0    0  0.58537093646E+02  0.25488391437E+02 -0.14338098465E+02  0.65435697430E+02  0.00000000000E+00 0.  1.
</event>
<event>
 7    1  0.2856214E-009  0.9789594E+02  0.7561462E-02  0.1284784E+00
          1   -1    0    0  501    0  0.00000000000E+00  0.00000000000E+00  0.18817604493E+03  0.18817604493E+03  0.00000000000E+00 0. -1.
         -1   -1    0    0    0  501 -0.00000000000E+00 -0.00000000000E+00 -0.11275375424E+03  0.11275375424E+03  0.00000000000E+00 0.  1.
         25    2    1    2    0    0 -0.45000643467E+02  0.12829090949E+02 -0.48697762648E+02  0.14215546237E+03  0.12508820851E+03 0.  0.
          5    1    3    3  502    0  0.11643246680E+02 -0.43659774386E+02 -0.41895199190E+02  0.61761000703E+02  0.41800000000E+01 0.  1.
         -5    1    3    3    0  502 -0.56643890147E+02  0.56488865335E+02 -0.68025634583E+01  0.80394461671E+02  0.41800000000E+01 0.  1.
        -11    1    1    2    0    0  0.46253928110E+02  0.10100044415E+02  0.12708793041E+03  0.13561997942E+03  0.00000000000E+00 0. -1.
         11    1    1    2    0    0 -0.12532846425E+01 -0.22929135364E+02 -0.29678770729E+01  0.23154357371E+02  0.00000000000E+00 0.  1.
</event>
<event>
 7    1  0.2856214E-009  0.1581179E+03  0.7561462E-02  0.1190838E+00
          1   -1    0    0  501    0  0.00000000000E+00  0.00000000000E+00  0.11071769981E+03  0.11071769981E+03  0.00000000000E+00 0. -1.
         -1   -1    0    0    0  501 -0.00000000000E+00 -0.00000000000E+00 -0.29392284572E+03  0.29392284572E+03  0.00000000000E+00 0.  1.
         25    2    1    2    0    0  0.13745888732E+03 -0.99758968616E+01 -0.50806887022E+02  0.19293026892E+03  0.12508510973E+03 0.  0.
          5    1    3    3  502    0  0.64414857622E+02  0.51490029793E+02 -0.51605379183E+02  0.97370861202E+02  0.41800000000E+01 0. -1.
         -5    1    3    3    0  502  0.73044029699E+02 -0.61465926655E+02  0.79849216090E+00  0.95559407721E+02  0.41800000000E+01 0. -1.
        -11    1    1    2    0    0 -0.85072556770E+02  0.18247126845E+01 -0.19963147583E+02  0.87402498553E+02  0.00000000000E+00 0. -1.
         11    1    1    2    0    0 -0.52386330551E+02  0.81511841771E+01 -0.11243511130E+03  0.12430777806E+03  0.00000000000E+00 0.  1.
</event>
<event>
 7    1  0.2856214E-009  0.1690630E+03  0.7561462E-02  0.1178829E+00
          2   -1    0    0  501    0  0.00000000000E+00  0.00000000000E+00  0.44827299682E+03  0.44827299682E+03  0.00000000000E+00 0. -1.
         -2   -1    0    0    0  501 -0.00000000000E+00 -0.00000000000E+00 -0.93053595897E+02  0.93053595897E+02  0.00000000000E+00 0.  1.
         25    2    1    2    0    0 -0.13261905159E+03  0.95081121133E+02  0.11235538936E+03  0.23430611497E+03  0.12508952615E+03 0.  0.
          5    1    3    3  502    0 -0.60246923007E+02  0.80500369059E+02  0.12373357077E+03  0.15949128530E+03  0.41800000000E+01 0.  1.
         -5    1    3    3    0  502 -0.72372128581E+02  0.14580752074E+02 -0.11378181407E+02  0.74814829670E+02  0.41800000000E+01 0.  1.
        -11    1    1    2    0    0  0.59415206632E+02 -0.35961518873E+02  0.18239607816E+03  0.19517101974E+03  0.00000000000E+00 0. -1.
         11    1    1    2    0    0  0.73203844956E+02 -0.59119602261E+02  0.60467933407E+02  0.11184945802E+03  0.00000000000E+00 0.  1.
</event>
<event>
 7    1  0.2856214E-009  0.1199509E+03  0.7561462E-02  0.1243178E+00
          1   -1    0    0  501    0  0.00000000000E+00  0.00000000000E+00  0.18771638455E+02  0.18771638455E+02  0.00000000000E+00 0. -1.
         -1   -1    0    0    0  501 -0.00000000000E+00 -0.00000000000E+00 -0.78206799906E+03  0.78206799906E+03  0.00000000000E+00 0.  1.
         25    2    1    2    0    0 -0.27071147652E+01  0.45166731248E+02 -0.41444501792E+03  0.43526934745E+03  0.12508944746E+03 0.  0.
          5    1    3    3  502    0  0.60199233892E+02  0.30815899138E+02 -0.19127461781E+03  0.20292121431E+03  0.41800000000E+01 0. -1.
         -5    1    3    3    0  502 -0.62906348657E+02  0.14350832109E+02 -0.22317040012E+03  0.23234813314E+03  0.41800000000E+01 0. -1.
        -11    1    1    2    0    0 -0.39859673501E+02  0.66684371847E+01 -0.16464969534E+03  0.16953696884E+03  0.00000000000E+00 0.  1.
         11    1    1    2    0    0  0.42566788267E+02 -0.51835168433E+02 -0.18420164734E+03  0.19603332123E+03  0.00000000000E+00 0. -1.
</event>
<event>
 7    1  0.2856214E-009  0.2641080E+03  0.7561462E-02  0.1104700E+00
          2   -1    0    0  501    0  0.00000000000E+00  0.00000000000E+00  0.23786359706E+04  0.23786359706E+04  0.00000000000E+00 0. -1.
         -2   -1    0    0    0  501 -0.00000000000E+00 -0.00000000000E+00 -0.34921916110E+02  0.34921916110E+02  0.00000000000E+00 0.  1.
         25    2    1    2    0    0 -0.22515351798E+03 -0.86462444005E+02  0.16759896587E+04  0.16978680890E+04  0.12507937717E+03 0.  0.
          5    1    3    3  502    0 -0.79295976655E+02 -0.96950622744E+02  0.79335837958E+03  0.80319503609E+03  0.41800000000E+01 0. -1.
         -5    1    3    3    0  502 -0.14585754132E+03  0.10488178739E+02  0.88263127914E+03  0.89467305290E+03  0.41800000000E+01 0. -1.
        -11    1    1    2    0    0  0.21914859525E+02  0.43740324695E+02  0.15361688652E+03  0.16121918278E+03  0.00000000000E+00 0. -1.
         11    1    1    2    0    0  0.20323865845E+03  0.42722119311E+02  0.51410750929E+03  0.55447061498E+03  0.00000000000E+00 0.  1.
</event>
<event>
 7    1  0.2856214E-009  0.1781824E+03  0.7561462E-02  0.1169574E+00
         -2   -1    0    0    0  501 -0.00000000000E+00  0.00000000000E+00  0.30803996211E+02  0.30803996211E+02  0.00000000000E+00 0.  1.
          2   -1    0    0  501    0  0.00000000000E+00 -0.00000000000E+00 -0.12964997348E+04  0.12964997348E+04  0.00000000000E+00 0. -1.
         25    2    1    2    0    0 -0.90386203014E+02  0.12750962506E+03 -0.85302241813E+03  0.87619823845E+03  0.12509091509E+03 0.  0.
          5    1    3    3  502    0 -0.10932402593E+03  0.12701667342E+03 -0.82654890125E+03  0.84337745792E+03  0.41800000000E+01 0.  1.
         -5    1    3    3    0  502  0.18937822916E+02  0.49295164540E+00 -0.26473516886E+02  0.32820780527E+02  0.41800000000E+01 0.  1.
        -11    1    1    2    0    0  0.96429888153E+02 -0.91899086570E+02 -0.37898585549E+03  0.40171438125E+03  0.00000000000E+00 0. -1.
         11    1    1    2    0    0 -0.60436851393E+01 -0.35610538492E+02 -0.33687464983E+02  0.49391111333E+02  0.00000000000E+00 0.  1.
</event>
<event>
 7    1  0.2856214E-009  0.3474334E+03  0.7561462E-02  0.1063673E+00
          1   -1    0    0  501    0  0.00000000000E+00  0.00000000000E+00  0.14988084021E+03  0.14988084021E+03  0.00000000000E+00 0. -1.
         -1   -1    0    0    0  501 -0.00000000000E+00 -0.00000000000E+00 -0.85423692167E+03  0.85423692167E+03  0.00000000000E+00 0.  1.
         25    2    1    2    0    0  0.16249942289E+03  0.29905160977E+03 -0.33605812169E+03  0.49438982127E+03  0.12509319118E+03 0.  0.
          5    1    3    3  502    0  0.83854160654E+02  0.21008638571E+03 -0.28796482676E+03  0.36620898893E+03  0.41800000000E+01 0. -1.
         -5    1    3    3    0  502  0.78645262231E+02  0.88965224054E+02 -0.48093294926E+02  0.12818083234E+03  0.41800000000E+01 0. -1.
        -11    1    1    2    0    0 -0.42617246308E+02 -0.16298213069E+03 -0.20824067005E+03  0.26784992303E+03  0.00000000000E+00 0. -1.
         11    1    1    2    0    0 -0.11988217658E+03 -0.13606947908E+03 -0.16005728973E+03  0.24187801759E+03  0.00000000000E+00 0.  1.
</event>
<event>
 7    1  0.2856214E-009  0.1260636E+03  0.7561462E-02  0.1233416E+00
         -2   -1    0    0    0  501 -0.00000000000E+00  0.00000000000E+00  0.52792671879E+02  0.52792671879E+02  0.00000000000E+00 0.  1.
          2   -1    0    0  501    0  0.00000000000E+00 -0.00000000000E+00 -0.44472337949E+03  0.44472337949E+03  0.00000000000E+00 0. -1.
         25    2    1    2    0    0 -0.63635866956E+02  0.41881322829E+02 -0.87034140098E+02  0.17036978489E+03  0.12508938122E+03 0.  0.
          5    1    3    3  502    0  0.44846021935E+01  0.62077397864E+02 -0.76038052659E+02  0.98351272664E+02  0.41800000000E+01 0. -1.
         -5    1    3    3    0  502 -0.68120469149E+02 -0.20196075035E+02 -0.10996087438E+02  0.72018512224E+02  0.41800000000E+01 0. -1.
        -11    1    1    2    0    0  0.44374853490E+02  0.23640691924E+02 -0.13166983797E+03  0.14094309550E+03  0.00000000000E+00 0.  1.
         11    1    1    2    0    0  0.19261013466E+02 -0.65522014753E+02 -0.17322672955E+03  0.18620317099E+03  0.00000000000E+00 0. -1.
</event>
<event>
 7    1  0.2856214E-009  0.9927976E+02  0.7561462E-02  0.1281818E+00
         -4   -1    0    0    0  501 -0.00000000000E+00  0.00000000000E+00  0.36315593897E+03  0.36315593897E+03  0.00000000000E+00 0.  1.
          4   -1    0    0  501    0  0.00000000000E+00 -0.00000000000E+00 -0.31970113084E+02  0.31970113084E+02  0.00000000000E+00 0. -1.
         25    2    1    2    0    0 -0.43987605886E+01 -0.81488614626E+01  0.21132732774E+03  0.24574699042E+03  0.12508633344E+03 0.  0.
          5    1    3    3  502    0  0.56752081415E+02  0.16470036713E+02  0.94253121384E+02  0.11132467896E+03  0.41800000000E+01 0.  1.
         -5    1    3    3    0  502 -0.61150842003E+02 -0.24618898176E+02  0.11707420635E+03  0.13442231146E+03  0.41800000000E+01 0.  1.
        -11    1    1    2    0    0  0.37187808979E+02  0.14413134839E+02  0.21078085057E+02  0.45110500576E+02  0.00000000000E+00 0. -1.
         11    1    1    2    0    0 -0.32789048391E+02 -0.62642733759E+01  0.98780413088E+02  0.10426856106E+03  0.00000000000E+00 0.  1.
</event>
<event>
 7    1  0.2856214E-009  0.7637419E+02  0.7561462E-02  0.1339668E+00
          2   -1    0    0  501    0  0.00000000000E+00  0.00000000000E+00  0.50420933273E+02  0.50420933273E+02  0.00000000000E+00 0.  1.
         -2   -1    0    0    0  501 -0.00000000000E+00 -0.00000000000E+00 -0.23954440216E+03  0.23954440216E+03  0.00000000000E+00 0. -1.
         25    2    1    2    0    0  0.11095039163E+02 -0.58252551744E+00 -0.10312256780E+03  0.16249575415E+03  0.12508863616E+03 0.  0.
          5    1    3    3  502    0  0.27978304157E+02  0.46813682801E+02 -0.86470109260E+01  0.55376435411E+02  0.41800000000E+01 0.  1.
         -5    1    3    3    0  502 -0.16883264994E+02 -0.47396208318E+02 -0.94475556874E+02  0.10711931874E+03  0.41800000000E+01 0.  1.
        -11    1    1    2    0    0  0.17738714865E+02  0.49148738874E+01  0.14113917493E+02  0.23195272307E+02  0.00000000000E+00 0.  1.
         11    1    1    2    0    0 -0.28833754028E+02 -0.43323483699E+01 -0.10011481858E+03  0.10427430898E+03  0.00000000000E+00 0. -1.
</event>
<event>
 7    1  0.2856214E-009  0.1603903E+03  0.7561462E-02  0.1188257E+00
          2   -1    0    0  501    0  0.00000000000E+00  0.00000000000E+00  0.39477292117E+03  0.39477292117E+03  0.00000000000E+00 0. -1.
         -2   -1    0    0    0  501 -0.00000000000E+00 -0.00000000000E+00 -0.95823299553E+02  0.95823299553E+02  0.00000000000E+00 0.  1.
         25    2    1    2    0    0  0.25123475902E+02 -0.14425135709E+03  0.72494709492E+02  0.20577603512E+03  0.12509456688E+03 0.  0.
          5    1    3    3  502    0  0.53015132204E+02 -0.50670855400E+02 -0.14566615024E+02  0.74885235546E+02  0.41800000000E+01 0. -1.
         -5    1    3    3    0  502 -0.27891656303E+02 -0.93580501689E+02  0.87061324516E+02  0.13089079958E+03  0.41800000000E+01 0. -1.
        -11    1    1    2    0    0 -0.22960483495E+02  0.46962377566E+02  0.15642488139E+03  0.16492844578E+03  0.00000000000E+00 0. -1.
         11    1    1    2    0    0 -0.21629924065E+01  0.97288979523E+02  0.70030030738E+02  0.11989173982E+03  0.00000000000E+00 0.  1.
</event>
<event>
 7    1  0.2856214E-009  0.1236832E+03  0.7561462E-02  0.1237142E+00
          2   -1    0    0  501    0  0.00000000000E+00  0.00000000000E+00  0.84218106769E+03  0.84218106769E+03  0.00000000000E+00 0. -1.
         -2   -1    0    0    0  501 -0.00000000000E+00 -0.00000000000E+00 -0.51252168436E+02  0.51252168436E+02  0.00000000000E+00 0.  1.
         25    2    1    2    0    0  0.10814925798E+03 -0.13046941848E+02  0.69381948321E+03  0.71337167441E+03  0.12508871201E+03 0.  0.
          5    1    3    3  502    0  0.28726855189E+02 -0.12723408486E+01  0.21211918057E+02  0.35975949299E+02  0.41800000000E+01 0.  1.
         -5    1    3    3    0  502  0.79422402788E+02 -0.11774600999E+02  0.67260756516E+03  0.67739572511E+03  0.41800000000E+01 0.  1.
        -11    1    1    2    0    0 -0.79697222433E+02 -0.30965700042E+02  0.21670915294E+02  0.88205160916E+02  0.00000000000E+00 0.  1.
         11    1    1    2    0    0 -0.28452035544E+02  0.44012641889E+02  0.75438500744E+02  0.91856400796E+02  0.00000000000E+00 0. -1.
</event>
<event>
 7    1  0.2856214E-009  0.1137413E+03  0.7561462E-02  0.1253794E+00
          1   -1    0    0  501    0  0.00000000000E+00  0.00000000000E+00  0.22763001163E+03  0.22763001163E+03  0.00000000000E+00 0. -1.
         -1   -1    0    0    0  501 -0.00000000000E+00 -0.00000000000E+00 -0.74033181186E+02  0.74033181186E+02  0.00000000000E+00 0.  1.
         25    2    1    2    0    0  0.25123795760E+02 -0.46487188764E+02  0.28930055160E+02  0.13884139116E+03  0.12509084689E+03 0.  0.
          5    1    3    3  502    0 -0.12091302322E+02 -0.82699184327E+02  0.18910115494E+02  0.85792887515E+02  0.41800000000E+01 0. -1.
         -5    1    3    3    0  502  0.37215098082E+02  0.36211995563E+02  0.10019939666E+02  0.53048503643E+02  0.41800000000E+01 0. -1.
        -11    1    1    2    0    0  0.14840844775E+02 -0.13208665832E+02  0.11099291595E+01  0.19898529329E+02  0.00000000000E+00 0.  1.
         11    1    1    2    0    0 -0.39964640535E+02  0.59695854596E+02  0.12355684612E+03  0.14292327233E+03  0.00000000000E+00 0. -1.
</event>
<event>
 7    1  0.2856214E-009  0.1287249E+03  0.7561462E-02  0.1229360E+00
          1   -1    0    0  501    0  0.00000000000E+00  0.00000000000E+00  0.24964134952E+02  0.24964134952E+02  0.00000000000E+00 0. -1.
         -1   -1    0    0    0  501 -0.00000000000E+00 -0.00000000000E+00 -0.91103286206E+03  0.91103286206E+03  0.00000000000E+00 0.  1.
         25    2    1    2    0    0  0.53351254053E+02 -0.59173266449E+02 -0.66906611037E+03  0.68530574701E+03  0.12508667023E+03 0.  0.
          5    1    3    3  502    0  0.35361403264E+01  0.29606363390E+02 -0.32713680152E+03  0.32851940635E+03  0.41800000000E+01 0. -1.
         -5    1    3    3    0  502  0.49815113727E+02 -0.88779629839E+02 -0.34192930885E+03  0.35678634066E+03  0.41800000000E+01 0. -1.
        -11    1    1    2    0    0  0.17608914209E+02  0.51085888063E+02 -0.89407080146E+02  0.10446754424E+03  0.00000000000E+00 0.  1.
         11    1    1    2    0    0 -0.70960168263E+02  0.80873783857E+01 -0.12759553659E+03  0.14622370576E+03  0.00000000000E+00 0. -1.
</event>
<event>
 7    1  0.2856214E-009  0.2323008E+03  0.7561462E-02  0.1125031E+00
         -1   -1    0    0    0  501 -0.00000000000E+00  0.00000000000E+00  0.29564821399E+02  0.29564821399E+02  0.00000000000E+00 0.  1.
          1   -1    0    0  501    0  0.00000000000E+00 -0.00000000000E+00 -0.19568171171E+04  0.19568171171E+04  0.00000000000E+00 0. -1.
         25    2    1    2    0    0  0.21168599698E+03  0.22767062019E+02 -0.10939983589E+04  0.11215211326E+04  0.12509173128E+03 0.  0.
          5    1    3    3  502    0  0.21437872864E+02  0.39164892713E+02 -0.37173585151E+03  0.37443088402E+03  0.41800000000E+01 0.  1.
         -5    1    3    3    0  502  0.19024812412E+03 -0.16397830693E+02 -0.72226250737E+03  0.74709024859E+03  0.41800000000E+01 0.  1.
        -11    1    1    2    0    0 -0.90954341103E+02  0.31685548391E+02 -0.28494365351E+03  0.30078156829E+03  0.00000000000E+00 0. -1.
         11    1    1    2    0    0 -0.12073165588E+03 -0.54452610411E+02 -0.54831028330E+03  0.56407923759E+03  0.00000000000E+00 0.  1.
</event>
<event>
 7    1  0.2856214E-009  0.9605426E+02  0.7561462E-02  0.1288819E+00
          2   -1    0    0  501    0  0.00000000000E+00  0.00000000000E+00  0.46033682504E+03  0.46033682504E+03  0.00000000000E+00 0. -1.
         -2   -1    0    0    0  501 -0.00000000000E+00 -0.00000000000E+00 -0.27400312021E+02  0.27400312021E+02  0.00000000000E+00 0.  1.
         25    2    1    2    0    0  0.14493079473E+02 -0.20677081921E+02  0.21796334336E+03  0.25257060292E+03  0.12508516834E+03 0.  0.
          5    1    3    3  502    0  0.32394248942E+02  0.29395142672E+02  0.21357833192E+02  0.48857867492E+02  0.41800000000E+01 0.  1.
         -5    1    3    3    0  502 -0.17901169470E+02 -0.50072224593E+02  0.19660551017E+03  0.20371273542E+03  0.41800000000E+01 0.  1.
        -11    1    1    2    0    0  0.38943725762E+02  0.11507426692E+02  0.10429991063E+03  0.11192634186E+03  0.00000000000E+00 0. -1.
         11    1    1    2    0    0 -0.53436805234E+02  0.91696552289E+01  0.11067325903E+03  0.12324019228E+03  0.00000000000E+00 0.  1.
</event>
<event>
 7    1  0.2856214E-009  0.7806219E+02  0.7561462E-02  0.1334642E+00
         -2   -1    0    0    0  501 -0.00000000000E+00  0.00000000000E+00  0.14761265652E+03  0.14761265652E+03  0.00000000000E+00 0.  1.
          2   -1    0    0  501    0  0.00000000000E+00 -0.00000000000E+00 -0.84402879269E+02  0.84402879269E+02  0.00000000000E+00 0. -1.
         25    2    1    2    0    0  0.11141838282E+02 -0.23903216298E+02  0.40808805886E+02  0.13419732830E+03  0.12509220589E+03 0.  0.
          5    1    3    3  502    0  0.16838896595E+02 -0.69544325885E+02 -0.13146139546E+01  0.71687950948E+02  0.41800000000E+01 0.  1.
         -5    1    3    3    0  502 -0.56970583129E+01  0.45641109587E+02  0.42123419840E+02  0.62509377351E+02  0.41800000000E+01 0.  1.
        -11    1    1    2    0    0  0.93593182315E+01  0.68758560588E+01  0.54714093540E+02  0.55933051644E+02  0.00000000000E+00 0.  1.
         11    1    1    2    0    0 -0.20501156513E+02  0.17027360240E+02 -0.32313122178E+02  0.41885155843E+02  0.00000000000E+00 0. -1.
</event>
<event>
 7    1  0.2856214E-009  0.9386293E+02  0.7561462E-02  0.1293758E+00
          2   -1    0    0  501    0  0.00000000000E+00  0.00000000000E+00  0.70903275156E+02  0.70903275156E+02  0.00000000000E+00 0. -1.
         -2   -1    0    0    0  501 -0.00000000000E+00 -0.00000000000E+00 -0.36063660751E+03  0.36063660751E+03  0.00000000000E+00 0.  1.
         25    2    1    2    0    0 -0.20049701513E+02  0.49833361498E+02 -0.14407128183E+02  0.13689231215E+03  0.12508631154E+03 0.  0.
          5    1    3    3  502    0  0.25617402680E+02 -0.41817849539E+01 -0.50827129669E+02  0.57224192051E+02  0.41800000000E+01 0.  1.
         -5    1    3    3    0  502 -0.45667104193E+02  0.54015146452E+02  0.36420001486E+02  0.79668120097E+02  0.41800000000E+01 0.  1.
        -11    1    1    2    0    0  0.47581189811E+02 -0.36615083191E+02 -0.99669141222E+02  0.11635536796E+03  0.00000000000E+00 0. -1.
         11    1    1    2    0    0 -0.27531488298E+02 -0.13218278307E+02 -0.17565706295E+03  0.17829220256E+03  0.00000000000E+00 0.  1.
</event>
<event>
 7    1  0.2856214E-009  0.1015014E+03  0.7561462E-02  0.1277170E+00
          2   -1    0    0  501    0  0.00000000000E+00  0.00000000000E+00  0.42419291444E+03  0.42419291444E+03  0.00000000000E+00 0. -1.
         -2   -1    0    0    0  501 -0.00000000000E+00 -0.00000000000E+00 -0.31439415277E+02  0.31439415277E+02  0.00000000000E+00 0.  1.
         25    2    1    2    0    0  0.23539378483E+02 -0.24123776666E+00  0.28292741500E+03  0.31024117574E+03  0.12508998534E+03 0.  0.
          5    1    3    3  502    0  0.71985173586E+02 -0.34752288913E+01  0.11863032248E+03  0.13886888868E+03  0.41800000000E+01 0.  1.
         -5    1    3    3    0  502 -0.48445795103E+02  0.32339911246E+01  0.16429709252E+03  0.17137228706E+03  0.41800000000E+01 0.  1.
        -11    1    1    2    0    0  0.23341705716E+02 -0.20263483962E+02  0.87884967563E+01  0.32135364993E+02  0.00000000000E+00 0.  1.
         11    1    1    2    0    0 -0.46881084199E+02  0.20504721728E+02  0.10103758740E+03  0.11325578898E+03  0.00000000000E+00 0. -1.
</event>
<event>
 7    1  0.2856214E-009  0.1658008E+03  0.7561462E-02  0.1182299E+00
         -1   -1    0    0    0  501 -0.00000000000E+00  0.00000000000E+00  0.11785555355E+03  0.11785555355E+03  0.00000000000E+00 0.  1.
          1   -1    0    0  501    0  0.00000000000E+00 -0.00000000000E+00 -0.23404653468E+03  0.23404653468E+03  0.00000000000E+00 0. -1.
         25    2    1    2    0    0 -0.80897010744E+02  0.95950022043E+02 -0.68583827560E+02  0.19000370704E+03  0.12508770606E+03 0.  0.
          5    1    3    3  502    0 -0.48407241900E+02 -0.23037328141E+02 -0.20010133801E+02  0.57374710552E+02  0.41800000000E+01 0. -1.
         -5    1    3    3    0  502 -0.32489768844E+02  0.11898735018E+03 -0.48573693760E+02  0.13262899649E+03  0.41800000000E+01 0. -1.
        -11    1    1    2    0    0 -0.70048962507E+01 -0.58417143133E+02 -0.23259504358E+02  0.63266387018E+02  0.00000000000E+00 0. -1.
         11    1    1    2    0    0  0.87901906995E+02 -0.37532878909E+02 -0.24347649218E+02  0.98631994175E+02  0.00000000000E+00 0.  1.
</event>
<event>
 7    1  0.2856214E-009  0.1680441E+03  0.7561462E-02  0.1179903E+00
          2   -1    0    0  501    0  0.00000000000E+00  0.00000000000E+00  0.92850429494E+02  0.92850429494E+02  0.00000000000E+00 0.  1.
         -2   -1    0    0    0  501 -0.00000000000E+00 -0.00000000000E+00 -0.43194478219E+03  0.43194478219E+03  0.00000000000E+00 0. -1.
         25    2    1    2    0    0  0.95963629065E+02  0.10354420231E+03 -0.29594379676E+03  0.35094344945E+03  0.12509258147E+03 0.  0.
          5    1    3    3  502    0  0.11339087505E+03  0.66982425549E+02 -0.15108190548E+03  0.20046782894E+03  0.41800000000E+01 0.  1.
         -5    1    3    3    0  502 -0.17427245989E+02  0.36561776757E+02 -0.14486189128E+03  0.15047562051E+03  0.41800000000E+01 0.  1.
        -11    1    1    2    0    0 -0.46609650638E+02 -0.10430694799E+03 -0.48674493338E+02  0.12418375591E+03  0.00000000000E+00 0.  1.
         11    1    1    2    0    0 -0.49353978427E+02  0.76274568322E+00  0.55239373974E+01  0.49668006322E+02  0.00000000000E+00 0. -1.
</event>
<event>
 7    1  0.2856214E-009  0.1976596E+03  0.7561462E-02  0.1151729E+00
         -2   -1    0    0    0  501 -0.00000000000E+00  0.00000000000E+00  0.55643601645E+02  0.55643601645E+02  0.00000000000E+00 0.  1.
          2   -1    0    0  501    0  0.00000000000E+00 -0.00000000000E+00 -0.89073445861E+03  0.89073445861E+03  0.00000000000E+00 0. -1.
         25    2    1    2    0    0  0.17264738354E+03  0.68365609790E+02 -0.57236904933E+03  0.61460159195E+03  0.12509121693E+03 0.  0.
          5    1    3    3  502    0  0.94491259213E+02  0.54810721908E+01 -0.12927616870E+03  0.16027613800E+03  0.41800000000E+01 0. -1.
         -5    1    3    3    0  502  0.78156124331E+02  0.62884537599E+02 -0.44309288063E+03  0.45432545395E+03  0.41800000000E+01 0. -1.
        -11    1    1    2    0    0 -0.13414340768E+03 -0.15877791767E+02 -0.20026946925E+03  0.24156659209E+03  0.00000000000E+00 0. -1.
         11    1    1    2    0    0 -0.38503975860E+02 -0.52487818023E+02 -0.62452338383E+02  0.90209876218E+02  0.00000000000E+00 0.  1.
</event>
<event>
 7    1  0.2856214E-009  0.2104741E+03  0.7561462E-02  0.1141191E+00
          2   -1    0    0  501    0  0.00000000000E+00  0.00000000000E+00  0.75200186912E+03  0.75200186912E+03  0.00000000000E+00 0. -1.
         -2   -1    0    0    0  501 -0.00000000000E+00 -0.00000000000E+00 -0.72097364956E+02  0.72097364956E+02  0.00000000000E+00 0.  1.
         25    2    1    2    0    0 -0.20385765732E+03  0.73077521934E+01  0.31368499240E+03  0.39453463906E+03  0.12509180337E+03 0.  0.
          5    1    3    3  502    0 -0.19787591814E+03  0.45425650985E+01  0.20292032299E+03  0.28349540342E+03  0.41800000000E+01 0. -1.
         -5    1    3    3    0  502 -0.59817391865E+01  0.27651870950E+01  0.11076466940E+03  0.11103923564E+03  0.41800000000E+01 0. -1.
        -11    1    1    2    0    0  0.19904800198E+02 -0.23159111559E+02  0.18063218542E+02  0.35479929301E+02  0.00000000000E+00 0. -1.
         11    1    1    2    0    0  0.18395285713E+03  0.15851359365E+02  0.34815629323E+03  0.39408466572E+03  0.00000000000E+00 0.  1.
</event>
<event>
 7    1  0.2856214E-009  0.1530618E+03  0.7561462E-02  0.1196760E+00
         -2   -1    0    0    0  501 -0.00000000000E+00  0.00000000000E+00  0.18429682005E+02  0.18429682005E+02  0.00000000000E+00 0.  1.
          2   -1    0    0  501    0  0.00000000000E+00 -0.00000000000E+00 -0.19390676411E+04  0.19390676411E+04  0.00000000000E+00 0. -1.
         25    2    1    2    0    0 -0.12493309083E+03  0.72135812277E+02 -0.12827554685E+04  0.12968887142E+04  0.12508753964E+03 0.  0.
          5    1    3    3  502    0 -0.52948523078E+02  0.15854168166E+02 -0.95504075534E+03  0.95664790676E+03  0.41800000000E+01 0. -1.
         -5    1    3    3    0  502 -0.71984567753E+02  0.56281644111E+02 -0.32771471316E+03  0.34024080749E+03  0.41800000000E+01 0. -1.
        -11    1    1    2    0    0  0.38630324649E+02 -0.61003529972E+02 -0.16993630348E+03  0.18464040699E+03  0.00000000000E+00 0.  1.
         11    1    1    2    0    0  0.86302766181E+02 -0.11132282305E+02 -0.46794618715E+03  0.47596820191E+03  0.00000000000E+00 0. -1.
</event>
<event>
 7    1  0.2856214E-009  0.1220336E+03  0.7561462E-02  0.1239779E+00
          1   -1    0    0  501    0  0.00000000000E+00  0.00000000000E+00  0.63035332029E+03  0.63035332029E+03  0.00000000000E+00 0. -1.
         -1   -1    0    0    0  501 -0.00000000000E+00 -0.00000000000E+00 -0.34740349358E+02  0.34740349358E+02  0.00000000000E+00 0.  1.
         25    2    1    2    0    0 -0.18400446948E+02  0.95366985002E+02  0.36882517306E+03  0.40138834499E+03  0.12508859636E+03 0.  0.
          5    1    3    3  502    0  0.18157273707E+02  0.10246307808E+03  0.17234867225E+03  0.20137007271E+03  0.41800000000E+01 0. -1.
         -5    1    3    3    0  502 -0.36557720655E+02 -0.70960930776E+01  0.19647650081E+03  0.20001827228E+03  0.41800000000E+01 0. -1.
        -11    1    1    2    0    0 -0.93951968841E+01 -0.29445739761E+02  0.58287490083E+01  0.31453070272E+02  0.00000000000E+00 0.  1.
         11    1    1    2    0    0  0.27795643832E+02 -0.65921245242E+02  0.22095904887E+03  0.23225225439E+03  0.00000000000E+00 0. -1.
</event>
<event>
 7    1  0.2856214E-009  0.2080319E+03  0.7561462E-02  0.1143134E+00
          1   -1    0    0  501    0  0.00000000000E+00  0.00000000000E+00  0.14861265582E+03  0.14861265582E+03  0.00000000000E+00 0. -1.
         -1   -1    0    0    0  501 -0.00000000000E+00 -0.00000000000E+00 -0.31366710350E+03  0.31366710350E+03  0.00000000000E+00 0.  1.
         25    2    1    2    0    0  0.16151247223E+03  0.85021401138E+02 -0.42505324290E+02  0.22532002870E+03  0.12508994926E+03 0.  0.
          5    1    3    3  502    0  0.15632188696E+03  0.10781710314E+03 -0.17365295497E+02  0.19073564418E+03  0.41800000000E+01 0.  1.
         -5    1    3    3    0  502  0.51905852674E+01 -0.22795702003E+02 -0.25140028793E+02  0.34584384525E+02  0.41800000000E+01 0.  1.
        -11    1    1    2    0    0 -0.83674745323E+02 -0.91831072882E+02 -0.82760073952E+02  0.14927705380E+03  0.00000000000E+00 0. -1.
         11    1    1    2    0    0 -0.77837726902E+02  0.68096717434E+01 -0.39789049444E+02  0.87682676820E+02  0.00000000000E+00 0.  1.
</event>
<event>
 7    1  0.2856214E-009  0.4344708E+03  0.7561462E-02  0.1032457E+00
          2   -1    0    0  501    0  0.00000000000E+00  0.00000000000E+00  0.47653994187E+03  0.47653994187E+03  0.00000000000E+00 0. -1.
         -2   -1    0    0    0  501 -0.00000000000E+00 -0.00000000000E+00 -0.41091699586E+03  0.41091699586E+03  0.00000000000E+00 0.  1.
         25    2    1    2    0    0  0.36654197750E+03 -0.22109954439E+03  0.11762436509E+02  0.44612132802E+03  0.12509138500E+03 0.  0.
          5    1    3    3  502    0  0.23044761525E+03 -0.16595408506E+03 -0.47047156759E+02  0.28788499280E+03  0.41800000000E+01 0. -1.
         -5    1    3    3    0  502  0.13609436226E+03 -0.55145459322E+02  0.58809593268E+02  0.15823633521E+03  0.41800000000E+01 0. -1.
        -11    1    1    2    0    0 -0.37081003002E+03  0.21002824914E+03  0.51876385852E+02  0.42930537291E+03  0.00000000000E+00 0.  1.
         11    1    1    2    0    0  0.42680525159E+01  0.11071295250E+02  0.19841236443E+01  0.12030236799E+02  0.00000000000E+00 0. -1.
</event>
<event>
 7    1  0.2856214E-009  0.5747739E+02  0.7561462E-02  0.1408734E+00
          1   -1    0    0  501    0  0.00000000000E+00  0.00000000000E+00  0.15991943956E+03  0.15991943956E+03  0.00000000000E+00 0. -1.
         -1   -1    0    0    0  501 -0.00000000000E+00 -0.00000000000E+00 -0.97518443492E+02  0.97518443492E+02  0.00000000000E+00 0.  1.
         25    2    1    2    0    0 -0.32134830498E+02  0.18698784453E+02  0.79059897637E+02  0.15257901500E+03  0.12509035348E+03 0.  0.
          5    1    3    3  502    0  0.78124531378E+01  0.14689660281E+02 -0.30956132916E+02  0.35391737854E+02  0.41800000000E+01 0.  1.
         -5    1    3    3    0  502 -0.39947283636E+02  0.40091241722E+01  0.11001603055E+03  0.11718727715E+03  0.41800000000E+01 0.  1.
        -11    1    1    2    0    0  0.17624691487E+02  0.13445178529E+02 -0.51015237233E+02  0.55623349464E+02  0.00000000000E+00 0.  1.
         11    1    1    2    0    0  0.14510139011E+02 -0.32143962982E+02  0.34356335660E+02  0.49235518584E+02  0.00000000000E+00 0. -1.
</event>
<event>
 7    1  0.2856214E-009  0.1724028E+03  0.7561462E-02  0.1175365E+00
         -2   -1    0    0    0  501 -0.00000000000E+00  0.00000000000E+00  0.13263230004E+04  0.13263230004E+04  0.00000000000E+00 0.  1.
          2   -1    0    0  501    0  0.00000000000E+00 -0.00000000000E+00 -0.30844584167E+02  0.30844584167E+02  0.00000000000E+00 0. -1.
         25    2    1    2    0    0  0.21085915901E+02  0.16660212704E+03  0.77191725759E+03  0.79981551717E+03  0.12509086438E+03 0.  0.
          5    1    3    3  502    0  0.70910393119E+01  0.43030546206E+02  0.48630929200E+03  0.48827872227E+03  0.41800000000E+01 0. -1.
         -5    1    3    3    0  502  0.13994876589E+02  0.12357158084E+03  0.28560796560E+03  0.31153679490E+03  0.41800000000E+01 0. -1.
        -11    1    1    2    0    0  0.17766160027E+02 -0.33670324641E+02  0.43951352171E+02  0.58146784616E+02  0.00000000000E+00 0.  1.
         11    1    1    2    0    0 -0.38852075928E+02 -0.13293180240E+03  0.47960980646E+03  0.49920528277E+03  0.00000000000E+00 0. -1.
</event>
<event>
 7    1  0.2856214E-009  0.1861458E+03  0.7561462E-02  0.1161984E+00
         -3   -1    0    0    0  501 -0.00000000000E+00  0.00000000000E+00  0.15270108800E+03  0.15270108800E+03  0.00000000000E+00 0.  1.
          3   -1    0    0  501    0  0.00000000000E+00 -0.00000000000E+00 -0.25955367385E+03  0.25955367385E+03  0.00000000000E+00 0. -1.
         25    2    1    2    0    0  0.14925921822E+03  0.59095963067E+02 -0.10263772819E+02  0.20376982340E+03  0.12508456669E+03 0.  0.
          5    1    3    3  502    0  0.11810143634E+03  0.86939806706E+02 -0.40293229746E+02  0.15214301173E+03  0.41800000000E+01 0.  1.
         -5    1    3    3    0  502  0.31157781881E+02 -0.27843843639E+02  0.30029456927E+02  0.51626811674E+02  0.41800000000E+01 0.  1.
        -11    1    1    2    0    0  0.58014432210E+00  0.15980332196E+02 -0.22112270161E+01  0.16143020456E+02  0.00000000000E+00 0.  1.
         11    1    1    2    0    0 -0.14983936254E+03 -0.75076295262E+02 -0.94377586016E+02  0.19234191800E+03  0.00000000000E+00 0. -1.
</event>
<event>
 7    1  0.2856214E-009  0.6920140E+02  0.7561462E-02  0.1362830E+00
         -1   -1    0    0    0  501 -0.00000000000E+00  0.00000000000E+00  0.59895291438E+02  0.59895291438E+02  0.00000000000E+00 0.  1.
          1   -1    0    0  501    0  0.00000000000E+00 -0.00000000000E+00 -0.23630953209E+03  0.23630953209E+03  0.00000000000E+00 0. -1.
         25    2    1    2    0    0  0.56295265241E+01  0.51361155326E+01 -0.17359742975E+03  0.21410635649E+03  0.12508954003E+03 0.  0.
          5    1    3    3  502    0 -0.36191706659E+02 -0.47089632145E+01 -0.15951640865E+01  0.36769972993E+02  0.41800000000E+01 0. -1.
         -5    1    3    3    0  502  0.41821233183E+02  0.98450787471E+01 -0.17200226566E+03  0.17733638350E+03  0.41800000000E+01 0. -1.
        -11    1    1    2    0    0  0.12741331955E+02 -0.27052408652E+02  0.27355024572E+02  0.40527419400E+02  0.00000000000E+00 0.  1.
         11    1    1    2    0    0 -0.18370858479E+02  0.21916293120E+02 -0.30171835479E+02  0.41571047636E+02  0.00000000000E+00 0. -1.
</event>
<event>
 7    1  0.2856214E-009  0.1470940E+03  0.7561462E-02  0.1204090E+00
         -2   -1    0    0    0  501 -0.00000000000E+00  0.00000000000E+00  0.75338625000E+02  0.75338625000E+02  0.00000000000E+00 0. -1.
          2   -1    0    0  501    0  0.00000000000E+00 -0.00000000000E+00 -0.34954250032E+03  0.34954250032E+03  0.00000000000E+00 0.  1.
         25    2    1    2    0    0 -0.97596462853E+02 -0.57351714254E+02 -0.19682547431E+03  0.25923425693E+03  0.12509134239E+03 0.  0.
          5    1    3    3  502    0 -0.68535147727E+01 -0.74883261951E+02 -0.10157852790E+03  0.12645213844E+03  0.41800000000E+01 0.  1.
         -5    1    3    3    0  502 -0.90742948081E+02  0.17531547697E+02 -0.95246946409E+02  0.13278211849E+03  0.41800000000E+01 0.  1.
        -11    1    1    2    0    0  0.87843184098E+02  0.23217086965E+02 -0.12533218206E+02  0.91719897940E+02  0.00000000000E+00 0. -1.
         11    1    1    2    0    0  0.97532787555E+01  0.34134627289E+02 -0.64845182807E+02  0.73926970450E+02  0.00000000000E+00 0.  1.
</event>
<event>
 7    1  0.2856214E-009  0.1137573E+03  0.7561462E-02  0.1253766E+00
         -1   -1    0    0    0  501 -0.00000000000E+00  0.00000000000E+00  0.30968605631E+03  0.30968605631E+03  0.00000000000E+00 0.  1.
          1   -1    0    0  501    0  0.00000000000E+00 -0.00000000000E+00 -0.55495490923E+02  0.55495490923E+02  0.00000000000E+00 0. -1.
         25    2    1    2    0    0  0.33224524418E+02  0.55785293732E+02  0.90126741483E+02  0.16728968039E+03  0.12508852712E+03 0.  0.
          5    1    3    3  502    0  0.77951775211E+02  0.33329904086E+02  0.78770191083E+02  0.11579972871E+03  0.41800000000E+01 0.  1.
         -5    1    3    3    0  502 -0.44727250794E+02  0.22455389647E+02  0.11356550399E+02  0.51489951687E+02  0.41800000000E+01 0.  1.
        -11    1    1    2    0    0  0.13581468487E+02 -0.41207146017E+02  0.13289589238E+03  0.13979915372E+03  0.00000000000E+00 0.  1.
         11    1    1    2    0    0 -0.46805992904E+02 -0.14578147716E+02  0.31167931530E+02  0.58092713127E+02  0.00000000000E+00 0. -1.
</event>
<event>
 7    1  0.2856214E-009  0.1936050E+03  0.7561462E-02  0.1155249E+00
          2   -1    0    0  501    0  0.00000000000E+00  0.00000000000E+00  0.88138041060E+02  0.88138041060E+02  0.00000000000E+00 0.  1.
         -2   -1    0    0    0  501 -0.00000000000E+00 -0.00000000000E+00 -0.43296806701E+03  0.43296806701E+03  0.00000000000E+00 0. -1.
         25    2    1    2    0    0 -0.16137180352E+03 -0.18442580509E+02 -0.18415108715E+03  0.27557763325E+03  0.12510164389E+03 0.  0.
          5    1    3    3  502    0 -0.94909392058E+02 -0.72263543335E+02 -0.10954778085E+03  0.16201234856E+03  0.41800000000E+01 0.  1.
         -5    1    3    3    0  502 -0.66462411457E+02  0.53820962826E+02 -0.74603306301E+02  0.11356528469E+03  0.41800000000E+01 0.  1.
        -11    1    1    2    0    0  0.85159699004E+02  0.51094889053E+02 -0.63916996021E+02  0.11810268584E+03  0.00000000000E+00 0.  1.
         11    1    1    2    0    0  0.76212104511E+02 -0.32652308544E+02 -0.96761942775E+02  0.12742578898E+03  0.00000000000E+00 0. -1.
</event>
<event>
 7    1  0.2856214E-009  0.8755350E+02  0.7561462E-02  0.1308887E+00
          2   -1    0    0  501    0  0.00000000000E+00  0.00000000000E+00  0.91458238437E+03  0.91458238437E+03  0.00000000000E+00 0. -1.
         -2   -1    0    0    0  501 -0.00000000000E+00 -0.00000000000E+00 -0.27454263844E+02  0.27454263844E+02  0.00000000000E+00 0.  1.
         25    2    1    2    0    0  0.23167004324E+02 -0.59984535338E+02  0.76796667815E+03  0.78074085809E+03  0.12509442104E+03 0.  0.
          5    1    3    3  502    0  0.33770958253E+02 -0.93198641346E+01  0.65991639568E+03  0.66085887992E+03  0.41800000000E+01 0.  1.
         -5    1    3    3    0  502 -0.10603953929E+02 -0.50664671204E+02  0.10805028247E+03  0.11988197817E+03  0.41800000000E+01 0.  1.
        -11    1    1    2    0    0 -0.20743227135E+02  0.72364672010E+02  0.48574051142E+02  0.89589986446E+02  0.00000000000E+00 0.  1.
         11    1    1    2    0    0 -0.24237771890E+01 -0.12380136672E+02  0.70587391234E+02  0.71705803678E+02  0.00000000000E+00 0. -1.
</event>
<event>
 7    1  0.2892819E-009  0.8849315E+02  0.7561462E-02  0.1306542E+00
         -2   -1    0    0    0  501 -0.00000000000E+00  0.00000000000E+00  0.18471466154E+02  0.18471466154E+02  0.00000000000E+00 0. -1.
          2   -1    0    0  501    0  0.00000000000E+00 -0.00000000000E+00 -0.10240818089E+04  0.10240818089E+04  0.00000000000E+00 0.  1.
         25    2    1    2    0    0  0.43392245840E+02 -0.40781573073E-01 -0.82395847967E+03  0.83452875110E+03  0.12509105295E+03 0.  0.
          5    1    3    3  502    0 -0.28538613575E+02  0.40106627137E+02 -0.34522218234E+03  0.34873890174E+03  0.41800000000E+01 0. -1.
         -5    1    3    3    0  502  0.71930859415E+02 -0.40147408710E+02 -0.47873629733E+03  0.48578984936E+03  0.41800000000E+01 0. -1.
        -11    1    1    2    0    0 -0.11904741582E+02 -0.55298899695E+01  0.82141491279E+01  0.15484663416E+02  0.00000000000E+00 0. -1.
         11    1    1    2    0    0 -0.31487504258E+02  0.55706715425E+01 -0.18986601219E+03  0.19253986053E+03  0.00000000000E+00 0.  1.
</event>
<event>
 7    1  0.2856214E-009  0.1595051E+03  0.7561462E-02  0.1189257E+00
         -2   -1    0    0    0  501 -0.00000000000E+00  0.00000000000E+00  0.12094631555E+03  0.12094631555E+03  0.00000000000E+00 0. -1.
          2   -1    0    0  501    0  0.00000000000E+00 -0.00000000000E+00 -0.32826331083E+03  0.32826331083E+03  0.00000000000E+00 0.  1.
         25    2    1    2    0    0 -0.11163624254E+03 -0.10241837881E+03 -0.18742673491E+03  0.27153375794E+03  0.12509846431E+03 0.  0.
          5    1    3    3  502    0 -0.63549356773E+02 -0.45551521696E+02 -0.98372936255E+01  0.78915819840E+02  0.41800000000E+01 0.  1.
         -5    1    3    3    0  502 -0.48086885770E+02 -0.56866857115E+02 -0.17758944128E+03  0.19261793810E+03  0.41800000000E+01 0.  1.
        -11    1    1    2    0    0  0.26686981349E+02  0.70483087380E+02 -0.39109424426E+02  0.84909408543E+02  0.00000000000E+00 0.  1.
         11    1    1    2    0    0  0.84949261194E+02  0.31935291430E+02  0.19219164055E+02  0.92766459904E+02  0.00000000000E+00 0. -1.
</event>
<event>
 7    1  0.2856214E-009  0.1310609E+03  0.7561462E-02  0.1225890E+00
          2   -1    0    0  501    0  0.00000000000E+00  0.00000000000E+00  0.12711077418E+04  0.12711077418E+04  0.00000000000E+00 0. -1.
         -2   -1    0    0    0  501 -0.00000000000E+00 -0.00000000000E+00 -0.19815434666E+02  0.19815434666E+02  0.00000000000E+00 0.  1.
         25    2    1    2    0    0  0.78324159253E+02 -0.78203254008E+02  0.80588061791E+03  0.82300774357E+03  0.12509097808E+03 0.  0.
          5    1    3    3  502    0  0.44081163389E+02 -0.73303621187E+02  0.76283646127E+03  0.76762849666E+03  0.41800000000E+01 0. -1.
         -5    1    3    3    0  502  0.34242995864E+02 -0.48996328204E+01  0.43044156641E+02  0.55379246911E+02  0.41800000000E+01 0. -1.
        -11    1    1    2    0    0 -0.26305780546E+02 -0.18275295768E+02  0.73218231213E+02  0.79918019918E+02  0.00000000000E+00 0.  1.
         11    1    1    2    0    0 -0.52018378707E+02  0.96478549776E+02  0.37219345798E+03  0.38799741295E+03  0.00000000000E+00 0. -1.
</event>
<event>
 7    1  0.2856214E-009  0.8738760E+02  0.7561462E-02  0.1309304E+00
          2   -1    0    0  501    0  0.00000000000E+00  0.00000000000E+00  0.36766759515E+02  0.36766759515E+02  0.00000000000E+00 0. -1.
         -2   -1    0    0    0  501 -0.00000000000E+00 -0.00000000000E+00 -0.43851640564E+03  0.43851640564E+03  0.00000000000E+00 0.  1.
         25    2    1    2    0    0  0.23325842248E+02 -0.62027148027E+02 -0.21507539117E+03  0.25747935994E+03  0.12508690938E+03 0.  0.
          5    1    3    3  502    0  0.48531914664E+02 -0.53099992733E+02 -0.44330503792E+02  0.84602730072E+02  0.41800000000E+01 0.  1.
         -5    1    3    3    0  502 -0.25206072416E+02 -0.89271552935E+01 -0.17074488738E+03  0.17287662987E+03  0.41800000000E+01 0.  1.
        -11    1    1    2    0    0 -0.17656225840E+00  0.49172548834E+02 -0.27295974037E+02  0.56240918659E+02  0.00000000000E+00 0. -1.
         11    1    1    2    0    0 -0.23149279990E+02  0.12854599193E+02 -0.15937828091E+03  0.16156288655E+03  0.00000000000E+00 0.  1.
</event>
<event>
 7    1  0.2856214E-009  0.1607504E+03  0.7561462E-02  0.1187852E+00
         -2   -1    0    0    0  501 -0.00000000000E+00  0.00000000000E+00  0.68802158693E+02  0.68802158693E+02  0.00000000000E+00 0.  1.
          2   -1    0    0  501    0  0.00000000000E+00 -0.00000000000E+00 -0.40233162192E+03  0.40233162192E+03  0.00000000000E+00 0. -1.
         25    2    1    2    0    0  0.97108705546E+02  0.76336056122E+02 -0.16907025400E+03  0.24390389022E+03  0.12508821975E+03 0.  0.
          5    1    3    3  502    0  0.10324446860E+03  0.10023408953E+03 -0.11474821687E+03  0.18409486325E+03  0.41800000000E+01 0.  1.
         -5    1    3    3    0  502 -0.61357630555E+01 -0.23898033407E+02 -0.54322037134E+02  0.59809026973E+02  0.41800000000E+01 0.  1.
        -11    1    1    2    0    0 -0.98280889682E+02 -0.25321309941E+02 -0.13293899470E+03  0.16725154207E+03  0.00000000000E+00 0.  1.
         11    1    1    2    0    0  0.11721841359E+01 -0.51014746181E+02 -0.31520214531E+02  0.59978348324E+02  0.00000000000E+00 0. -1.
</event>
<event>
 7    1  0.2856214E-009  0.1206080E+03  0.7561462E-02  0.1242097E+00
          2   -1    0    0  501    0  0.00000000000E+00  0.00000000000E+00  0.17891402403E+03  0.17891402403E+03  0.00000000000E+00 0. -1.
         -2   -1    0    0    0  501 -0.00000000000E+00 -0.00000000000E+00 -0.91328930789E+02  0.91328930789E+02  0.00000000000E+00 0.  1.
         25    2    1    2    0    0  0.61776380562E+02 -0.58916145147E+00  0.18605374859E+02  0.14074182100E+03  0.12508170089E+03 0.  0.
          5    1    3    3  502    0  0.32040915273E+02  0.62061823060E+02  0.72444251579E+01  0.70343757569E+02  0.41800000000E+01 0.  1.
         -5    1    3    3    0  502  0.29735465289E+02 -0.62650984512E+02  0.11360949701E+02  0.70398063428E+02  0.41800000000E+01 0.  1.
        -11    1    1    2    0    0 -0.20223447527E+02 -0.39282660690E+02  0.54426408567E+02  0.70102419433E+02  0.00000000000E+00 0.  1.
         11    1    1    2    0    0 -0.41552933034E+02  0.39871822142E+02  0.14553309816E+02  0.59398714391E+02  0.00000000000E+00 0. -1.
</event>
<event>
 7    1  0.2856214E-009  0.9804503E+02  0.7561462E-02  0.1284462E+00
         -2   -1    0    0    0  501 -0.00000000000E+00  0.00000000000E+00  0.85544282032E+03  0.85544282032E+03  0.00000000000E+00 0.  1.
          2   -1    0    0  501    0  0.00000000000E+00 -0.00000000000E+00 -0.17937105029E+02  0.17937105029E+02  0.00000000000E+00 0. -1.
         25    2    1    2    0    0 -0.45767754281E+01 -0.51326641646E+02  0.57082828589E+03  0.58663900468E+03  0.12508004967E+03 0.  0.
          5    1    3    3  502    0 -0.39285795328E+02 -0.21573536176E+02  0.50133515128E+03  0.50335196184E+03  0.41800000000E+01 0. -1.
         -5    1    3    3    0  502  0.34709019900E+02 -0.29753105470E+02  0.69493134607E+02  0.83287042840E+02  0.41800000000E+01 0. -1.
        -11    1    1    2    0    0 -0.29940976461E+02  0.62156866078E+02  0.18325524793E+03  0.19581221607E+03  0.00000000000E+00 0.  1.
         11    1    1    2    0    0  0.34517751889E+02 -0.10830224432E+02  0.83422181471E+02  0.90928704588E+02  0.00000000000E+00 0. -1.
</event>
<event>
 7    1  0.2856214E-009  0.1289832E+03  0.7561462E-02  0.1228972E+00
          1   -1    0    0  501    0  0.00000000000E+00  0.00000000000E+00  0.20149217651E+03  0.20149217651E+03  0.00000000000E+00 0. -1.
         -1   -1    0    0    0  501 -0.00000000000E+00 -0.00000000000E+00 -0.13228343130E+03  0.13228343130E+03  0.00000000000E+00 0.  1.
         25    2    1    2    0    0 -0.24521159205E+02  0.11684222478E+03  0.59060033157E+02  0.18272790679E+03  0.12509199680E+03 0.  0.
          5    1    3    3  502    0 -0.41801853248E+02  0.63956015533E+02 -0.26160007691E+02  0.80867702207E+02  0.41800000000E+01 0. -1.
         -5    1    3    3    0  502  0.17280694043E+02  0.52886209247E+02  0.85220040848E+02  0.10186020458E+03  0.41800000000E+01 0. -1.
        -11    1    1    2    0    0 -0.10472143676E+02 -0.37523191258E+02  0.43286236055E+02  0.58235332120E+02  0.00000000000E+00 0. -1.
         11    1    1    2    0    0  0.34993302881E+02 -0.79319033521E+02 -0.33137524003E+02  0.92812368908E+02  0.00000000000E+00 0.  1.
</event>
<event>
 7    1  0.2856214E-009  0.1244091E+03  0.7561462E-02  0.1235996E+00
          1   -1    0    0  501    0  0.00000000000E+00  0.00000000000E+00  0.57018877774E+03  0.57018877774E+03  0.00000000000E+00 0. -1.
         -1   -1    0    0    0  501 -0.00000000000E+00 -0.00000000000E+00 -0.45645144786E+02  0.45645144786E+02  0.00000000000E+00 0.  1.
         25    2    1    2    0    0 -0.41578987208E+02 -0.46448358608E+02  0.87905729922E+02  0.16510700833E+03  0.12508654865E+03 0.  0.
          5    1    3    3  502    0  0.17718115949E+02  0.33805173678E+02  0.35636587446E+02  0.52384732174E+02  0.41800000000E+01 0.  1.
         -5    1    3    3    0  502 -0.59297103157E+02 -0.80253532286E+02  0.52269142477E+02  0.11272227616E+03  0.41800000000E+01 0.  1.
        -11    1    1    2    0    0  0.69616908895E+02  0.44113731421E+02  0.29360503889E+03  0.30495319996E+03  0.00000000000E+00 0.  1.
         11    1    1    2    0    0 -0.28037921687E+02  0.23346271869E+01  0.14303286415E+03  0.14577371424E+03  0.00000000000E+00 0. -1.
</event>
<event>
 7    1  0.2856214E-009  0.1288244E+03  0.7561462E-02  0.1229211E+00
          1   -1    0    0  501    0  0.00000000000E+00  0.00000000000E+00  0.31293419504E+02  0.31293419504E+02  0.00000000000E+00 0. -1.
         -1   -1    0    0    0  501 -0.00000000000E+00 -0.00000000000E+00 -0.68496131598E+03  0.68496131598E+03  0.00000000000E+00 0.  1.
         25    2    1    2    0    0 -0.66246925383E+02 -0.43729857909E+02 -0.49155938822E+03  0.51339914934E+03  0.12508836398E+03 0.  0.
          5    1    3    3  502    0 -0.65615417418E+01 -0.78473628725E+02 -0.25227786479E+03  0.26431564028E+03  0.41800000000E+01 0.  1.
         -5    1    3    3    0  502 -0.59685383641E+02  0.34743770816E+02 -0.23928152344E+03  0.24908350907E+03  0.41800000000E+01 0.  1.
        -11    1    1    2    0    0  0.24143904995E+02  0.59836575184E+02 -0.48771135403E+02  0.80882430271E+02  0.00000000000E+00 0. -1.
         11    1    1    2    0    0  0.42103020388E+02 -0.16106717275E+02 -0.11333737285E+03  0.12197315587E+03  0.00000000000E+00 0.  1.
</event>
<event>
 7    1  0.2856214E-009  0.8732490E+02  0.7561462E-02  0.1309462E+00
         -2   -1    0    0    0  501 -0.00000000000E+00  0.00000000000E+00  0.12137811467E+03  0.12137811467E+03  0.00000000000E+00 0. -1.
          2   -1    0    0  501    0  0.00000000000E+00 -0.00000000000E+00 -0.10857101099E+03  0.10857101099E+03  0.00000000000E+00 0.  1.
         25    2    1    2    0    0  0.16362778724E+02  0.47281112101E+02  0.53136427113E+01  0.13482901198E+03  0.12508950229E+03 0.  0.
          5    1    3    3  502    0  0.38170618717E+02 -0.18235087562E+02  0.39177020056E+02  0.57808527503E+02  0.41800000000E+01 0.  1.
         -5    1    3    3    0  502 -0.21807839993E+02  0.65516199663E+02 -0.33863377344E+02  0.77020484474E+02  0.41800000000E+01 0.  1.
        -11    1    1    2    0    0 -0.91849752788E+00 -0.47509500698E+02  0.38054128797E+02  0.60877853221E+02  0.00000000000E+00 0. -1.
         11    1    1    2    0    0 -0.15444281196E+02  0.22838859640E+00 -0.30560667829E+02  0.34242260456E+02  0.00000000000E+00 0.  1.
</event>
<event>
 7    1  0.2856214E-009  0.1089627E+03  0.7561462E-02  0.1262503E+00
          2   -1    0    0  501    0  0.00000000000E+00  0.00000000000E+00  0.11965303714E+03  0.11965303714E+03  0.00000000000E+00 0.  1.
         -2   -1    0    0    0  501 -0.00000000000E+00 -0.00000000000E+00 -0.20884349588E+03  0.20884349588E+03  0.00000000000E+00 0. -1.
         25    2    1    2    0    0  0.84188458454E+02  0.13388746147E+02  0.31579308603E+02  0.15463376228E+03  0.12508953851E+03 0.  0.
          5    1    3    3  502    0  0.31313351730E+02 -0.44157134484E+02 -0.23265029912E+02  0.59068710323E+02  0.41800000000E+01 0.  1.
         -5    1    3    3    0  502  0.52875106725E+02  0.57545880631E+02  0.54844338515E+02  0.95565051958E+02  0.41800000000E+01 0.  1.
        -11    1    1    2    0    0 -0.63605506572E+02 -0.81037933559E+01 -0.14829521999E+02  0.65812207498E+02  0.00000000000E+00 0. -1.
         11    1    1    2    0    0 -0.20582951882E+02 -0.52849527910E+01 -0.10594024534E+03  0.10805056324E+03  0.00000000000E+00 0.  1.
</event>
<event>
 7    1  0.2856214E-009  0.1819320E+03  0.7561462E-02  0.1165946E+00
          2   -1    0    0  501    0  0.00000000000E+00  0.00000000000E+00  0.70878374375E+03  0.70878374375E+03  0.00000000000E+00 0.  1.
         -2   -1    0    0    0  501 -0.00000000000E+00 -0.00000000000E+00 -0.57718151252E+02  0.57718151252E+02  0.00000000000E+00 0. -1.
         25    2    1    2    0    0 -0.13367333718E+03  0.10411631528E+03  0.30733293622E+03  0.37257392170E+03  0.12509606416E+03 0.  0.
          5    1    3    3  502    0 -0.80390950246E+02  0.52066597876E+01  0.20595732138E+03  0.22119155684E+03  0.41800000000E+01 0. -1.
         -5    1    3    3    0  502 -0.53282386929E+02  0.98909655494E+02  0.10137561484E+03  0.15138236486E+03  0.41800000000E+01 0. -1.
        -11    1    1    2    0    0  0.45974284283E+02 -0.48993084263E+02  0.23215139345E+03  0.24167793984E+03  0.00000000000E+00 0.  1.
         11    1    1    2    0    0  0.87699052892E+02 -0.55123231019E+02  0.11158126282E+03  0.15225003346E+03  0.00000000000E+00 0. -1.
</event>
<event>
 7    1  0.2856214E-009  0.1449080E+03  0.7561462E-02  0.1206873E+00
         -3   -1    0    0    0  501 -0.00000000000E+00  0.00000000000E+00  0.47764100534E+02  0.47764100534E+02  0.00000000000E+00 0.  1.
          3   -1    0    0  501    0  0.00000000000E+00 -0.00000000000E+00 -0.46247232168E+03  0.46247232168E+03  0.00000000000E+00 0. -1.
         25    2    1    2    0    0  0.10116504221E+03  0.86144707655E+01 -0.22601917327E+03  0.27756209955E+03  0.12508987788E+03 0.  0.
          5    1    3    3  502    0  0.38201685594E+02 -0.54541700942E+02 -0.13202349169E+03  0.14792511850E+03  0.41800000000E+01 0. -1.
         -5    1    3    3    0  502  0.62963356615E+02  0.63156171708E+02 -0.93995681575E+02  0.12963698105E+03  0.41800000000E+01 0. -1.
        -11    1    1    2    0    0 -0.59151746105E+02 -0.48040120529E+02 -0.85813343553E+02  0.11476372327E+03  0.00000000000E+00 0.  1.
         11    1    1    2    0    0 -0.42013296103E+02  0.39425649764E+02 -0.10287570432E+03  0.11791059939E+03  0.00000000000E+00 0. -1.
</event>
<event>
 7    1  0.2856214E-009  0.1082034E+03  0.7561462E-02  0.1263933E+00
          2   -1    0    0  501    0  0.00000000000E+00  0.00000000000E+00  0.28929933720E+03  0.28929933720E+03  0.00000000000E+00 0. -1.
         -2   -1    0    0    0  501 -0.00000000000E+00 -0.00000000000E+00 -0.58836742161E+02  0.58836742161E+02  0.00000000000E+00 0.  1.
         25    2    1    2    0    0  0.42500262420E+02 -0.85639927124E+01  0.18174698790E+03  0.22485617442E+03  0.12509483317E+03 0.  0.
          5    1    3    3  502    0  0.56351697953E+02  0.28838530030E+02  0.17236618856E+03  0.18367022087E+03  0.41800000000E+01 0. -1.
         -5    1    3    3    0  502 -0.13851435532E+02 -0.37402522742E+02  0.93807993475E+01  0.41185953555E+02  0.41800000000E+01 0. -1.
        -11    1    1    2    0    0 -0.77036717284E+02 -0.94211732311E+00  0.28476456748E+02  0.82136788249E+02  0.00000000000E+00 0.  1.
         11    1    1    2    0    0  0.34536454863E+02  0.95061100356E+01  0.20239150387E+02  0.41143116689E+02  0.00000000000E+00 0. -1.
</event>
<event>
 7    1  0.2856214E-009  0.1786836E+03  0.7561462E-02  0.1169083E+00
         -2   -1    0    0    0  501 -0.00000000000E+00  0.00000000000E+00  0.35654583105E+02  0.35654583105E+02  0.00000000000E+00 0.  1.
          2   -1    0    0  501    0  0.00000000000E+00 -0.00000000000E+00 -0.11171032304E+04  0.11171032304E+04  0.00000000000E+00 0. -1.
         25    2    1    2    0    0  0.16648069703E+03 -0.17609373323E+02 -0.60014110940E+03  0.63548641346E+03  0.12509083893E+03 0.  0.
          5    1    3    3  502    0  0.14013109397E+03  0.13137766691E+02 -0.28668519487E+03  0.31939818059E+03  0.41800000000E+01 0.  1.
         -5    1    3    3    0  502  0.26349603068E+02 -0.30747140014E+02 -0.31345591453E+03  0.31608823286E+03  0.41800000000E+01 0.  1.
        -11    1    1    2    0    0 -0.93298345552E+02 -0.17104275135E+02 -0.35312173326E+03  0.36563929768E+03  0.00000000000E+00 0.  1.
         11    1    1    2    0    0 -0.73182351482E+02  0.34713648459E+02 -0.12818580465E+03  0.15163210238E+03  0.00000000000E+00 0. -1.
</event>
<event>
 7    1  0.2856214E-009  0.1247308E+03  0.7561462E-02  0.1235491E+00
          1   -1    0    0  501    0  0.00000000000E+00  0.00000000000E+00  0.71593587598E+02  0.71593587598E+02  0.00000000000E+00 0. -1.
         -1   -1    0    0    0  501 -0.00000000000E+00 -0.00000000000E+00 -0.25268767881E+03  0.25268767881E+03  0.00000000000E+00 0.  1.
         25    2    1    2    0    0  0.57552962871E+02 -0.23924319300E+02 -0.40301763138E+02  0.14544620184E+03  0.12508256845E+03 0.  0.
          5    1    3    3  502    0  0.75965396183E+02  0.30228639894E+02 -0.17411579222E+02  0.83696759663E+02  0.41800000000E+01 0. -1.
         -5    1    3    3    0  502 -0.18412433312E+02 -0.54152959194E+02 -0.22890183916E+02  0.61749442181E+02  0.41800000000E+01 0. -1.
        -11    1    1    2    0    0  0.24669598003E+02  0.20545297575E+00 -0.29956517860E+02  0.38807528120E+02  0.00000000000E+00 0.  1.
         11    1    1    2    0    0 -0.82222560874E+02  0.23718866324E+02 -0.11083581021E+03  0.14002753644E+03  0.00000000000E+00 0. -1.
</event>
<event>
 7    1  0.2856214E-009  0.1126143E+03  0.7561462E-02  0.1255804E+00
         -4   -1    0    0    0  501 -0.00000000000E+00  0.00000000000E+00  0.61526838781E+03  0.61526838781E+03  0.00000000000E+00 0.  1.
          4   -1    0    0  501    0  0.00000000000E+00 -0.00000000000E+00 -0.25993866165E+02  0.25993866165E+02  0.00000000000E+00 0. -1.
         25    2    1    2    0    0  0.41274495824E+02  0.26823440308E+02  0.21984627908E+03  0.25768810905E+03  0.12509074373E+03 0.  0.
          5    1    3    3  502    0 -0.34148322336E+01 -0.45285107355E+02  0.49284315228E+02  0.67147733803E+02  0.41800000000E+01 0.  1.
         -5    1    3    3    0  502  0.44689328057E+02  0.72108547663E+02  0.17056196385E+03  0.19054037525E+03  0.41800000000E+01 0.  1.
        -11    1    1    2    0    0 -0.44353066796E+02 -0.52556026659E+02  0.32450024540E+03  0.33170731034E+03  0.00000000000E+00 0.  1.
         11    1    1    2    0    0  0.30785709721E+01  0.25732586351E+02  0.44927997172E+02  0.51866834581E+02  0.00000000000E+00 0. -1.
</event>
<event>
 7    1  0.2856214E-009  0.2491345E+03  0.7561462E-02  0.1113853E+00
          2   -1    0    0  501    0  0.00000000000E+00  0.00000000000E+00  0.88745131466E+03  0.88745131466E+03  0.00000000000E+00 0. -1.
         -2   -1    0    0    0  501 -0.00000000000E+00 -0.00000000000E+00 -0.77515864798E+02  0.77515864798E+02  0.00000000000E+00 0.  1.
         25    2    1    2    0    0 -0.69729164968E+02  0.22673503801E+03  0.37494025089E+03  0.46097395600E+03  0.12508342201E+03 0.  0.
          5    1    3    3  502    0 -0.91967229313E+02  0.14077468123E+03  0.17799408681E+03  0.24489763062E+03  0.41800000000E+01 0. -1.
         -5    1    3    3    0  502  0.22238064345E+02  0.85960356778E+02  0.19694616408E+03  0.21607632538E+03  0.41800000000E+01 0. -1.
        -11    1    1    2    0    0  0.62456551789E+02 -0.13060493388E+03  0.33575749447E+03  0.36563857114E+03  0.00000000000E+00 0.  1.
         11    1    1    2    0    0  0.72726131792E+01 -0.96130104134E+02  0.99237704492E+02  0.13835465231E+03  0.00000000000E+00 0. -1.
</event>
<event>
 7    1  0.4240986E-009  0.1132782E+03  0.7561462E-02  0.1254617E+00
          3   -1    0    0  501    0  0.00000000000E+00  0.00000000000E+00  0.30935660687E+03  0.30935660687E+03  0.00000000000E+00 0. -1.
         -3   -1    0    0    0  501 -0.00000000000E+00 -0.00000000000E+00 -0.65136660395E+02  0.65136660395E+02  0.00000000000E+00 0.  1.
         25    2    1    2    0    0 -0.29350318144E+02  0.73324628619E+02  0.72615175626E+02  0.16479935528E+03  0.12509165213E+03 0.  0.
          5    1    3    3  502    0 -0.15340693757E+02 -0.34088311294E+02  0.30782826806E+02  0.48604574661E+02  0.41800000000E+01 0. -1.
         -5    1    3    3    0  502 -0.14009624387E+02  0.10741293991E+03  0.41832348820E+02  0.11619478062E+03  0.41800000000E+01 0. -1.
        -11    1    1    2    0    0  0.21840614378E+02 -0.33351102751E+02  0.74256848728E+01  0.40551809910E+02  0.00000000000E+00 0.  1.
         11    1    1    2    0    0  0.75097037660E+01 -0.39973525868E+02  0.16417908598E+03  0.16914210207E+03  0.00000000000E+00 0. -1.
</event>
<event>
 7    1  0.2856214E-009  0.2056809E+03  0.7561462E-02  0.1145033E+00
          1   -1    0    0  501    0  0.00000000000E+00  0.00000000000E+00  0.17818944589E+03  0.17818944589E+03  0.00000000000E+00 0. -1.
         -1   -1    0    0    0  501 -0.00000000000E+00 -0.00000000000E+00 -0.54548271593E+03  0.54548271593E+03  0.00000000000E+00 0.  1.
         25    2    1    2    0    0 -0.14178842030E+03  0.10968661727E+03  0.80372429793E+02  0.23289658614E+03  0.12508390074E+03 0.  0.
          5    1    3    3  502    0 -0.15958671182E+03  0.89541276858E+02  0.90090810152E+02  0.20400829720E+03  0.41800000000E+01 0. -1.
         -5    1    3    3    0  502  0.17798291518E+02  0.20145340410E+02 -0.97183803583E+01  0.28888288942E+02  0.41800000000E+01 0. -1.
        -11    1    1    2    0    0  0.27165484644E+02 -0.77410042080E+02 -0.17937967973E+03  0.19724945544E+03  0.00000000000E+00 0.  1.
         11    1    1    2    0    0  0.11462293566E+03 -0.32276575187E+02 -0.26828602010E+03  0.29352612024E+03  0.00000000000E+00 0. -1.
</event>
<event>
 7    1  0.2856214E-009  0.1898123E+03  0.7561462E-02  0.1158631E+00
         -2   -1    0    0    0  501 -0.00000000000E+00  0.00000000000E+00  0.57432785026E+02  0.57432785026E+02  0.00000000000E+00 0. -1.
          2   -1    0    0  501    0  0.00000000000E+00 -0.00000000000E+00 -0.76185364415E+03  0.76185364415E+03  0.00000000000E+00 0.  1.
         25    2    1    2    0    0  0.93705491710E+02 -0.13818674561E+03 -0.48841203319E+03  0.53110039183E+03  0.12508003921E+03 0.  0.
          5    1    3    3  502    0 -0.16782700184E+02  0.95833734124E+01 -0.88125166216E+02  0.90316207803E+02  0.41800000000E+01 0. -1.
         -5    1    3    3    0  502  0.11048819189E+03 -0.14777011902E+03 -0.40028686697E+03  0.44078418403E+03  0.41800000000E+01 0. -1.
        -11    1    1    2    0    0 -0.30644301961E+02  0.92443069872E+02 -0.17468609524E+03  0.20000006570E+03  0.00000000000E+00 0.  1.
         11    1    1    2    0    0 -0.63061189749E+02  0.45743675735E+02 -0.41322730705E+02  0.88185971647E+02  0.00000000000E+00 0. -1.
</event>
<event>
 7    1  0.2856214E-009  0.2638710E+03  0.7561462E-02  0.1104840E+00
          2   -1    0    0  501    0  0.00000000000E+00  0.00000000000E+00  0.30042031350E+03  0.30042031350E+03  0.00000000000E+00 0. -1.
         -2   -1    0    0    0  501 -0.00000000000E+00 -0.00000000000E+00 -0.24253254864E+03  0.24253254864E+03  0.00000000000E+00 0.  1.
         25    2    1    2    0    0  0.12199359783E+02 -0.24574409516E+03  0.25994390738E+02  0.27723960779E+03  0.12508839710E+03 0.  0.
          5    1    3    3  502    0 -0.42234270702E+02 -0.10773836817E+03  0.51360851994E+02  0.12667556637E+03  0.41800000000E+01 0.  1.
         -5    1    3    3    0  502  0.54433630485E+02 -0.13800572699E+03 -0.25366461256E+02  0.15056404141E+03  0.41800000000E+01 0.  1.
        -11    1    1    2    0    0  0.21227211241E+02  0.22082021406E+03  0.31120253606E+02  0.22401033820E+03  0.00000000000E+00 0. -1.
         11    1    1    2    0    0 -0.33426571024E+02  0.24923881101E+02  0.77312051571E+00  0.41702916143E+02  0.00000000000E+00 0.  1.
</event>
<event>
 7    1  0.2856214E-009  0.6858156E+02  0.7561462E-02  0.1364984E+00
         -1   -1    0    0    0  501 -0.00000000000E+00  0.00000000000E+00  0.24398262913E+02  0.24398262913E+02  0.00000000000E+00 0.  1.
          1   -1    0    0  501    0  0.00000000000E+00 -0.00000000000E+00 -0.44255072245E+03  0.44255072245E+03  0.00000000000E+00 0. -1.
         25    2    1    2    0    0 -0.15135821603E+02 -0.52871250114E+01 -0.29304771586E+03  0.31903295932E+03  0.12509204042E+03 0.  0.
          5    1    3    3  502    0 -0.21860523803E+02  0.22573101932E+02 -0.28787014398E+03  0.28961028923E+03  0.41800000000E+01 0. -1.
         -5    1    3    3    0  502  0.67247021996E+01 -0.27860226943E+02 -0.51775718820E+01  0.29422670096E+02  0.41800000000E+01 0. -1.
        -11    1    1    2    0    0  0.36669376949E+02  0.27292220967E+02 -0.56178909779E+02  0.72426365608E+02  0.00000000000E+00 0.  1.
         11    1    1    2    0    0 -0.21533555346E+02 -0.22005095956E+02 -0.68925833901E+02  0.75489660437E+02  0.00000000000E+00 0. -1.
</event>
<event>
 7    1  0.2856214E-009  0.8456159E+02  0.7561462E-02  0.1316583E+00
          2   -1    0    0  501    0  0.00000000000E+00  0.00000000000E+00  0.52587327711E+02  0.52587327711E+02  0.00000000000E+00 0. -1.
         -2   -1    0    0    0  501 -0.00000000000E+00 -0.00000000000E+00 -0.33519307876E+03  0.33519307876E+03  0.00000000000E+00 0.  1.
         25    2    1    2    0    0 -0.38729781378E+02 -0.63113835257E+02 -0.17984033987E+03  0.23124207195E+03  0.12508795238E+03 0.  0.
          5    1    3    3  502    0 -0.38103320093E+02 -0.21788606504E+02 -0.18426451379E+03  0.18946632899E+03  0.41800000000E+01 0.  1.
         -5    1    3    3    0  502 -0.62646128537E+00 -0.41325228753E+02  0.44241739295E+01  0.41775742964E+02  0.41800000000E+01 0.  1.
        -11    1    1    2    0    0  0.45661971253E+02  0.45059433144E+02 -0.13961305555E+02  0.65652769833E+02  0.00000000000E+00 0. -1.
         11    1    1    2    0    0 -0.69321898752E+01  0.18054402113E+02 -0.88804105631E+02  0.90885564691E+02  0.00000000000E+00 0.  1.
</event>
<event>
 7    1  0.2856214E-009  0.8786137E+02  0.7561462E-02  0.1308115E+00
          2   -1    0    0  501    0  0.00000000000E+00  0.00000000000E+00  0.40339224873E+02  0.40339224873E+02  0.00000000000E+00 0. -1.
         -2   -1    0    0    0  501 -0.00000000000E+00 -0.00000000000E+00 -0.34320720608E+03  0.34320720608E+03  0.00000000000E+00 0.  1.
         25    2    1    2    0    0 -0.25305545248E+02  0.14786517803E+02 -0.23216810331E+03  0.26534763841E+03  0.12509328234E+03 0.  0.
          5    1    3    3  502    0  0.10234365754E+02 -0.41329356337E+02 -0.29332934129E+02  0.51872452826E+02  0.41800000000E+01 0.  1.
         -5    1    3    3    0  502 -0.35539911001E+02  0.56115874140E+02 -0.20283516918E+03  0.21347518559E+03  0.41800000000E+01 0.  1.
        -11    1    1    2    0    0  0.44867085183E+02 -0.13156088230E+02 -0.20536906819E+01  0.46801235408E+02  0.00000000000E+00 0. -1.
         11    1    1    2    0    0 -0.19561539935E+02 -0.16304295731E+01 -0.68646187215E+02  0.71397557132E+02  0.00000000000E+00 0.  1.
</event>
<event>
 7    1  0.2856214E-009  0.1091618E+03  0.7561462E-02  0.1262130E+00
         -1   -1    0    0    0  501 -0.00000000000E+00  0.00000000000E+00  0.32773398790E+02  0.32773398790E+02  0.00000000000E+00 0.  1.
          1   -1    0    0  501    0  0.00000000000E+00 -0.00000000000E+00 -0.61167993564E+03  0.61167993564E+03  0.00000000000E+00 0. -1.
         25    2    1    2    0    0  0.77055151643E+02  0.48829855311E+02 -0.33945785427E+03  0.37309645394E+03  0.12508987950E+03 0.  0.
          5    1    3    3  502    0  0.21360641219E+02  0.35546689119E+02 -0.16100915209E+02  0.44682837546E+02  0.41800000000E+01 0.  1.
         -5    1    3    3    0  502  0.55694510423E+02  0.13283166192E+02 -0.32335693906E+03  0.32841361639E+03  0.41800000000E+01 0.  1.
        -11    1    1    2    0    0 -0.87043657347E+02 -0.58861160816E+02 -0.23340021696E+03  0.25596268442E+03  0.00000000000E+00 0. -1.
         11    1    1    2    0    0  0.99885057046E+01  0.10031305506E+02 -0.60484656217E+01  0.15394196073E+02  0.00000000000E+00 0.  1.
</event>
<event>
 7    1  0.2856214E-009  0.1118446E+03  0.7561462E-02  0.1257192E+00
          2   -1    0    0  501    0  0.00000000000E+00  0.00000000000E+00  0.23166297159E+03  0.23166297159E+03  0.00000000000E+00 0. -1.
         -2   -1    0    0    0  501 -0.00000000000E+00 -0.00000000000E+00 -0.15001675793E+03  0.15001675793E+03  0.00000000000E+00 0.  1.
         25    2    1    2    0    0 -0.20729560909E+02  0.38611591966E+02  0.19020314014E+03  0.23183997673E+03  0.12510783572E+03 0.  0.
          5    1    3    3  502    0 -0.67400768354E+02  0.33930001407E+02  0.15693004793E+03  0.17417985221E+03  0.41800000000E+01 0. -1.
         -5    1    3    3    0  502  0.46671207445E+02  0.46815905599E+01  0.33273092208E+02  0.57660124520E+02  0.41800000000E+01 0. -1.
        -11    1    1    2    0    0 -0.10052225684E+02 -0.61719467702E+02 -0.81795860731E+02  0.10296068554E+03  0.00000000000E+00 0.  1.
         11    1    1    2    0    0  0.30781786593E+02  0.23107875735E+02 -0.26761065751E+02  0.46879067258E+02  0.00000000000E+00 0. -1.
</event>
<event>
 7    1  0.2856214E-009  0.1082596E+03  0.7561462E-02  0.1263827E+00
          2   -1    0    0  501    0  0.00000000000E+00  0.00000000000E+00  0.37117570395E+03  0.37117570395E+03  0.00000000000E+00 0. -1.
         -2   -1    0    0    0  501 -0.00000000000E+00 -0.00000000000E+00 -0.36041578025E+02  0.36041578025E+02  0.00000000000E+00 0.  1.
         25    2    1    2    0    0  0.52471668999E+01 -0.17167289527E+02  0.12806753832E+03  0.17991379217E+03  0.12508169191E+03 0.  0.
          5    1    3    3  502    0  0.61422300045E+02  0.87666047532E+01  0.47541487894E+02  0.78276546761E+02  0.41800000000E+01 0. -1.
         -5    1    3    3    0  502 -0.56175133145E+02 -0.25933894280E+02  0.80526050427E+02  0.10163724541E+03  0.41800000000E+01 0. -1.
        -11    1    1    2    0    0  0.36779076424E+02  0.30973926938E+02  0.12751897929E+03  0.13628343513E+03  0.00000000000E+00 0.  1.
         11    1    1    2    0    0 -0.42026243324E+02 -0.13806637411E+02  0.79547608316E+02  0.91020054676E+02  0.00000000000E+00 0. -1.
</event>
<event>
 7    1  0.2856214E-009  0.1195568E+03  0.7561462E-02  0.1243830E+00
         -1   -1    0    0    0  501 -0.00000000000E+00  0.00000000000E+00  0.25214565877E+02  0.25214565877E+02  0.00000000000E+00 0.  1.
          1   -1    0    0  501    0  0.00000000000E+00 -0.00000000000E+00 -0.66178480777E+03  0.66178480777E+03  0.00000000000E+00 0. -1.
         25    2    1    2    0    0  0.60763369126E+00  0.70564592741E+02 -0.33170431091E+03  0.36146318481E+03  0.12509257823E+03 0.  0.
          5    1    3    3  502    0 -0.56735006944E+02  0.60531972323E+01 -0.13245092119E+03  0.14427827673E+03  0.41800000000E+01 0. -1.
         -5    1    3    3    0  502  0.57342640635E+02  0.64511395509E+02 -0.19925338971E+03  0.21718490808E+03  0.41800000000E+01 0. -1.
        -11    1    1    2    0    0 -0.18365769603E+02  0.40365816587E+01 -0.10905038042E+02  0.21737417953E+02  0.00000000000E+00 0.  1.
         11    1    1    2    0    0  0.17758135911E+02 -0.74601174400E+02 -0.29396089294E+03  0.30379877088E+03  0.00000000000E+00 0. -1.
</event>
<event>
 7    1  0.2856214E-009  0.1440928E+03  0.7561462E-02  0.1207926E+00
          2   -1    0    0  501    0  0.00000000000E+00  0.00000000000E+00  0.64251820423E+02  0.64251820423E+02  0.00000000000E+00 0. -1.
         -2   -1    0    0    0  501 -0.00000000000E+00 -0.00000000000E+00 -0.49124737455E+03  0.49124737455E+03  0.00000000000E+00 0.  1.
         25    2    1    2    0    0 -0.12844923096E+03 -0.46069591457E+02 -0.24191122080E+03  0.30461215311E+03  0.12508362355E+03 0.  0.
          5    1    3    3  502    0 -0.16097900311E+01 -0.82804816287E+01  0.13767920212E+02  0.16678903648E+02  0.41800000000E+01 0.  1.
         -5    1    3    3    0  502 -0.12683944093E+03 -0.37789109828E+02 -0.25567914101E+03  0.28793324946E+03  0.41800000000E+01 0.  1.
        -11    1    1    2    0    0  0.43789128221E+01  0.18827825076E+02 -0.90430195020E+02  0.92473142295E+02  0.00000000000E+00 0.  1.
         11    1    1    2    0    0  0.12407031814E+03  0.27241766381E+02 -0.94654138304E+02  0.15841389957E+03  0.00000000000E+00 0. -1.
</event>
<event>
 7    1  0.2856214E-009  0.8910709E+02  0.7561462E-02  0.1305029E+00
          3   -1    0    0  501    0  0.00000000000E+00  0.00000000000E+00  0.42004911685E+03  0.42004911685E+03  0.00000000000E+00 0. -1.
         -3   -1    0    0    0  501 -0.00000000000E+00 -0.00000000000E+00 -0.43761997918E+02  0.43761997918E+02  0.00000000000E+00 0.  1.
         25    2    1    2    0    0  0.63306648471E+02 -0.19855026621E+02  0.12999985745E+03  0.19222188468E+03  0.12508931285E+03 0.  0.
          5    1    3    3  502    0  0.24352801891E+02  0.24015848227E+01  0.14314793922E+03  0.14528465670E+03  0.41800000000E+01 0. -1.
         -5    1    3    3    0  502  0.38953846579E+02 -0.22256611443E+02 -0.13148081768E+02  0.46937227980E+02  0.41800000000E+01 0. -1.
        -11    1    1    2    0    0 -0.80614663566E+02  0.32475390817E+02  0.15383408933E+03  0.17668701715E+03  0.00000000000E+00 0.  1.
         11    1    1    2    0    0  0.17308015095E+02 -0.12620364196E+02  0.92453172149E+02  0.94902212932E+02  0.00000000000E+00 0. -1.
</event>
<event>
 7    1  0.2856214E-009  0.2441473E+03  0.7561462E-02  0.1117060E+00
         -2   -1    0    0    0  501 -0.00000000000E+00  0.00000000000E+00  0.43176682544E+02  0.43176682544E+02  0.00000000000E+00 0.  1.
          2   -1    0    0  501    0  0.00000000000E+00 -0.00000000000E+00 -0.18879872458E+04  0.18879872458E+04  0.00000000000E+00 0. -1.
         25    2    1    2    0    0  0.23238359310E+03  0.38820109569E+02 -0.13465015892E+04  0.13726697872E+04  0.12508668852E+03 0.  0.
          5    1    3    3  502    0  0.83747543104E+02 -0.21901427782E+02 -0.74754434643E+03  0.75255122469E+03  0.41800000000E+01 0. -1.
         -5    1    3    3    0  502  0.14863605000E+03  0.60721537351E+02 -0.59895724278E+03  0.62011856248E+03  0.41800000000E+01 0. -1.
        -11    1    1    2    0    0 -0.25351468051E+02 -0.21532627642E+02 -0.14378823972E+03  0.14758525965E+03  0.00000000000E+00 0. -1.
         11    1    1    2    0    0 -0.20703212505E+03 -0.17287481927E+02 -0.35452073431E+03  0.41090888149E+03  0.00000000000E+00 0.  1.
</event>
<event>
 7    1  0.2856214E-009  0.1120020E+03  0.7561462E-02  0.1256907E+00
          2   -1    0    0  501    0  0.00000000000E+00  0.00000000000E+00  0.18801815744E+02  0.18801815744E+02  0.00000000000E+00 0. -1.
         -2   -1    0    0    0  501 -0.00000000000E+00 -0.00000000000E+00 -0.12782759091E+04  0.12782759091E+04  0.00000000000E+00 0.  1.
         25    2    1    2    0    0  0.97710606211E+02 -0.31836316357E+02 -0.85835498215E+03  0.87348801176E+03  0.12508843951E+03 0.  0.
          5    1    3    3  502    0  0.70146193918E+02 -0.47901979894E+02 -0.81537266110E+03  0.81979578986E+03  0.41800000000E+01 0. -1.
         -5    1    3    3    0  502  0.27564412294E+02  0.16065663537E+02 -0.42982321054E+02  0.53692221906E+02  0.41800000000E+01 0. -1.
        -11    1    1    2    0    0 -0.63523728661E+02  0.57574871998E+01 -0.35440530997E+03  0.36009934253E+03  0.00000000000E+00 0.  1.
         11    1    1    2    0    0 -0.34186877550E+02  0.26078829157E+02 -0.46713801258E+02  0.63490370568E+02  0.00000000000E+00 0. -1.
</event>
<event>
 7    1  0.3036337E-009  0.1203715E+03  0.7561462E-02  0.1242485E+00
         -2   -1    0    0    0  501 -0.00000000000E+00  0.00000000000E+00  0.11152419851E+02  0.11152419851E+02  0.00000000000E+00 0. -1.
          2   -1    0    0  501    0  0.00000000000E+00 -0.00000000000E+00 -0.15096566459E+04  0.15096566459E+04  0.00000000000E+00 0.  1.
         25    2    1    2    0    0  0.49019069307E+02 -0.40233864452E+02 -0.10192642223E+04  0.10288675884E+04  0.12508927464E+03 0.  0.
          5    1    3    3  502    0  0.53979085823E+02  0.28610136966E+02 -0.67209475199E+03  0.67487858885E+03  0.41800000000E+01 0. -1.
         -5    1    3    3    0  502 -0.49600165168E+01 -0.68844001418E+02 -0.34716947034E+03  0.35398899959E+03  0.41800000000E+01 0. -1.
        -11    1    1    2    0    0 -0.43295586685E+02 -0.21514000380E+02 -0.18283943142E+03  0.18912328709E+03  0.00000000000E+00 0.  1.
         11    1    1    2    0    0 -0.57234826216E+01  0.61747864832E+02 -0.29640057233E+03  0.30281819024E+03  0.00000000000E+00 0. -1.
</event>
<event>
 7    1  0.2856214E-009  0.1097443E+03  0.7561462E-02  0.1261044E+00
         -2   -1    0    0    0  501 -0.00000000000E+00  0.00000000000E+00  0.29235446339E+02  0.29235446339E+02  0.00000000000E+00 0.  1.
          2   -1    0    0  501    0  0.00000000000E+00 -0.00000000000E+00 -0.72511364637E+03  0.72511364637E+03  0.00000000000E+00 0. -1.
         25    2    1    2    0    0 -0.18903288725E+02 -0.25891783597E+02 -0.61397208246E+03  0.62740513782E+03  0.12509104744E+03 0.  0.
          5    1    3    3  502    0 -0.56128376660E+02  0.28039337208E+02 -0.27049785271E+03  0.27771056844E+03  0.41800000000E+01 0.  1.
         -5    1    3    3    0  502  0.37225087935E+02 -0.53931120805E+02 -0.34347422974E+03  0.34969456939E+03  0.41800000000E+01 0.  1.
        -11    1    1    2    0    0  0.40345076702E+02  0.46251487674E+02 -0.74380389030E+02  0.96433228705E+02  0.00000000000E+00 0. -1.
         11    1    1    2    0    0 -0.21441787977E+02 -0.20359704077E+02 -0.75257285404E+01  0.30510726176E+02  0.00000000000E+00 0.  1.
</event>
<event>
 7    1  0.2856214E-009  0.6066568E+02  0.7561462E-02  0.1395059E+00
          2   -1    0    0  501    0  0.00000000000E+00  0.00000000000E+00  0.68880626983E+03  0.68880626983E+03  0.00000000000E+00 0. -1.
         -2   -1    0    0    0  501 -0.00000000000E+00 -0.00000000000E+00 -0.41613025538E+02  0.41613025538E+02  0.00000000000E+00 0.  1.
         25    2    1    2    0    0 -0.40126813199E+02  0.13326281374E+01  0.61255761139E+03  0.62648710756E+03  0.12508929464E+03 0.  0.
          5    1    3    3  502    0  0.15957766431E+02 -0.12765740087E+02  0.13985327944E+02  0.25113267951E+02  0.41800000000E+01 0.  1.
         -5    1    3    3    0  502 -0.56084579631E+02  0.14098368225E+02  0.59857228345E+03  0.60137383961E+03  0.41800000000E+01 0.  1.
        -11    1    1    2    0    0  0.27846121945E+02  0.55801000049E+01  0.64738539021E+02  0.70693864359E+02  0.00000000000E+00 0. -1.
         11    1    1    2    0    0  0.12280691255E+02 -0.69127281423E+01 -0.30102906125E+02  0.33238323442E+02  0.00000000000E+00 0.  1.
</event>
<event>
 7    1  0.2856214E-009  0.1462245E+03  0.7561462E-02  0.1205191E+00
         -1   -1    0    0    0  501 -0.00000000000E+00  0.00000000000E+00  0.88496687413E+02  0.88496687413E+02  0.00000000000E+00 0.  1.
          1   -1    0    0  501    0  0.00000000000E+00 -0.00000000000E+00 -0.35926836542E+03  0.35926836542E+03  0.00000000000E+00 0. -1.
         25    2    1    2    0    0  0.34089451628E+02  0.94620225301E+02 -0.26597454377E+03  0.31065126548E+03  0.12508666221E+03 0.  0.
          5    1    3    3  502    0  0.29174964725E+02 -0.23229501621E+02 -0.35225983120E+02  0.51469705644E+02  0.41800000000E+01 0. -1.
         -5    1    3    3    0  502  0.49144869022E+01  0.11784972692E+03 -0.23074856065E+03  0.25918155984E+03  0.41800000000E+01 0. -1.
        -11    1    1    2    0    0  0.26571396594E+02 -0.26240757043E+01  0.14629253230E+01  0.26740700080E+02  0.00000000000E+00 0.  1.
         11    1    1    2    0    0 -0.60660848222E+02 -0.91996149596E+02 -0.62600595562E+01  0.11037308727E+03  0.00000000000E+00 0. -1.
</event>
<event>
 7    1  0.2856214E-009  0.1245267E+03  0.7561462E-02  0.1235811E+00
         -1   -1    0    0    0  501 -0.00000000000E+00  0.00000000000E+00  0.18314613737E+03  0.18314613737E+03  0.00000000000E+00 0.  1.
          1   -1    0    0  501    0  0.00000000000E+00 -0.00000000000E+00 -0.11181380840E+03  0.11181380840E+03  0.00000000000E+00 0. -1.
         25    2    1    2    0    0 -0.52515038127E+02  0.52051616188E+02 -0.19615868419E+02  0.14661203293E+03  0.12507240275E+03 0.  0.
          5    1    3    3  502    0 -0.38432525645E+02  0.93574960520E+02 -0.13279830429E+02  0.10211345925E+03  0.41800000000E+01 0.  1.
         -5    1    3    3    0  502 -0.14082512482E+02 -0.41523344332E+02 -0.63360379896E+01  0.44498573682E+02  0.41800000000E+01 0.  1.
        -11    1    1    2    0    0  0.64399657631E+02 -0.16791423024E+02  0.22167483896E+02  0.70147452787E+02  0.00000000000E+00 0.  1.
         11    1    1    2    0    0 -0.11884619504E+02 -0.35260193164E+02  0.68780713497E+02  0.78200460049E+02  0.00000000000E+00 0. -1.
</event>
<event>
 7    1  0.2856214E-009  0.9534131E+02  0.7561462E-02  0.1290409E+00
         -2   -1    0    0    0  501 -0.00000000000E+00  0.00000000000E+00  0.15001501624E+02  0.15001501624E+02  0.00000000000E+00 0.  1.
          2   -1    0    0  501    0  0.00000000000E+00 -0.00000000000E+00 -0.12339259552E+04  0.12339259552E+04  0.00000000000E+00 0. -1.
         25    2    1    2    0    0 -0.61596038169E+02  0.39374208920E+02 -0.84274678587E+03  0.85511050491E+03  0.12508968884E+03 0.  0.
          5    1    3    3  502    0 -0.30391005784E+01  0.35170183122E+02 -0.69731543162E+03  0.69822092599E+03  0.41800000000E+01 0. -1.
         -5    1    3    3    0  502 -0.58556937591E+02  0.42040257984E+01 -0.14543135426E+03  0.15688957892E+03  0.41800000000E+01 0. -1.
        -11    1    1    2    0    0  0.24894567847E+02 -0.51848291811E+02 -0.32260036711E+03  0.32768732312E+03  0.00000000000E+00 0. -1.
         11    1    1    2    0    0  0.36701470323E+02  0.12474082891E+02 -0.53577300637E+02  0.66129628847E+02  0.00000000000E+00 0.  1.
</event>
<event>
 7    1  0.2856214E-009  0.1433266E+03  0.7561462E-02  0.1208922E+00
          1   -1    0    0  501    0  0.00000000000E+00  0.00000000000E+00  0.85339093554E+02  0.85339093554E+02  0.00000000000E+00 0. -1.
         -1   -1    0    0    0  501 -0.00000000000E+00 -0.00000000000E+00 -0.36582644535E+03  0.36582644535E+03  0.00000000000E+00 0.  1.
         25    2    1    2    0    0 -0.49611285911E+02 -0.11898559937E+03 -0.21666457004E+03  0.28144087073E+03  0.12508627127E+03 0.  0.
          5    1    3    3  502    0 -0.21906446679E+02  0.86225780877E+00 -0.12754806594E+03  0.12948597384E+03  0.41800000000E+01 0.  1.
         -5    1    3    3    0  502 -0.27704839231E+02 -0.11984785718E+03 -0.89116504099E+02  0.15195489690E+03  0.41800000000E+01 0.  1.
        -11    1    1    2    0    0 -0.17679162655E+01  0.70781989291E+02 -0.69282439446E+02  0.99061960164E+02  0.00000000000E+00 0.  1.
         11    1    1    2    0    0  0.51379202176E+02  0.48203610081E+02  0.54596576905E+01  0.70662708009E+02  0.00000000000E+00 0. -1.
</event>
<event>
 7    1  0.2856214E-009  0.1179117E+03  0.7561462E-02  0.1246582E+00
          1   -1    0    0  501    0  0.00000000000E+00  0.00000000000E+00  0.48500141394E+03  0.48500141394E+03  0.00000000000E+00 0. -1.
         -1   -1    0    0    0  501 -0.00000000000E+00 -0.00000000000E+00 -0.33194789728E+02  0.33194789728E+02  0.00000000000E+00 0.  1.
         25    2    1    2    0    0  0.29354011967E+02 -0.53410841803E+02  0.20497651583E+03  0.24773906974E+03  0.12507956904E+03 0.  0.
          5    1    3    3  502    0  0.68061924866E+02 -0.13445694990E+02  0.57985543470E+02  0.90515236186E+02  0.41800000000E+01 0. -1.
         -5    1    3    3    0  502 -0.38707912899E+02 -0.39965146813E+02  0.14699097236E+03  0.15722383355E+03  0.41800000000E+01 0. -1.
        -11    1    1    2    0    0  0.33629493381E+02  0.21559238078E+02  0.92090126935E+02  0.10038094964E+03  0.00000000000E+00 0. -1.
         11    1    1    2    0    0 -0.62983505347E+02  0.31851603725E+02  0.15473998144E+03  0.17007618429E+03  0.00000000000E+00 0.  1.
</event>
<event>
 7    1  0.2856214E-009  0.9949055E+02  0.7561462E-02  0.1281371E+00
         -2   -1    0    0    0  501 -0.00000000000E+00  0.00000000000E+00  0.12476556781E+03  0.12476556781E+03  0.00000000000E+00 0. -1.
          2   -1    0    0  501    0  0.00000000000E+00 -0.00000000000E+00 -0.12414004225E+03  0.12414004225E+03  0.00000000000E+00 0.  1.
         25    2    1    2    0    0  0.44363900352E+02 -0.23449005036E+02 -0.39467214950E+02  0.14044010260E+03  0.12509096639E+03 0.  0.
          5    1    3    3  502    0  0.70284071427E+02 -0.57215363105E+02 -0.17652688299E+02  0.92425852855E+02  0.41800000000E+01 0.  1.
         -5    1    3    3    0  502 -0.25920171076E+02  0.33766358070E+02 -0.21814526651E+02  0.48014249748E+02  0.41800000000E+01 0.  1.
        -11    1    1    2    0    0 -0.83630679074E+00  0.21913459358E+02 -0.23013199429E+02  0.31788464229E+02  0.00000000000E+00 0.  1.
         11    1    1    2    0    0 -0.43527593561E+02  0.15355456782E+01  0.63105939942E+02  0.76677043225E+02  0.00000000000E+00 0. -1.
</event>
<event>
 7    1  0.2856214E-009  0.1614558E+03  0.7561462E-02  0.1187063E+00
          1   -1    0    0  501    0  0.00000000000E+00  0.00000000000E+00  0.91235172402E+03  0.91235172402E+03  0.00000000000E+00 0. -1.
         -1   -1    0    0    0  501 -0.00000000000E+00 -0.00000000000E+00 -0.49363090134E+02  0.49363090134E+02  0.00000000000E+00 0.  1.
         25    2    1    2    0    0  0.12568742582E+03  0.87626497747E+02  0.67162025068E+03  0.70013946882E+03  0.12508310259E+03 0.  0.
          5    1    3    3  502    0  0.88673226796E+02  0.96764132774E+02  0.63000858381E+03  0.64354838716E+03  0.41800000000E+01 0.  1.
         -5    1    3    3    0  502  0.37014199025E+02 -0.91376350274E+01  0.41611666872E+02  0.56591081658E+02  0.41800000000E+01 0.  1.
        -11    1    1    2    0    0 -0.66767884045E+02 -0.48213791493E+02  0.34226674279E+02  0.89185117941E+02  0.00000000000E+00 0.  1.
         11    1    1    2    0    0 -0.58919541776E+02 -0.39412706254E+02  0.15714170893E+03  0.17239022740E+03  0.00000000000E+00 0. -1.
</event>
<event>
 7    1  0.2856214E-009  0.1335425E+03  0.7561462E-02  0.1222292E+00
          4   -1    0    0  501    0  0.00000000000E+00  0.00000000000E+00  0.92578886926E+02  0.92578886926E+02  0.00000000000E+00 0. -1.
         -4   -1    0    0    0  501 -0.00000000000E+00 -0.00000000000E+00 -0.30607644045E+03  0.30607644045E+03  0.00000000000E+00 0.  1.
         25    2    1    2    0    0  0.10108369252E+03 -0.31622517462E+02 -0.28380671057E+02  0.16635099414E+03  0.12509713929E+03 0.  0.
          5    1    3    3  502    0  0.61633426774E+02  0.42133415571E+02  0.76808208872E+01  0.75168952454E+02  0.41800000000E+01 0.  1.
         -5    1    3    3    0  502  0.39450265749E+02 -0.73755933033E+02 -0.36061491945E+02  0.91182041688E+02  0.41800000000E+01 0.  1.
        -11    1    1    2    0    0 -0.82991505691E+02  0.35150455963E+02 -0.19241635168E+03  0.21247869768E+03  0.00000000000E+00 0.  1.
         11    1    1    2    0    0 -0.18092186831E+02 -0.35279385008E+01  0.72994692158E+01  0.19825635557E+02  0.00000000000E+00 0. -1.
</event>
<event>
 7    1  0.2856214E-009  0.1112921E+03  0.7561462E-02  0.1258196E+00
         -2   -1    0    0    0  501 -0.00000000000E+00  0.00000000000E+00  0.19478736115E+03  0.19478736115E+03  0.00000000000E+00 0. -1.
          2   -1    0    0  501    0  0.00000000000E+00 -0.00000000000E+00 -0.81355931601E+02  0.81355931601E+02  0.00000000000E+00 0.  1.
         25    2    1    2    0    0  0.47522467669E+02 -0.48379609028E+02  0.65645759304E+02  0.15670258746E+03  0.12508942281E+03 0.  0.
          5    1    3    3  502    0  0.80705529184E+02 -0.97312623063E+01  0.67223484957E+02  0.10556774714E+03  0.41800000000E+01 0. -1.
         -5    1    3    3    0  502 -0.33183061515E+02 -0.38648346722E+02 -0.15777256528E+01  0.51134840315E+02  0.41800000000E+01 0. -1.
        -11    1    1    2    0    0  0.13471406265E+02  0.23777582658E+01 -0.15184207723E+02  0.20437531292E+02  0.00000000000E+00 0.  1.
         11    1    1    2    0    0 -0.60993873934E+02  0.46001850762E+02  0.62969877969E+02  0.99003174002E+02  0.00000000000E+00 0. -1.
</event>
<event>
 7    1  0.2856214E-009  0.1064237E+03  0.7561462E-02  0.1267340E+00
         -2   -1    0    0    0  501 -0.00000000000E+00  0.00000000000E+00  0.21308027709E+02  0.21308027709E+02  0.00000000000E+00 0.  1.
          2   -1    0    0  501    0  0.00000000000E+00 -0.00000000000E+00 -0.80731743443E+03  0.80731743443E+03  0.00000000000E+00 0. -1.
         25    2    1    2    0    0 -0.47132649316E+02  0.48063173800E+02 -0.52263090876E+03  0.54159086949E+03  0.12508416296E+03 0.  0.
          5    1    3    3  502    0 -0.50386660660E+01 -0.40459889059E+02 -0.10813543635E+03  0.11564227503E+03  0.41800000000E+01 0. -1.
         -5    1    3    3    0  502 -0.42093983250E+02  0.88523062860E+02 -0.41449547240E+03  0.42594859447E+03  0.41800000000E+01 0. -1.
        -11    1    1    2    0    0  0.23965990567E+01 -0.21684522457E+02 -0.35949593072E+01  0.22110765108E+02  0.00000000000E+00 0.  1.
         11    1    1    2    0    0  0.44736050259E+02 -0.26378651343E+02 -0.25978353865E+03  0.26492382753E+03  0.00000000000E+00 0. -1.
</event>
<event>
 7    1  0.2856214E-009  0.1045470E+03  0.7561462E-02  0.1271015E+00
          1   -1    0    0  501    0  0.00000000000E+00  0.00000000000E+00  0.17205333729E+03  0.17205333729E+03  0.00000000000E+00 0. -1.
         -1   -1    0    0    0  501 -0.00000000000E+00 -0.00000000000E+00 -0.12521088963E+03  0.12521088963E+03  0.00000000000E+00 0.  1.
         25    2    1    2    0    0 -0.56858341838E+01  0.49511809611E+02  0.11095713362E+03  0.17447774702E+03  0.12508897115E+03 0.  0.
          5    1    3    3  502    0 -0.30337597489E+02  0.85458062980E+02  0.77727522133E+02  0.11950937389E+03  0.41800000000E+01 0.  1.
         -5    1    3    3    0  502  0.24651763305E+02 -0.35946253369E+02  0.33229611486E+02  0.54968373132E+02  0.41800000000E+01 0.  1.
        -11    1    1    2    0    0 -0.22057286247E+02 -0.39104370582E+02 -0.78050506455E+02  0.90041974840E+02  0.00000000000E+00 0.  1.
         11    1    1    2    0    0  0.27743120431E+02 -0.10407439029E+02  0.13935820501E+02  0.32744505057E+02  0.00000000000E+00 0. -1.
</event>
<event>
 7    1  0.2856214E-009  0.8000034E+02  0.7561462E-02  0.1329050E+00
          2   -1    0    0  501    0  0.00000000000E+00  0.00000000000E+00  0.43627332441E+03  0.43627332441E+03  0.00000000000E+00 0. -1.
         -2   -1    0    0    0  501 -0.00000000000E+00 -0.00000000000E+00 -0.35899406832E+02  0.35899406832E+02  0.00000000000E+00 0.  1.
         25    2    1    2    0    0 -0.21429893869E+02  0.46704930251E+02  0.15830495003E+03  0.20820294283E+03  0.12508963721E+03 0.  0.
          5    1    3    3  502    0 -0.75461530839E+01  0.41876002165E+02  0.17811982259E+03  0.18317938635E+03  0.41800000000E+01 0.  1.
         -5    1    3    3    0  502 -0.13883740785E+02  0.48289280860E+01 -0.19814872555E+02  0.25023556482E+02  0.41800000000E+01 0.  1.
        -11    1    1    2    0    0  0.41939250352E+02 -0.63058711787E+02  0.20514031962E+03  0.21867293519E+03  0.00000000000E+00 0. -1.
         11    1    1    2    0    0 -0.20509356483E+02  0.16353781536E+02  0.36928647923E+02  0.45296853216E+02  0.00000000000E+00 0.  1.
</event>
<event>
 7    1  0.2856214E-009  0.1103369E+03  0.7561462E-02  0.1259947E+00
          1   -1    0    0  501    0  0.00000000000E+00  0.00000000000E+00  0.33339298927E+02  0.33339298927E+02  0.00000000000E+00 0. -1.
         -1   -1    0    0    0  501 -0.00000000000E+00 -0.00000000000E+00 -0.54374324968E+03  0.54374324968E+03  0.00000000000E+00 0.  1.
         25    2    1    2    0    0 -0.50243052130E+02  0.19488950222E+01 -0.41280084458E+03  0.43425724763E+03  0.12508659941E+03 0.  0.
          5    1    3    3  502    0 -0.92359249123E+02  0.96321818328E+00 -0.28665379367E+03  0.30119599684E+03  0.41800000000E+01 0. -1.
         -5    1    3    3    0  502  0.42116196992E+02  0.98567683892E+00 -0.12614705091E+03  0.13306125079E+03  0.41800000000E+01 0. -1.
        -11    1    1    2    0    0  0.33560731136E+02 -0.35227260515E+02 -0.93464522369E+02  0.10537029705E+03  0.00000000000E+00 0. -1.
         11    1    1    2    0    0  0.16682320994E+02  0.33278365493E+02 -0.41385838025E+01  0.37455003932E+02  0.00000000000E+00 0.  1.
</event>
<event>
 7    1  0.2856214E-009  0.1193628E+03  0.7561462E-02  0.1244152E+00
          1   -1    0    0  501    0  0.00000000000E+00  0.00000000000E+00  0.23155889922E+02  0.23155889922E+02  0.00000000000E+00 0. -1.
         -1   -1    0    0    0  501 -0.00000000000E+00 -0.00000000000E+00 -0.89666605852E+03  0.89666605852E+03  0.00000000000E+00 0.  1.
         25    2    1    2    0    0 -0.55962019223E+02 -0.23466787854E+02 -0.70232588526E+03  0.71595500357E+03  0.12508988888E+03 0.  0.
          5    1    3    3  502    0  0.34674605606E+02 -0.32338881959E+01 -0.89659198798E+02  0.96275805039E+02  0.41800000000E+01 0. -1.
         -5    1    3    3    0  502 -0.90636624829E+02 -0.20232899658E+02 -0.61266668646E+03  0.61967919853E+03  0.41800000000E+01 0. -1.
        -11    1    1    2    0    0  0.77593332795E+02 -0.15606559154E+01 -0.11801248427E+03  0.14124484905E+03  0.00000000000E+00 0. -1.
         11    1    1    2    0    0 -0.21631313573E+02  0.25027443769E+02 -0.53171799071E+02  0.62622095821E+02  0.00000000000E+00 0.  1.
</event>
<event>
 7    1  0.2856214E-009  0.1053680E+03  0.7561462E-02  0.1269396E+00
          1   -1    0    0  501    0  0.00000000000E+00  0.00000000000E+00  0.25157744339E+03  0.25157744339E+03  0.00000000000E+00 0. -1.
         -1   -1    0    0    0  501 -0.00000000000E+00 -0.00000000000E+00 -0.56699097769E+02  0.56699097769E+02  0.00000000000E+00 0.  1.
         25    2    1    2    0    0  0.11291199018E+02  0.19702805505E+02  0.13673962461E+03  0.18671126222E+03  0.12509068224E+03 0.  0.
          5    1    3    3  502    0  0.66849080028E+02 -0.19170597342E+01  0.65191464616E+02  0.93487293668E+02  0.41800000000E+01 0. -1.
         -5    1    3    3    0  502 -0.55557881011E+02  0.21619865239E+02  0.71548159991E+02  0.93223968557E+02  0.41800000000E+01 0. -1.
        -11    1    1    2    0    0 -0.15234607105E+02 -0.50587113464E+02 -0.30409461617E+01  0.52918774133E+02  0.00000000000E+00 0.  1.
         11    1    1    2    0    0  0.39434080870E+01  0.30884307959E+02  0.61179667173E+02  0.68646504797E+02  0.00000000000E+00 0. -1.
</event>
<event>
 7    1  0.2856214E-009  0.1156533E+03  0.7561462E-02  0.1250445E+00
          1   -1    0    0  501    0  0.00000000000E+00  0.00000000000E+00  0.73008271391E+03  0.73008271391E+03  0.00000000000E+00 0. -1.
         -1   -1    0    0    0  501 -0.00000000000E+00 -0.00000000000E+00 -0.36932731768E+02  0.36932731768E+02  0.00000000000E+00 0.  1.
         25    2    1    2    0    0  0.11074671724E+03 -0.16211856640E+02  0.47833365621E+03  0.50692971659E+03  0.12508793399E+03 0.  0.
          5    1    3    3  502    0  0.92382201747E+02  0.12146993848E+01  0.14102189615E+03  0.16864339384E+03  0.41800000000E+01 0. -1.
         -5    1    3    3    0  502  0.18364515493E+02 -0.17426556025E+02  0.33731176006E+03  0.33828632275E+03  0.41800000000E+01 0. -1.
        -11    1    1    2    0    0 -0.67500069688E+02  0.18066386689E+02  0.20376171418E+03  0.21541005061E+03  0.00000000000E+00 0. -1.
         11    1    1    2    0    0 -0.43246647551E+02 -0.18545300488E+01  0.11054611746E+02  0.44675678473E+02  0.00000000000E+00 0.  1.
</event>
<event>
 7    1  0.2856214E-009  0.8919472E+02  0.7561462E-02  0.1304814E+00
         -4   -1    0    0    0  501 -0.00000000000E+00  0.00000000000E+00  0.22151602407E+03  0.22151602407E+03  0.00000000000E+00 0.  1.
          4   -1    0    0  501    0  0.00000000000E+00 -0.00000000000E+00 -0.96993030104E+02  0.96993030104E+02  0.00000000000E+00 0. -1.
         25    2    1    2    0    0 -0.10798586684E+02 -0.32047563879E+02  0.16711106218E+03  0.21145960351E+03  0.12508157734E+03 0.  0.
          5    1    3    3  502    0 -0.39574798458E+02 -0.58427312380E+02  0.15502174886E+03  0.17037937236E+03  0.41800000000E+01 0.  1.
         -5    1    3    3    0  502  0.28776211774E+02  0.26379748501E+02  0.12089313316E+02  0.41080231152E+02  0.41800000000E+01 0.  1.
        -11    1    1    2    0    0  0.35066143315E+02  0.25324095539E+02  0.13710814016E+02  0.45375440966E+02  0.00000000000E+00 0.  1.
         11    1    1    2    0    0 -0.24267556630E+02  0.67234683399E+01 -0.56298882231E+02  0.61674009694E+02  0.00000000000E+00 0. -1.
</event>
<event>
 7    1  0.2856214E-009  0.2060563E+03  0.7561462E-02  0.1144728E+00
         -1   -1    0    0    0  501 -0.00000000000E+00  0.00000000000E+00  0.16870364831E+03  0.16870364831E+03  0.00000000000E+00 0.  1.
          1   -1    0    0  501    0  0.00000000000E+00 -0.00000000000E+00 -0.42419153039E+03  0.42419153039E+03  0.00000000000E+00 0. -1.
         25    2    1    2    0    0 -0.18747569000E+03  0.13802813383E+01 -0.30474001066E+03  0.37902771094E+03  0.12508593865E+03 0.  0.
          5    1    3    3  502    0 -0.19269870682E+03 -0.27157385349E+02 -0.27787591904E+03  0.33926805622E+03  0.41800000000E+01 0. -1.
         -5    1    3    3    0  502  0.52230168281E+01  0.28537666687E+02 -0.26864091622E+02  0.39759654719E+02  0.41800000000E+01 0. -1.
        -11    1    1    2    0    0  0.74251890590E+02 -0.83239203868E+01  0.65388617227E+02  0.99288983123E+02  0.00000000000E+00 0.  1.
         11    1    1    2    0    0  0.11322379941E+03  0.69436390485E+01 -0.16136488655E+02  0.11457848464E+03  0.00000000000E+00 0. -1.
</event>
<event>
 7    1  0.2856214E-009  0.1406979E+03  0.7561462E-02  0.1212393E+00
          1   -1    0    0  501    0  0.00000000000E+00  0.00000000000E+00  0.48935020282E+03  0.48935020282E+03  0.00000000000E+00 0. -1.
         -1   -1    0    0    0  501 -0.00000000000E+00 -0.00000000000E+00 -0.41534759971E+02  0.41534759971E+02  0.00000000000E+00 0.  1.
         25    2    1    2    0    0  0.43083611100E+02 -0.83955386088E+02  0.23026450758E+03  0.27852106293E+03  0.12509010612E+03 0.  0.
          5    1    3    3  502    0  0.85168743666E+02 -0.37546618434E+02  0.12416761116E+03  0.15523701722E+03  0.41800000000E+01 0. -1.
         -5    1    3    3    0  502 -0.42085132566E+02 -0.46408767653E+02  0.10609689642E+03  0.12328404572E+03  0.41800000000E+01 0. -1.
        -11    1    1    2    0    0  0.24826493238E+02  0.17148883551E+02  0.75719640844E+02  0.81510140370E+02  0.00000000000E+00 0.  1.
         11    1    1    2    0    0 -0.67910104337E+02  0.66806502537E+02  0.14183129442E+03  0.17085375949E+03  0.00000000000E+00 0. -1.
</event>
<event>
 7    1  0.2856214E-009  0.1271366E+03  0.7561462E-02  0.1231767E+00
          1   -1    0    0  501    0  0.00000000000E+00  0.00000000000E+00  0.49715743354E+03  0.49715743354E+03  0.00000000000E+00 0. -1.
         -1   -1    0    0    0  501 -0.00000000000E+00 -0.00000000000E+00 -0.54238828583E+02  0.54238828583E+02  0.00000000000E+00 0.  1.
         25    2    1    2    0    0 -0.88175422347E+02  0.39836929443E+02  0.11278590656E+03  0.19424094498E+03  0.12508796078E+03 0.  0.
          5    1    3    3  502    0 -0.75619674833E+02 -0.12854062141E+02  0.11676506513E+03  0.13976807565E+03  0.41800000000E+01 0. -1.
         -5    1    3    3    0  502 -0.12555747514E+02  0.52690991585E+02 -0.39791585720E+01  0.54472869328E+02  0.41800000000E+01 0. -1.
        -11    1    1    2    0    0  0.19714901174E+01  0.18779501635E+02  0.11986647735E+02  0.22365960272E+02  0.00000000000E+00 0.  1.
         11    1    1    2    0    0  0.86203932230E+02 -0.58616431079E+02  0.31814605066E+03  0.33478935687E+03  0.00000000000E+00 0. -1.
</event>
<event>
 7    1  0.2856214E-009  0.1004309E+03  0.7561462E-02  0.1279392E+00
         -2   -1    0    0    0  501 -0.00000000000E+00  0.00000000000E+00  0.75130112383E+02  0.75130112383E+02  0.00000000000E+00 0.  1.
          2   -1    0    0  501    0  0.00000000000E+00 -0.00000000000E+00 -0.20818741728E+03  0.20818741728E+03  0.00000000000E+00 0. -1.
         25    2    1    2    0    0 -0.16982772325E+02 -0.59237254411E+02 -0.70484418858E+02  0.15624547279E+03  0.12508847908E+03 0.  0.
          5    1    3    3  502    0 -0.36263292694E+02  0.29291448599E+02 -0.36630989432E+02  0.59433299965E+02  0.41800000000E+01 0. -1.
         -5    1    3    3    0  502  0.19280520369E+02 -0.88528703009E+02 -0.33853429426E+02  0.96812172820E+02  0.41800000000E+01 0. -1.
        -11    1    1    2    0    0  0.35250706812E+01  0.38349107255E+02 -0.85178568235E+02  0.93479776621E+02  0.00000000000E+00 0. -1.
         11    1    1    2    0    0  0.13457701644E+02  0.20888147155E+02  0.22605682198E+02  0.33592280255E+02  0.00000000000E+00 0.  1.
</event>
<event>
 7    1  0.2856214E-009  0.8372688E+02  0.7561462E-02  0.1318796E+00
          3   -1    0    0  501    0  0.00000000000E+00  0.00000000000E+00  0.43284409512E+02  0.43284409512E+02  0.00000000000E+00 0. -1.
         -3   -1    0    0    0  501 -0.00000000000E+00 -0.00000000000E+00 -0.30502818003E+03  0.30502818003E+03  0.00000000000E+00 0.  1.
         25    2    1    2    0    0  0.20783994008E+02  0.42174035908E+00 -0.18393384384E+03  0.22340954983E+03  0.12509202921E+03 0.  0.
          5    1    3    3  502    0 -0.45862652920E+02 -0.28316760405E+02 -0.81451270883E+02  0.97759929323E+02  0.41800000000E+01 0. -1.
         -5    1    3    3    0  502  0.66646646928E+02  0.28738500764E+02 -0.10248257296E+03  0.12564962050E+03  0.41800000000E+01 0. -1.
        -11    1    1    2    0    0 -0.34358337163E+01 -0.16611885903E+02 -0.94424022041E+02  0.95935684941E+02  0.00000000000E+00 0.  1.
         11    1    1    2    0    0 -0.17348160292E+02  0.16190145544E+02  0.16614095360E+02  0.28967354779E+02  0.00000000000E+00 0. -1.
</event>
<event>
 7    1  0.2856214E-009  0.1234526E+03  0.7561462E-02  0.1237508E+00
         -1   -1    0    0    0  501 -0.00000000000E+00  0.00000000000E+00  0.27767389661E+03  0.27767389661E+03  0.00000000000E+00 0.  1.
          1   -1    0    0  501    0  0.00000000000E+00 -0.00000000000E+00 -0.86375792874E+02  0.86375792874E+02  0.00000000000E+00 0. -1.
         25    2    1    2    0    0  0.27094782789E+02 -0.62860876114E+02  0.20480290445E+03  0.24955543806E+03  0.12509224595E+03 0.  0.
          5    1    3    3  502    0  0.28070915412E+02  0.30482261013E+02  0.10438591480E+03  0.11238788252E+03  0.41800000000E+01 0.  1.
         -5    1    3    3    0  502 -0.97613262291E+00 -0.93343137128E+02  0.10041698965E+03  0.13716755555E+03  0.41800000000E+01 0.  1.
        -11    1    1    2    0    0 -0.59754042378E+02  0.38734010789E+02  0.14457926459E+01  0.71224711222E+02  0.00000000000E+00 0.  1.
         11    1    1    2    0    0  0.32659259589E+02  0.24126865326E+02 -0.14950593358E+02  0.43269540199E+02  0.00000000000E+00 0. -1.
</event>
<event>
 7    1  0.2856214E-009  0.7688874E+02  0.7561462E-02  0.1338120E+00
          1   -1    0    0  501    0  0.00000000000E+00  0.00000000000E+00  0.14873049282E+04  0.14873049282E+04  0.00000000000E+00 0. -1.
         -1   -1    0    0    0  501 -0.00000000000E+00 -0.00000000000E+00 -0.92829267869E+01  0.92829267869E+01  0.00000000000E+00 0.  1.
         25    2    1    2    0    0 -0.49133807883E+01  0.41687708567E+02  0.10260161214E+04  0.10344652942E+04  0.12508939696E+03 0.  0.
          5    1    3    3  502    0  0.11869835348E+02  0.11211779028E+00  0.68950711735E+01  0.14349911779E+02  0.41800000000E+01 0. -1.
         -5    1    3    3    0  502 -0.16783216136E+02  0.41575590777E+02  0.10191210502E+04  0.10201153824E+04  0.41800000000E+01 0. -1.
        -11    1    1    2    0    0  0.45505267356E+02 -0.27465890334E+02  0.25175157552E+03  0.25730130250E+03  0.00000000000E+00 0.  1.
         11    1    1    2    0    0 -0.40591886568E+02 -0.14221818233E+02  0.20025430451E+03  0.20482125828E+03  0.00000000000E+00 0. -1.
</event>
<event>
 7    1  0.2856214E-009  0.1110130E+03  0.7561462E-02  0.1258705E+00
         -2   -1    0    0    0  501 -0.00000000000E+00  0.00000000000E+00  0.47264557351E+03  0.47264557351E+03  0.00000000000E+00 0.  1.
          2   -1    0    0  501    0  0.00000000000E+00 -0.00000000000E+00 -0.31695543493E+02  0.31695543493E+02  0.00000000000E+00 0. -1.
         25    2    1    2    0    0 -0.59137160548E+01 -0.54447334385E+02  0.28242012972E+03  0.31369943956E+03  0.12508686761E+03 0.  0.
          5    1    3    3  502    0 -0.88396555805E+01 -0.94266698136E+02  0.21919555153E+03  0.23880643228E+03  0.41800000000E+01 0. -1.
         -5    1    3    3    0  502  0.29259395257E+01  0.39819363750E+02  0.63224578198E+02  0.74893007283E+02  0.41800000000E+01 0. -1.
        -11    1    1    2    0    0  0.13326772358E+02 -0.13375792676E+02  0.96829475469E+02  0.98653241258E+02  0.00000000000E+00 0.  1.
         11    1    1    2    0    0 -0.74130563036E+01  0.67823127061E+02  0.61700424824E+02  0.91988436184E+02  0.00000000000E+00 0. -1.
</event>
<event>
 7    1  0.2856214E-009  0.1266123E+03  0.7561462E-02  0.1232571E+00
          2   -1    0    0  501    0  0.00000000000E+00  0.00000000000E+00  0.31496176187E+03  0.31496176187E+03  0.00000000000E+00 0. -1.
         -2   -1    0    0    0  501 -0.00000000000E+00 -0.00000000000E+00 -0.58407469939E+02  0.58407469939E+02  0.00000000000E+00 0.  1.
         25    2    1    2    0    0 -0.76972779402E+02 -0.12480738002E+02  0.15441738957E+03  0.21347854291E+03  0.12509108878E+03 0.  0.
          5    1    3    3  502    0  0.24570053409E+02  0.93695861668E+01  0.83495815194E+02  0.87638463156E+02  0.41800000000E+01 0. -1.
         -5    1    3    3    0  502 -0.10154283281E+03 -0.21850324169E+02  0.70921574375E+02  0.12584007976E+03  0.41800000000E+01 0. -1.
        -11    1    1    2    0    0  0.70193909308E+02  0.48935286458E+02  0.65448010779E+02  0.10772784821E+03  0.00000000000E+00 0.  1.
         11    1    1    2    0    0  0.67788700944E+01 -0.36454548456E+02  0.36688891580E+02  0.52162840684E+02  0.00000000000E+00 0. -1.
</event>
<event>
 7    1  0.2856214E-009  0.2228551E+03  0.7561462E-02  0.1131772E+00
          1   -1    0    0  501    0  0.00000000000E+00  0.00000000000E+00  0.50918532751E+03  0.50918532751E+03  0.00000000000E+00 0. -1.
         -1   -1    0    0    0  501 -0.00000000000E+00 -0.00000000000E+00 -0.11687162080E+03  0.11687162080E+03  0.00000000000E+00 0.  1.
         25    2    1    2    0    0  0.20193485310E+03 -0.56833540109E+02  0.27671591937E+03  0.36908487468E+03  0.12507681044E+03 0.  0.
          5    1    3    3  502    0  0.19534330972E+03 -0.23796065924E+02  0.18052871017E+03  0.26708303765E+03  0.41800000000E+01 0.  1.
         -5    1    3    3    0  502  0.65915433851E+01 -0.33037474185E+02  0.96187209196E+02  0.10200183703E+03  0.41800000000E+01 0.  1.
        -11    1    1    2    0    0 -0.10231395798E+03  0.53024826672E+02  0.16515144423E+02  0.11641532647E+03  0.00000000000E+00 0.  1.
         11    1    1    2    0    0 -0.99620895120E+02  0.38087134363E+01  0.99082642922E+02  0.14055674716E+03  0.00000000000E+00 0. -1.
</event>
<event>
 7    1  0.5353940E-009  0.9650526E+02  0.7561462E-02  0.1287821E+00
          2   -1    0    0  501    0  0.00000000000E+00  0.00000000000E+00  0.93001364307E+03  0.93001364307E+03  0.00000000000E+00 0. -1.
         -2   -1    0    0    0  501 -0.00000000000E+00 -0.00000000000E+00 -0.15699563892E+02  0.15699563892E+02  0.00000000000E+00 0.  1.
         25    2    1    2    0    0 -0.39984431529E+02 -0.24377574174E+01  0.65388774259E+03  0.66694920227E+03  0.12508941234E+03 0.  0.
          5    1    3    3  502    0 -0.63400749455E+02 -0.24545676376E+02  0.18848879129E+03  0.20041866705E+03  0.41800000000E+01 0. -1.
         -5    1    3    3    0  502  0.23416317926E+02  0.22107918959E+02  0.46539895129E+03  0.46653053522E+03  0.41800000000E+01 0. -1.
        -11    1    1    2    0    0 -0.24215312959E+02  0.12801669261E+02  0.13199400498E+03  0.13480608840E+03  0.00000000000E+00 0. -1.
         11    1    1    2    0    0  0.64199744488E+02 -0.10363911843E+02  0.12843233161E+03  0.14395791629E+03  0.00000000000E+00 0.  1.
</event>
<event>
 7    1  0.2856214E-009  0.1433330E+03  0.7561462E-02  0.1208913E+00
         -2   -1    0    0    0  501 -0.00000000000E+00  0.00000000000E+00  0.25348553128E+03  0.25348553128E+03  0.00000000000E+00 0. -1.
          2   -1    0    0  501    0  0.00000000000E+00 -0.00000000000E+00 -0.12199023190E+03  0.12199023190E+03  0.00000000000E+00 0.  1.
         25    2    1    2    0    0 -0.11035949681E+03  0.80161753814E+02  0.60224600325E+02  0.19462715444E+03  0.12509037313E+03 0.  0.
          5    1    3    3  502    0 -0.37687818149E+02  0.42717624424E+02 -0.36598168517E+02  0.67838524542E+02  0.41800000000E+01 0. -1.
         -5    1    3    3    0  502 -0.72671678662E+02  0.37444129390E+02  0.96822768842E+02  0.12678862990E+03  0.41800000000E+01 0. -1.
        -11    1    1    2    0    0  0.43248701217E+02 -0.66303478244E+02  0.79061022142E+02  0.11188050146E+03  0.00000000000E+00 0. -1.
         11    1    1    2    0    0  0.67110795594E+02 -0.13858275570E+02 -0.77903230888E+01  0.68968107273E+02  0.00000000000E+00 0.  1.
</event>
<event>
 7    1  0.2856214E-009  0.1128135E+03  0.7561462E-02  0.1255447E+00
         -2   -1    0    0    0  501 -0.00000000000E+00  0.00000000000E+00  0.44061913253E+02  0.44061913253E+02  0.00000000000E+00 0.  1.
          2   -1    0    0  501    0  0.00000000000E+00 -0.00000000000E+00 -0.32429158683E+03  0.32429158683E+03  0.00000000000E+00 0. -1.
         25    2    1    2    0    0  0.50748741400E+02 -0.54263755300E+01 -0.13705075289E+03  0.19244513763E+03  0.12508933538E+03 0.  0.
          5    1    3    3  502    0  0.55053342641E+02  0.45928527883E+02 -0.39312205673E+02  0.81873207610E+02  0.41800000000E+01 0.  1.
         -5    1    3    3    0  502 -0.43046012410E+01 -0.51354903413E+02 -0.97738547218E+02  0.11057193002E+03  0.41800000000E+01 0.  1.
        -11    1    1    2    0    0 -0.14263116896E+02 -0.40796286943E+02 -0.57006426032E+02  0.71536746787E+02  0.00000000000E+00 0.  1.
         11    1    1    2    0    0 -0.36485624505E+02  0.46222662473E+02 -0.86172494652E+02  0.10437161566E+03  0.00000000000E+00 0. -1.
</event>
<event>
 7    1  0.2856214E-009  0.4359514E+03  0.7561462E-02  0.1031996E+00
          2   -1    0    0  501    0  0.00000000000E+00  0.00000000000E+00  0.26601809938E+03  0.26601809938E+03  0.00000000000E+00 0. -1.
         -2   -1    0    0    0  501 -0.00000000000E+00 -0.00000000000E+00 -0.75018065210E+03  0.75018065210E+03  0.00000000000E+00 0.  1.
         25    2    1    2    0    0  0.39570285983E+03  0.17577700144E+03 -0.26081546009E+03  0.52071997752E+03  0.12508510407E+03 0.  0.
          5    1    3    3  502    0  0.35957328521E+03  0.14279906505E+03 -0.26860526285E+03  0.47101038210E+03  0.41800000000E+01 0.  1.
         -5    1    3    3    0  502  0.36129574613E+02  0.32977936385E+02  0.77898027547E+01  0.49709595420E+02  0.41800000000E+01 0.  1.
        -11    1    1    2    0    0 -0.15936112866E+03 -0.44121152041E+02 -0.44742510162E+02  0.17130247401E+03  0.00000000000E+00 0. -1.
         11    1    1    2    0    0 -0.23634173117E+03 -0.13165584940E+03 -0.17860458247E+03  0.32417629995E+03  0.00000000000E+00 0.  1.
</event>
<event>
 7    1  0.2856214E-009  0.6343760E+02  0.7561462E-02  0.1383947E+00
         -1   -1    0    0    0  501 -0.00000000000E+00  0.00000000000E+00  0.16201206499E+03  0.16201206499E+03  0.00000000000E+00 0.  1.
          1   -1    0    0  501    0  0.00000000000E+00 -0.00000000000E+00 -0.89971347680E+02  0.89971347680E+02  0.00000000000E+00 0. -1.
         25    2    1    2    0    0 -0.45092724903E+02  0.87284197267E+01  0.79216267969E+02  0.15502513582E+03  0.12509211196E+03 0.  0.
          5    1    3    3  502    0  0.10781346325E+02 -0.10788146606E+02  0.92816736128E+02  0.94154343719E+02  0.41800000000E+01 0.  1.
         -5    1    3    3    0  502 -0.55874071228E+02  0.19516566333E+02 -0.13600468159E+02  0.60870792102E+02  0.41800000000E+01 0.  1.
        -11    1    1    2    0    0  0.25934126866E+02 -0.16842083610E+02  0.36944756768E+02  0.48178312229E+02  0.00000000000E+00 0.  1.
         11    1    1    2    0    0  0.19158598038E+02  0.81136638834E+01 -0.44120307429E+02  0.48779964617E+02  0.00000000000E+00 0. -1.
</event>
<event>
 7    1  0.2856214E-009  0.2353281E+03  0.7561462E-02  0.1122945E+00
         -2   -1    0    0    0  501 -0.00000000000E+00  0.00000000000E+00  0.52939424439E+02  0.52939424439E+02  0.00000000000E+00 0. -1.
          2   -1    0    0  501    0  0.00000000000E+00 -0.00000000000E+00 -0.12559959926E+04  0.12559959926E+04  0.00000000000E+00 0.  1.
         25    2    1    2    0    0  0.22403456978E+03  0.40290023463E+02 -0.73030557730E+03  0.77511800795E+03  0.12508763156E+03 0.  0.
          5    1    3    3  502    0 -0.35019195390E+01  0.40146655505E+01  0.22772398147E+01  0.71441725283E+01  0.41800000000E+01 0.  1.
         -5    1    3    3    0  502  0.22753648932E+03  0.36275357912E+02 -0.73258281711E+03  0.76797383542E+03  0.41800000000E+01 0.  1.
        -11    1    1    2    0    0 -0.17035707595E+03 -0.52740674308E+02 -0.42501564450E+03  0.46091366884E+03  0.00000000000E+00 0.  1.
         11    1    1    2    0    0 -0.53677493829E+02  0.12450650845E+02 -0.47735346373E+02  0.72903740258E+02  0.00000000000E+00 0. -1.
</event>
<event>
 7    1  0.2856214E-009  0.8013645E+02  0.7561462E-02  0.1328665E+00
          1   -1    0    0  501    0  0.00000000000E+00  0.00000000000E+00  0.88919836072E+02  0.88919836072E+02  0.00000000000E+00 0. -1.
         -1   -1    0    0    0  501 -0.00000000000E+00 -0.00000000000E+00 -0.17410114528E+03  0.17410114528E+03  0.00000000000E+00 0.  1.
         25    2    1    2    0    0  0.54772184717E+02 -0.47740630306E+02 -0.37587823311E+02  0.14945239118E+03  0.12507602795E+03 0.  0.
          5    1    3    3  502    0  0.10906321937E+02 -0.40856952574E+02 -0.78285896104E+02  0.89075206206E+02  0.41800000000E+01 0. -1.
         -5    1    3    3    0  502  0.43865862780E+02 -0.68836777320E+01  0.40698072793E+02  0.60377184976E+02  0.41800000000E+01 0. -1.
        -11    1    1    2    0    0 -0.20421670514E+02  0.23524127745E+02 -0.61797121135E+02  0.69204865388E+02  0.00000000000E+00 0.  1.
         11    1    1    2    0    0 -0.34350514203E+02  0.24216502561E+02  0.14203635241E+02  0.44363724780E+02  0.00000000000E+00 0. -1.
</event>
<event>
 7    1  0.2856214E-009  0.1042829E+03  0.7561462E-02  0.1271539E+00
          1   -1    0    0  501    0  0.00000000000E+00  0.00000000000E+00  0.13739289606E+04  0.13739289606E+04  0.00000000000E+00 0. -1.
         -1   -1    0    0    0  501 -0.00000000000E+00 -0.00000000000E+00 -0.12447884751E+02  0.12447884751E+02  0.00000000000E+00 0.  1.
         25    2    1    2    0    0  0.63960269713E+02 -0.57385825850E+01  0.86029482851E+03  0.87171031455E+03  0.12509129911E+03 0.  0.
          5    1    3    3  502    0  0.54758654176E+01  0.24605210426E+02  0.32760502755E+02  0.41546653571E+02  0.41800000000E+01 0. -1.
         -5    1    3    3    0  502  0.58484404295E+02 -0.30343793011E+02  0.82753432575E+03  0.83016366098E+03  0.41800000000E+01 0. -1.
        -11    1    1    2    0    0  0.11275456589E+02  0.34616699539E+02  0.16111808890E+03  0.16518017550E+03  0.00000000000E+00 0.  1.
         11    1    1    2    0    0 -0.75235726301E+02 -0.28878116954E+02  0.34006815843E+03  0.34948635528E+03  0.00000000000E+00 0. -1.
</event>
<event>
 7    1  0.2856214E-009  0.1133044E+03  0.7561462E-02  0.1254570E+00
         -2   -1    0    0    0  501 -0.00000000000E+00  0.00000000000E+00  0.28159087238E+02  0.28159087238E+02  0.00000000000E+00 0. -1.
          2   -1    0    0  501    0  0.00000000000E+00 -0.00000000000E+00 -0.56634136654E+03  0.56634136654E+03  0.00000000000E+00 0.  1.
         25    2    1    2    0    0 -0.50242090611E+02 -0.10068006406E+02 -0.39063963278E+03  0.41336703526E+03  0.12508937094E+03 0.  0.
          5    1    3    3  502    0  0.11019362728E+02  0.48682092553E+02 -0.13700474890E+03  0.14587373345E+03  0.41800000000E+01 0. -1.
         -5    1    3    3    0  502 -0.61261453339E+02 -0.58750098959E+02 -0.25363488388E+03  0.26749330181E+03  0.41800000000E+01 0. -1.
        -11    1    1    2    0    0  0.48503573336E+02 -0.26268490725E+02 -0.41510438202E+02  0.69034387888E+02  0.00000000000E+00 0. -1.
         11    1    1    2    0    0  0.17385172751E+01  0.36336497131E+02 -0.10603220832E+03  0.11209903063E+03  0.00000000000E+00 0.  1.
</event>
<event>
 7    1  0.2856214E-009  0.1050049E+03  0.7561462E-02  0.1270110E+00
         -4   -1    0    0    0  501 -0.00000000000E+00  0.00000000000E+00  0.45937120345E+02  0.45937120345E+02  0.00000000000E+00 0. -1.
          4   -1    0    0  501    0  0.00000000000E+00 -0.00000000000E+00 -0.33607568304E+03  0.33607568304E+03  0.00000000000E+00 0.  1.
         25    2    1    2    0    0  0.24208577543E+02  0.44466827280E+02 -0.11129483666E+03  0.17492092925E+03  0.12508971528E+03 0.  0.
          5    1    3    3  502    0 -0.43312274087E+02  0.42107800920E+02 -0.25662708727E+02  0.65765241611E+02  0.41800000000E+01 0. -1.
         -5    1    3    3    0  502  0.67520851629E+02  0.23590263602E+01 -0.85632127931E+02  0.10915568764E+03  0.41800000000E+01 0. -1.
        -11    1    1    2    0    0 -0.46088257087E+02 -0.24746031694E+02 -0.16758196929E+03  0.17555685677E+03  0.00000000000E+00 0.  1.
         11    1    1    2    0    0  0.21879679544E+02 -0.19720795586E+02 -0.11261756746E+02  0.31535017370E+02  0.00000000000E+00 0. -1.
</event>
<event>
 7    1  0.2856214E-009  0.1724144E+03  0.7561462E-02  0.1175353E+00
         -2   -1    0    0    0  501 -0.00000000000E+00  0.00000000000E+00  0.22234226493E+02  0.22234226493E+02  0.00000000000E+00 0.  1.
          2   -1    0    0  501    0  0.00000000000E+00 -0.00000000000E+00 -0.17825625074E+04  0.17825625074E+04  0.00000000000E+00 0. -1.
         25    2    1    2    0    0  0.88211893987E+02  0.12241957091E+03 -0.12551120691E+04  0.12703235227E+04  0.12509059386E+03 0.  0.
          5    1    3    3  502    0 -0.11837799615E+02  0.37982417495E+02 -0.98428079526E+02  0.10624667890E+03  0.41800000000E+01 0.  1.
         -5    1    3    3    0  502  0.10004969360E+03  0.84437153414E+02 -0.11566839896E+04  0.11640768438E+04  0.41800000000E+01 0.  1.
        -11    1    1    2    0    0 -0.80933162917E+02 -0.38531731182E+02 -0.23892056385E+03  0.25518210556E+03  0.00000000000E+00 0. -1.
         11    1    1    2    0    0 -0.72787310705E+01 -0.83887839727E+02 -0.26629564793E+03  0.27929110564E+03  0.00000000000E+00 0.  1.
</event>
<event>
 7    1  0.2856214E-009  0.1309438E+03  0.7561462E-02  0.1226062E+00
         -2   -1    0    0    0  501 -0.00000000000E+00  0.00000000000E+00  0.39451144047E+03  0.39451144047E+03  0.00000000000E+00 0.  1.
          2   -1    0    0  501    0  0.00000000000E+00 -0.00000000000E+00 -0.60151183867E+02  0.60151183867E+02  0.00000000000E+00 0. -1.
         25    2    1    2    0    0 -0.22237539638E+02  0.85152629021E+02  0.82307235128E+02  0.17368681078E+03  0.12508856416E+03 0.  0.
          5    1    3    3  502    0 -0.45794518722E+02  0.10682711527E+03  0.80318862633E+02  0.14134271328E+03  0.41800000000E+01 0.  1.
         -5    1    3    3    0  502  0.23556979084E+02 -0.21674486250E+02  0.19883724957E+01  0.32344097498E+02  0.41800000000E+01 0.  1.
        -11    1    1    2    0    0  0.42736479947E+02 -0.82124856377E+02  0.14571473836E+03  0.17263743432E+03  0.00000000000E+00 0. -1.
         11    1    1    2    0    0 -0.20498940309E+02 -0.30277726439E+01  0.10633828312E+03  0.10833837924E+03  0.00000000000E+00 0.  1.
</event>
<event>
 7    1  0.2856214E-009  0.1134421E+03  0.7561462E-02  0.1254325E+00
          1   -1    0    0  501    0  0.00000000000E+00  0.00000000000E+00  0.58573670448E+03  0.58573670448E+03  0.00000000000E+00 0. -1.
         -1   -1    0    0    0  501 -0.00000000000E+00 -0.00000000000E+00 -0.27526055860E+02  0.27526055860E+02  0.00000000000E+00 0.  1.
         25    2    1    2    0    0 -0.42798933867E+02 -0.43930865324E+02  0.36097296224E+03  0.38692482560E+03  0.12509065326E+03 0.  0.
          5    1    3    3  502    0  0.14938415750E+02  0.30913046658E+02  0.43061808854E+02  0.55231915598E+02  0.41800000000E+01 0.  1.
         -5    1    3    3    0  502 -0.57737349617E+02 -0.74843911983E+02  0.31791115338E+03  0.33169291000E+03  0.41800000000E+01 0.  1.
        -11    1    1    2    0    0  0.64477932461E+02  0.25914763152E+02  0.80965209656E+02  0.10669744092E+03  0.00000000000E+00 0.  1.
         11    1    1    2    0    0 -0.21678998594E+02  0.18016102172E+02  0.11627247673E+03  0.11964049382E+03  0.00000000000E+00 0. -1.
</event>
<event>
 7    1  0.2856214E-009  0.9248867E+02  0.7561462E-02  0.1296935E+00
         -1   -1    0    0    0  501 -0.00000000000E+00  0.00000000000E+00  0.11302071716E+03  0.11302071716E+03  0.00000000000E+00 0.  1.
          1   -1    0    0  501    0  0.00000000000E+00 -0.00000000000E+00 -0.13916988288E+03  0.13916988288E+03  0.00000000000E+00 0. -1.
         25    2    1    2    0    0  0.24805929322E+02 -0.46888275972E+02  0.22151260004E+02  0.13766588527E+03  0.12508946037E+03 0.  0.
          5    1    3    3  502    0  0.25805063024E+02 -0.84372500437E+02 -0.89338245971E+01  0.88780097598E+02  0.41800000000E+01 0. -1.
         -5    1    3    3    0  502 -0.99913370145E+00  0.37484224464E+02  0.31085084601E+02  0.48885787674E+02  0.41800000000E+01 0. -1.
        -11    1    1    2    0    0 -0.17571104640E+02  0.79019581801E+01  0.24775021341E+02  0.31384492091E+02  0.00000000000E+00 0.  1.
         11    1    1    2    0    0 -0.72348246824E+01  0.38986317792E+02 -0.73075447059E+02  0.83140222673E+02  0.00000000000E+00 0. -1.
</event>
<event>
 7    1  0.2856214E-009  0.7444941E+02  0.7561462E-02  0.1345585E+00
          1   -1    0    0  501    0  0.00000000000E+00  0.00000000000E+00  0.28151533904E+02  0.28151533904E+02  0.00000000000E+00 0. -1.
         -1   -1    0    0    0  501 -0.00000000000E+00 -0.00000000000E+00 -0.58406893292E+03  0.58406893292E+03  0.00000000000E+00 0.  1.
         25    2    1    2    0    0  0.55192377990E+02  0.32935028318E+01 -0.20056240385E+03  0.24275301422E+03  0.12508677919E+03 0.  0.
          5    1    3    3  502    0  0.36781324132E+02  0.10592155558E+01  0.40547715169E+01  0.37254547569E+02  0.41800000000E+01 0.  1.
         -5    1    3    3    0  502  0.18411053858E+02  0.22342872761E+01 -0.20461717536E+03  0.20549846665E+03  0.41800000000E+01 0.  1.
        -11    1    1    2    0    0  0.14654871236E+02  0.14668127362E+02 -0.31730685061E+02  0.37904558904E+02  0.00000000000E+00 0. -1.
         11    1    1    2    0    0 -0.69847249226E+02 -0.17961630194E+02 -0.32362431010E+03  0.33156289369E+03  0.00000000000E+00 0.  1.
</event>
<event>
 7    1  0.2856214E-009  0.1678158E+03  0.7561462E-02  0.1180145E+00
          2   -1    0    0  501    0  0.00000000000E+00  0.00000000000E+00  0.59960320824E+02  0.59960320824E+02  0.00000000000E+00 0.  1.
         -2   -1    0    0    0  501 -0.00000000000E+00 -0.00000000000E+00 -0.51107211090E+03  0.51107211090E+03  0.00000000000E+00 0. -1.
         25    2    1    2    0    0  0.49566415938E+02 -0.12406352627E+03 -0.29347432777E+03  0.34586785752E+03  0.12509518643E+03 0.  0.
          5    1    3    3  502    0 -0.25596829637E+02 -0.90048065584E+02 -0.10901189984E+03  0.14375297740E+03  0.41800000000E+01 0. -1.
         -5    1    3    3    0  502  0.75163245575E+02 -0.34015460684E+02 -0.18446242793E+03  0.20211488013E+03  0.41800000000E+01 0. -1.
        -11    1    1    2    0    0 -0.36811050117E+02  0.22971999196E+01 -0.24432604451E+02  0.44241187805E+02  0.00000000000E+00 0.  1.
         11    1    1    2    0    0 -0.12755365821E+02  0.12176632635E+03 -0.13320485786E+03  0.18092338640E+03  0.00000000000E+00 0. -1.
</event>
<event>
 7    1  0.2856214E-009  0.2002268E+03  0.7561462E-02  0.1149548E+00
         -2   -1    0    0    0  501 -0.00000000000E+00  0.00000000000E+00  0.11694752694E+03  0.11694752694E+03  0.00000000000E+00 0. -1.
          2   -1    0    0  501    0  0.00000000000E+00 -0.00000000000E+00 -0.34285269622E+03  0.34285269622E+03  0.00000000000E+00 0.  1.
         25    2    1    2    0    0 -0.16831356926E+03 -0.12590001609E+02 -0.11680393297E+03  0.24037173609E+03  0.12508975585E+03 0.  0.
          5    1    3    3  502    0 -0.18406541103E+03 -0.29641288884E+02 -0.10455296578E+03  0.21379306957E+03  0.41800000000E+01 0. -1.
         -5    1    3    3    0  502  0.15751841771E+02  0.17051287275E+02 -0.12250967190E+02  0.26578666520E+02  0.41800000000E+01 0. -1.
        -11    1    1    2    0    0  0.10851547332E+03  0.50385055139E+02 -0.68671072393E+02  0.13794918598E+03  0.00000000000E+00 0.  1.
         11    1    1    2    0    0  0.59798095945E+02 -0.37795053530E+02 -0.40430163914E+02  0.81479301078E+02  0.00000000000E+00 0. -1.
</event>
<event>
 7    1  0.2856214E-009  0.1457291E+03  0.7561462E-02  0.1205821E+00
          2   -1    0    0  501    0  0.00000000000E+00  0.00000000000E+00  0.62054685889E+03  0.62054685889E+03  0.00000000000E+00 0. -1.
         -2   -1    0    0    0  501 -0.00000000000E+00 -0.00000000000E+00 -0.47475105274E+02  0.47475105274E+02  0.00000000000E+00 0.  1.
         25    2    1    2    0    0 -0.13230737755E+03  0.14275118281E+01  0.29609115131E+03  0.34760072477E+03  0.12509601925E+03 0.  0.
          5    1    3    3  502    0 -0.15425939290E+02 -0.49334260694E+01  0.18633433274E+03  0.18708354885E+03  0.41800000000E+01 0. -1.
         -5    1    3    3    0  502 -0.11688143826E+03  0.63609378975E+01  0.10975681858E+03  0.16051717592E+03  0.41800000000E+01 0. -1.
        -11    1    1    2    0    0  0.62489206975E+02 -0.43453099330E+02  0.10080905001E+03  0.12631523025E+03  0.00000000000E+00 0. -1.
         11    1    1    2    0    0  0.69818170572E+02  0.42025587502E+02  0.17617155229E+03  0.19410600914E+03  0.00000000000E+00 0.  1.
</event>
<event>
 7    1  0.2856214E-009  0.9048949E+02  0.7561462E-02  0.1301671E+00
         -2   -1    0    0    0  501 -0.00000000000E+00  0.00000000000E+00  0.43773432226E+02  0.43773432226E+02  0.00000000000E+00 0. -1.
          2   -1    0    0  501    0  0.00000000000E+00 -0.00000000000E+00 -0.27529948350E+03  0.27529948350E+03  0.00000000000E+00 0.  1.
         25    2    1    2    0    0  0.37136945246E+01  0.17809934062E+02 -0.11303034248E+03  0.16956983481E+03  0.12508830992E+03 0.  0.
          5    1    3    3  502    0 -0.30588626831E+02  0.62486632327E+02 -0.67451784432E+02  0.96992056036E+02  0.41800000000E+01 0. -1.
         -5    1    3    3    0  502  0.34302321355E+02 -0.44676698265E+02 -0.45578558043E+02  0.72577778773E+02  0.41800000000E+01 0. -1.
        -11    1    1    2    0    0  0.23580553768E+02 -0.13489629898E+02  0.67056539171E+00  0.27174662624E+02  0.00000000000E+00 0. -1.
         11    1    1    2    0    0 -0.27294248292E+02 -0.43203041640E+01 -0.11916627419E+03  0.12232841829E+03  0.00000000000E+00 0.  1.
</event>
<event>
 7    1  0.2856214E-009  0.1138064E+03  0.7561462E-02  0.1253679E+00
         -1   -1    0    0    0  501 -0.00000000000E+00  0.00000000000E+00  0.39858104600E+02  0.39858104600E+02  0.00000000000E+00 0.  1.
          1   -1    0    0  501    0  0.00000000000E+00 -0.00000000000E+00 -0.49330185565E+03  0.49330185565E+03  0.00000000000E+00 0. -1.
         25    2    1    2    0    0 -0.37210704942E+02  0.73310310229E+02 -0.31087199141E+03  0.34503093870E+03  0.12508363388E+03 0.  0.
          5    1    3    3  502    0 -0.51288398652E+02  0.87722160154E+02 -0.14063508970E+03  0.17355511538E+03  0.41800000000E+01 0.  1.
         -5    1    3    3    0  502  0.14077693710E+02 -0.14411849925E+02 -0.17023690171E+03  0.17147582332E+03  0.41800000000E+01 0.  1.
        -11    1    1    2    0    0  0.26896997024E+02  0.41295651321E+01 -0.89848894441E+02  0.93879313958E+02  0.00000000000E+00 0. -1.
         11    1    1    2    0    0  0.10313707918E+02 -0.77439875361E+02 -0.52722865193E+02  0.94249707591E+02  0.00000000000E+00 0.  1.
</event>
<event>
 7    1  0.2856214E-009  0.7817532E+02  0.7561462E-02  0.1334311E+00
          2   -1    0    0  501    0  0.00000000000E+00  0.00000000000E+00  0.87479687639E+02  0.87479687639E+02  0.00000000000E+00 0. -1.
         -2   -1    0    0    0  501 -0.00000000000E+00 -0.00000000000E+00 -0.19396614004E+03  0.19396614004E+03  0.00000000000E+00 0.  1.
         25    2    1    2    0    0 -0.15675661876E+02  0.53875586854E+02 -0.10110480122E+02  0.13746853621E+03  0.12508825447E+03 0.  0.
          5    1    3    3  502    0 -0.76487931785E+01  0.53086308051E+01  0.54886617178E+02  0.55827401367E+02  0.41800000000E+01 0. -1.
         -5    1    3    3    0  502 -0.80268686976E+01  0.48566956049E+02 -0.64997097300E+02  0.81641134843E+02  0.41800000000E+01 0. -1.
        -11    1    1    2    0    0 -0.11929974930E+02  0.16949489879E+02  0.62924421167E+00  0.20736572939E+02  0.00000000000E+00 0. -1.
         11    1    1    2    0    0  0.27605636806E+02 -0.70825076732E+02 -0.97005216496E+02  0.12324071853E+03  0.00000000000E+00 0.  1.
</event>
<event>
 7    1  0.3914978E-009  0.1481902E+03  0.7561462E-02  0.1202715E+00
          2   -1    0    0  501    0  0.00000000000E+00  0.00000000000E+00  0.49930421507E+03  0.49930421507E+03  0.00000000000E+00 0. -1.
         -2   -1    0    0    0  501 -0.00000000000E+00 -0.00000000000E+00 -0.64164081830E+02  0.64164081830E+02  0.00000000000E+00 0.  1.
         25    2    1    2    0    0 -0.13035625693E+03  0.37945144953E+02  0.29516669758E+03  0.34814269429E+03  0.12508944192E+03 0.  0.
          5    1    3    3  502    0 -0.12396729516E+03  0.59575718928E+02  0.29465131874E+03  0.32519844494E+03  0.41800000000E+01 0.  1.
         -5    1    3    3    0  502 -0.63889617672E+01 -0.21630573974E+02  0.51537884026E+00  0.22944249351E+02  0.41800000000E+01 0.  1.
        -11    1    1    2    0    0  0.54390262743E+02 -0.18110196053E+02  0.29492058809E+01  0.57401896290E+02  0.00000000000E+00 0.  1.
         11    1    1    2    0    0  0.75965994187E+02 -0.19834948900E+02  0.13702422977E+03  0.15792370631E+03  0.00000000000E+00 0. -1.
</event>
<event>
 7    1  0.2856214E-009  0.9523033E+02  0.7561462E-02  0.1290658E+00
         -1   -1    0    0    0  501 -0.00000000000E+00  0.00000000000E+00  0.36762937493E+03  0.36762937493E+03  0.00000000000E+00 0.  1.
          1   -1    0    0  501    0  0.00000000000E+00 -0.00000000000E+00 -0.46029905749E+02  0.46029905749E+02  0.00000000000E+00 0. -1.
         25    2    1    2    0    0 -0.30040842630E+02 -0.43806173530E+02  0.16592561398E+03  0.21447669287E+03  0.12509000497E+03 0.  0.
          5    1    3    3  502    0 -0.39440851478E+02 -0.14926610185E+02  0.17690714547E+03  0.18191205286E+03  0.41800000000E+01 0.  1.
         -5    1    3    3    0  502  0.94000088476E+01 -0.28879563344E+02 -0.10981531485E+02  0.32564640011E+02  0.41800000000E+01 0.  1.
        -11    1    1    2    0    0  0.48774359284E+02 -0.18651791187E+02  0.37764224126E+02  0.64443495110E+02  0.00000000000E+00 0.  1.
         11    1    1    2    0    0 -0.18733516654E+02  0.62457964716E+02  0.11790963108E+03  0.13473909271E+03  0.00000000000E+00 0. -1.
</event>
<event>
 7    1  0.2856214E-009  0.1798602E+03  0.7561462E-02  0.1167938E+00
          2   -1    0    0  501    0  0.00000000000E+00  0.00000000000E+00  0.12821675992E+04  0.12821675992E+04  0.00000000000E+00 0. -1.
         -2   -1    0    0    0  501 -0.00000000000E+00 -0.00000000000E+00 -0.31670067341E+02  0.31670067341E+02  0.00000000000E+00 0.  1.
         25    2    1    2    0    0 -0.69243111126E+01 -0.15151489515E+03  0.40562815761E+03  0.45076122482E+03  0.12508704976E+03 0.  0.
          5    1    3    3  502    0  0.47999011402E+02 -0.73150792314E+02  0.11374518049E+03  0.14356316379E+03  0.41800000000E+01 0. -1.
         -5    1    3    3    0  502 -0.54923322515E+02 -0.78364102838E+02  0.29188297712E+03  0.30719806104E+03  0.41800000000E+01 0. -1.
        -11    1    1    2    0    0  0.36775383627E+01  0.16369513633E+03  0.78392585158E+03  0.80084290765E+03  0.00000000000E+00 0.  1.
         11    1    1    2    0    0  0.32467727499E+01 -0.12180241182E+02  0.60943522657E+02  0.62233534066E+02  0.00000000000E+00 0. -1.
</event>
<event>
 7    1  0.2856214E-009  0.9869083E+02  0.7561462E-02  0.1283073E+00
          1   -1    0    0  501    0  0.00000000000E+00  0.00000000000E+00  0.42786447461E+03  0.42786447461E+03  0.00000000000E+00 0. -1.
         -1   -1    0    0    0  501 -0.00000000000E+00 -0.00000000000E+00 -0.40221141005E+02  0.40221141005E+02  0.00000000000E+00 0.  1.
         25    2    1    2    0    0  0.17686033251E+02  0.61545538446E+02  0.14918490015E+03  0.20494872352E+03  0.12508875156E+03 0.  0.
          5    1    3    3  502    0 -0.23786626729E+02  0.30277699362E+02  0.14783524005E+03  0.15282432166E+03  0.41800000000E+01 0.  1.
         -5    1    3    3    0  502  0.41472659980E+02  0.31267839083E+02  0.13496600925E+01  0.52124401858E+02  0.41800000000E+01 0.  1.
        -11    1    1    2    0    0 -0.34822642158E+02 -0.76338858609E+02  0.21373398140E+03  0.22961370287E+03  0.00000000000E+00 0.  1.
         11    1    1    2    0    0  0.17136608907E+02  0.14793320163E+02  0.24724452063E+02  0.33523189229E+02  0.00000000000E+00 0. -1.
</event>
<event>
 7    1  0.2856214E-009  0.8541266E+02  0.7561462E-02  0.1314357E+00
          1   -1    0    0  501    0  0.00000000000E+00  0.00000000000E+00  0.47858687578E+02  0.47858687578E+02  0.00000000000E+00 0. -1.
         -1   -1    0    0    0  501 -0.00000000000E+00 -0.00000000000E+00 -0.30730245587E+03  0.30730245587E+03  0.00000000000E+00 0.  1.
         25    2    1    2    0    0 -0.29954299755E+02 -0.18975795361E+02 -0.20725454719E+03  0.24466173717E+03  0.12509027709E+03 0.  0.
          5    1    3    3  502    0  0.13886193354E+02  0.13032006662E+02  0.91333414365E+01  0.21530208761E+02  0.41800000000E+01 0.  1.
         -5    1    3    3    0  502 -0.43840493109E+02 -0.32007802023E+02 -0.21638788863E+03  0.22313152841E+03  0.41800000000E+01 0.  1.
        -11    1    1    2    0    0 -0.21778744162E+02 -0.21950833372E+02 -0.11476240579E+02  0.32982675465E+02  0.00000000000E+00 0.  1.
         11    1    1    2    0    0  0.51733043917E+02  0.40926628733E+02 -0.40712980519E+02  0.77516730808E+02  0.00000000000E+00 0. -1.
</event>
<event>
 7    1  0.2856214E-009  0.1200578E+03  0.7561462E-02  0.1243002E+00
         -1   -1    0    0    0  501 -0.00000000000E+00  0.00000000000E+00  0.78561618414E+02  0.78561618414E+02  0.00000000000E+00 0.  1.
          1   -1    0    0  501    0  0.00000000000E+00 -0.00000000000E+00 -0.23047609977E+03  0.23047609977E+03  0.00000000000E+00 0. -1.
         25    2    1    2    0    0 -0.59056748605E+02  0.45827815534E+02 -0.56136487201E+02  0.15616289386E+03  0.12509059114E+03 0.  0.
          5    1    3    3  502    0 -0.46833464635E+02 -0.38145095626E+02 -0.27570376470E+02  0.66528338238E+02  0.41800000000E+01 0.  1.
         -5    1    3    3    0  502 -0.12223283970E+02  0.83972911160E+02 -0.28566110731E+02  0.89634555624E+02  0.41800000000E+01 0.  1.
        -11    1    1    2    0    0  0.70597432474E+02 -0.35058270379E+02 -0.28574870231E+02  0.83842727786E+02  0.00000000000E+00 0.  1.
         11    1    1    2    0    0 -0.11540683868E+02 -0.10769545155E+02 -0.67203123927E+02  0.69032096539E+02  0.00000000000E+00 0. -1.
</event>
<event>
 7    1  0.2856214E-009  0.6682822E+02  0.7561462E-02  0.1371223E+00
         -2   -1    0    0    0  501 -0.00000000000E+00  0.00000000000E+00  0.10735539289E+03  0.10735539289E+03  0.00000000000E+00 0.  1.
          2   -1    0    0  501    0  0.00000000000E+00 -0.00000000000E+00 -0.12240994953E+03  0.12240994953E+03  0.00000000000E+00 0. -1.
         25    2    1    2    0    0  0.12317591433E+02 -0.18719970423E+02 -0.39299974726E+02  0.13301584585E+03  0.12508623778E+03 0.  0.
          5    1    3    3  502    0  0.28631089736E+02  0.16830078453E+02 -0.73581187315E+02  0.80837209050E+02  0.41800000000E+01 0. -1.
         -5    1    3    3    0  502 -0.16313498304E+02 -0.35550048876E+02  0.34281212589E+02  0.52178636802E+02  0.41800000000E+01 0. -1.
        -11    1    1    2    0    0  0.22692526102E+02  0.97946488932E+01  0.47665776118E+02  0.53692756501E+02  0.00000000000E+00 0.  1.
         11    1    1    2    0    0 -0.35010117534E+02  0.89253215298E+01 -0.23420358032E+02  0.43056740059E+02  0.00000000000E+00 0. -1.
</event>
<event>
 7    1  0.2856214E-009  0.1206891E+03  0.7561462E-02  0.1241965E+00
          1   -1    0    0  501    0  0.00000000000E+00  0.00000000000E+00  0.69540526632E+03  0.69540526632E+03  0.00000000000E+00 0. -1.
         -1   -1    0    0    0  501 -0.00000000000E+00 -0.00000000000E+00 -0.31492513508E+02  0.31492513508E+02  0.00000000000E+00 0.  1.
         25    2    1    2    0    0 -0.48062832315E+02  0.54513987523E+02  0.19028196324E+03  0.23903425791E+03  0.12509332611E+03 0.  0.
          5    1    3    3  502    0 -0.69138487359E+02  0.83565026795E+02  0.14293402051E+03  0.17947381635E+03  0.41800000000E+01 0.  1.
         -5    1    3    3    0  502  0.21075655044E+02 -0.29051039272E+02  0.47347942729E+02  0.59560441561E+02  0.41800000000E+01 0.  1.
        -11    1    1    2    0    0  0.77605288752E+00  0.13690533245E+02  0.10278182469E+02  0.17136919020E+02  0.00000000000E+00 0.  1.
         11    1    1    2    0    0  0.47286779427E+02 -0.68204520768E+02  0.46335260711E+03  0.47072660290E+03  0.00000000000E+00 0. -1.
</event>
<event>
 7    1  0.2856214E-009  0.1411200E+03  0.7561462E-02  0.1211830E+00
          2   -1    0    0  501    0  0.00000000000E+00  0.00000000000E+00  0.32777283945E+03  0.32777283945E+03  0.00000000000E+00 0. -1.
         -2   -1    0    0    0  501 -0.00000000000E+00 -0.00000000000E+00 -0.89522839663E+02  0.89522839663E+02  0.00000000000E+00 0.  1.
         25    2    1    2    0    0  0.15676679502E+02 -0.99232249775E+02  0.23109554420E+03  0.28132174903E+03  0.12507588998E+03 0.  0.
          5    1    3    3  502    0  0.64326358805E+02 -0.90024743969E+02  0.16118482734E+03  0.19555141505E+03  0.41800000000E+01 0.  1.
         -5    1    3    3    0  502 -0.48649679303E+02 -0.92075058063E+01  0.69910716855E+02  0.85770333978E+02  0.41800000000E+01 0.  1.
        -11    1    1    2    0    0 -0.35290629124E+02  0.95564548353E+02  0.29459062923E+02  0.10604644169E+03  0.00000000000E+00 0. -1.
         11    1    1    2    0    0  0.19613949622E+02  0.36677014218E+01 -0.22304607334E+02  0.29927488398E+02  0.00000000000E+00 0.  1.
</event>
<event>
 7    1  0.2856214E-009  0.2065557E+03  0.7561462E-02  0.1144323E+00
         -2   -1    0    0    0  501 -0.00000000000E+00  0.00000000000E+00  0.12564102610E+03  0.12564102610E+03  0.00000000000E+00 0. -1.
          2   -1    0    0  501    0  0.00000000000E+00 -0.00000000000E+00 -0.44365310027E+03  0.44365310027E+03  0.00000000000E+00 0.  1.
         25    2    1    2    0    0 -0.18047422866E+03  0.98432818021E+01 -0.38001809169E+02  0.22306865292E+03  0.12509056324E+03 0.  0.
          5    1    3    3  502    0 -0.12653276392E+03 -0.51824844697E+02 -0.33861237804E+02  0.14092696938E+03  0.41800000000E+01 0.  1.
         -5    1    3    3    0  502 -0.53941464733E+02  0.61668126499E+02 -0.41405713657E+01  0.82141683539E+02  0.41800000000E+01 0.  1.
        -11    1    1    2    0    0  0.43495849887E+02 -0.33969443263E+02 -0.13223873370E+03  0.14329303794E+03  0.00000000000E+00 0.  1.
         11    1    1    2    0    0  0.13697837877E+03  0.24126161461E+02 -0.14777153131E+03  0.20293243551E+03  0.00000000000E+00 0. -1.
</event>
<event>
 7    1  0.2856214E-009  0.7175398E+02  0.7561462E-02  0.1354228E+00
          3   -1    0    0  501    0  0.00000000000E+00  0.00000000000E+00  0.24873061724E+03  0.24873061724E+03  0.00000000000E+00 0. -1.
         -3   -1    0    0    0  501 -0.00000000000E+00 -0.00000000000E+00 -0.52326132092E+02  0.52326132092E+02  0.00000000000E+00 0.  1.
         25    2    1    2    0    0  0.48279907301E+01  0.76937287592E+01  0.15494284653E+03  0.19934234017E+03  0.12509028715E+03 0.  0.
          5    1    3    3  502    0  0.12537161960E+02 -0.25858193717E+02 -0.10061397666E+02  0.30733218760E+02  0.41800000000E+01 0.  1.
         -5    1    3    3    0  502 -0.77091712303E+01  0.33551922477E+02  0.16500424419E+03  0.16860912142E+03  0.41800000000E+01 0.  1.
        -11    1    1    2    0    0 -0.95278940394E+01  0.35287862232E+02 -0.65166091813E+01  0.37127889530E+02  0.00000000000E+00 0.  1.
         11    1    1    2    0    0  0.46999033094E+01 -0.42981590991E+02  0.47978247804E+02  0.64586519627E+02  0.00000000000E+00 0. -1.
</event>
<event>
 7    1  0.2856214E-009  0.5956249E+02  0.7561462E-02  0.1399677E+00
          1   -1    0    0  501    0  0.00000000000E+00  0.00000000000E+00  0.93955344923E+02  0.93955344923E+02  0.00000000000E+00 0. -1.
         -1   -1    0    0    0  501 -0.00000000000E+00 -0.00000000000E+00 -0.12680845185E+03  0.12680845185E+03  0.00000000000E+00 0.  1.
         25    2    1    2    0    0 -0.65375800776E+01  0.54827597521E+01 -0.28474553315E+02  0.12857452332E+03  0.12509119575E+03 0.  0.
          5    1    3    3  502    0  0.14303691454E+02 -0.81374889754E+01 -0.74321530242E+02  0.76236320566E+02  0.41800000000E+01 0. -1.
         -5    1    3    3    0  502 -0.20841271532E+02  0.13620248728E+02  0.45846976926E+02  0.52338202756E+02  0.41800000000E+01 0. -1.
        -11    1    1    2    0    0 -0.26833392601E+02  0.21180598479E+02 -0.27267541733E+02  0.43728337981E+02  0.00000000000E+00 0.  1.
         11    1    1    2    0    0  0.33370972679E+02 -0.26663358232E+02  0.22888988119E+02  0.48460935472E+02  0.00000000000E+00 0. -1.
</event>
<event>
 7    1  0.2856214E-009  0.1485655E+03  0.7561462E-02  0.1202247E+00
          2   -1    0    0  501    0  0.00000000000E+00  0.00000000000E+00  0.12192585213E+04  0.12192585213E+04  0.00000000000E+00 0. -1.
         -2   -1    0    0    0  501 -0.00000000000E+00 -0.00000000000E+00 -0.20008880949E+02  0.20008880949E+02  0.00000000000E+00 0.  1.
         25    2    1    2    0    0 -0.18563905993E+02 -0.10445712755E+03  0.48155352793E+03  0.50872131928E+03  0.12509064845E+03 0.  0.
          5    1    3    3  502    0 -0.39980880332E+02  0.12761477773E+02  0.16940049638E+03  0.17457183817E+03  0.41800000000E+01 0. -1.
         -5    1    3    3    0  502  0.21416974340E+02 -0.11721860532E+03  0.31215303155E+03  0.33414948111E+03  0.41800000000E+01 0. -1.
        -11    1    1    2    0    0 -0.32101073242E+02  0.61181124298E+02  0.40210987076E+03  0.40800239832E+03  0.00000000000E+00 0. -1.
         11    1    1    2    0    0  0.50664979235E+02  0.43276003254E+02  0.31558624165E+03  0.32254368463E+03  0.00000000000E+00 0.  1.
</event>
<event>
 7    1  0.4038948E-009  0.1207250E+03  0.7561462E-02  0.1241906E+00
          2   -1    0    0  501    0  0.00000000000E+00  0.00000000000E+00  0.51758214617E+03  0.51758214617E+03  0.00000000000E+00 0. -1.
         -2   -1    0    0    0  501 -0.00000000000E+00 -0.00000000000E+00 -0.40248104867E+02  0.40248104867E+02  0.00000000000E+00 0.  1.
         25    2    1    2    0    0 -0.46014690201E+02  0.76022654817E+02  0.32294585084E+03  0.35754199847E+03  0.12508182256E+03 0.  0.
          5    1    3    3  502    0 -0.25348319589E+02 -0.24086110115E+02  0.26890152178E+02  0.44308359151E+02  0.41800000000E+01 0.  1.
         -5    1    3    3    0  502 -0.20666370612E+02  0.10010876493E+03  0.29605569866E+03  0.31323363932E+03  0.41800000000E+01 0.  1.
        -11    1    1    2    0    0  0.19859873147E+02  0.35443237192E+01 -0.45062446887E+01  0.20670825654E+02  0.00000000000E+00 0.  1.
         11    1    1    2    0    0  0.26154817055E+02 -0.79566978536E+02  0.15889443515E+03  0.17961742691E+03  0.00000000000E+00 0. -1.
</event>
<event>
 7    1  0.2856214E-009  0.1173483E+03  0.7561462E-02  0.1247537E+00
         -1   -1    0    0    0  501 -0.00000000000E+00  0.00000000000E+00  0.29447734375E+02  0.29447734375E+02  0.00000000000E+00 0.  1.
          1   -1    0    0  501    0  0.00000000000E+00 -0.00000000000E+00 -0.58392235417E+03  0.58392235417E+03  0.00000000000E+00 0. -1.
         25    2    1    2    0    0 -0.68923072884E+02  0.20425997991E+02 -0.26462248965E+03  0.30139831439E+03  0.12509304745E+03 0.  0.
          5    1    3    3  502    0 -0.73092580597E+02 -0.24259167302E+02 -0.79095103526E+02  0.11047416141E+03  0.41800000000E+01 0.  1.
         -5    1    3    3    0  502  0.41695077131E+01  0.44685165293E+02 -0.18552738613E+03  0.19092415299E+03  0.41800000000E+01 0.  1.
        -11    1    1    2    0    0  0.79815952178E+01 -0.45795142034E+02 -0.15515731131E+03  0.16197126952E+03  0.00000000000E+00 0. -1.
         11    1    1    2    0    0  0.60941477666E+02  0.25369144043E+02 -0.13469481884E+03  0.15000050464E+03  0.00000000000E+00 0.  1.
</event>
<event>
 7    1  0.2856214E-009  0.1117070E+03  0.7561462E-02  0.1257441E+00
         -3   -1    0    0    0  501 -0.00000000000E+00  0.00000000000E+00  0.25097335522E+02  0.25097335522E+02  0.00000000000E+00 0.  1.
          3   -1    0    0  501    0  0.00000000000E+00 -0.00000000000E+00 -0.61680767632E+03  0.61680767632E+03  0.00000000000E+00 0. -1.
         25    2    1    2    0    0 -0.60707316564E+02 -0.25516485807E+02 -0.29308653906E+03  0.32539934025E+03  0.12509413224E+03 0.  0.
          5    1    3    3  502    0  0.16957367427E+02  0.27251164897E+02 -0.15511936584E+03  0.15846030531E+03  0.41800000000E+01 0. -1.
         -5    1    3    3    0  502 -0.77664683991E+02 -0.52767650704E+02 -0.13796717322E+03  0.16693903494E+03  0.41800000000E+01 0. -1.
        -11    1    1    2    0    0  0.50919551907E+02  0.49586513978E+02 -0.15457982121E+03  0.17013683981E+03  0.00000000000E+00 0.  1.
         11    1    1    2    0    0  0.97877646573E+01 -0.24070028171E+02 -0.14404398052E+03  0.14636883179E+03  0.00000000000E+00 0. -1.
</event>
<event>
 7    1  0.2856214E-009  0.7653385E+02  0.7561462E-02  0.1339186E+00
         -3   -1    0    0    0  501 -0.00000000000E+00  0.00000000000E+00  0.28040556115E+03  0.28040556115E+03  0.00000000000E+00 0.  1.
          3   -1    0    0  501    0  0.00000000000E+00 -0.00000000000E+00 -0.48954410614E+02  0.48954410614E+02  0.00000000000E+00 0. -1.
         25    2    1    2    0    0 -0.35381444602E+02 -0.14961096336E+02  0.10724689807E+03  0.16918877606E+03  0.12508902339E+03 0.  0.
          5    1    3    3  502    0 -0.71065215804E+02 -0.45095541920E+00  0.10924136283E+03  0.13039024508E+03  0.41800000000E+01 0. -1.
         -5    1    3    3    0  502  0.35683771203E+02 -0.14510140917E+02 -0.19944647606E+01  0.38798530982E+02  0.41800000000E+01 0. -1.
        -11    1    1    2    0    0  0.40328256823E+01  0.10773956250E+02 -0.14156709006E+02  0.18241552185E+02  0.00000000000E+00 0. -1.
         11    1    1    2    0    0  0.31348618919E+02  0.41871400867E+01  0.13836096148E+03  0.14192964352E+03  0.00000000000E+00 0.  1.
</event>
<event>
 7    1  0.2856214E-009  0.1114210E+03  0.7561462E-02  0.1257961E+00
          2   -1    0    0  501    0  0.00000000000E+00  0.00000000000E+00  0.62129730828E+03  0.62129730828E+03  0.00000000000E+00 0. -1.
         -2   -1    0    0    0  501 -0.00000000000E+00 -0.00000000000E+00 -0.29150882568E+02  0.29150882568E+02  0.00000000000E+00 0.  1.
         25    2    1    2    0    0  0.76243105750E+01  0.66309160351E+02  0.22792621972E+03  0.26842577340E+03  0.12508796639E+03 0.  0.
          5    1    3    3  502    0 -0.43152476189E+02  0.27824237406E+02  0.18361900479E+03  0.19070850980E+03  0.41800000000E+01 0.  1.
         -5    1    3    3    0  502  0.50776786764E+02  0.38484922945E+02  0.44307214927E+02  0.77717263608E+02  0.41800000000E+01 0.  1.
        -11    1    1    2    0    0 -0.43819779119E+02 -0.18631305152E+02  0.95461184781E+02  0.10667772201E+03  0.00000000000E+00 0.  1.
         11    1    1    2    0    0  0.36195468544E+02 -0.47677855200E+02  0.26875902121E+03  0.27534469543E+03  0.00000000000E+00 0. -1.
</event>
<event>
 7    1  0.2856214E-009  0.9705484E+02  0.7561462E-02  0.1286614E+00
          1   -1    0    0  501    0  0.00000000000E+00  0.00000000000E+00  0.33491616349E+02  0.33491616349E+02  0.00000000000E+00 0. -1.
         -1   -1    0    0    0  501 -0.00000000000E+00 -0.00000000000E+00 -0.35539304442E+03  0.35539304442E+03  0.00000000000E+00 0.  1.
         25    2    1    2    0    0  0.10864641576E+02 -0.43771666804E+01 -0.19365531534E+03  0.23084127529E+03  0.12509241862E+03 0.  0.
          5    1    3    3  502    0  0.15912959022E+02  0.49087860845E+02 -0.15794602045E+03  0.16621449432E+03  0.41800000000E+01 0. -1.
         -5    1    3    3    0  502 -0.50483174462E+01 -0.53465027526E+02 -0.35709294890E+02  0.64626780973E+02  0.41800000000E+01 0. -1.
        -11    1    1    2    0    0  0.19759323885E+02  0.38100537019E+02 -0.85050795242E+02  0.95266571120E+02  0.00000000000E+00 0.  1.
         11    1    1    2    0    0 -0.30623965461E+02 -0.33723370339E+02 -0.43195317496E+02  0.62776814360E+02  0.00000000000E+00 0. -1.
</event>
<event>
 7    1  0.2856214E-009  0.1144059E+03  0.7561462E-02  0.1252622E+00
          4   -1    0    0  501    0  0.00000000000E+00  0.00000000000E+00  0.47189252250E+02  0.47189252250E+02  0.00000000000E+00 0.  1.
         -4   -1    0    0    0  501 -0.00000000000E+00 -0.00000000000E+00 -0.48747253940E+03  0.48747253940E+03  0.00000000000E+00 0. -1.
         25    2    1    2    0    0 -0.95805833419E+02 -0.26388103978E+02 -0.17933193597E+03  0.24017165867E+03  0.12508953841E+03 0.  0.
          5    1    3    3  502    0 -0.41489973964E+02 -0.42856939089E+02 -0.88580242171E+01  0.60448921915E+02  0.41800000000E+01 0.  1.
         -5    1    3    3    0  502 -0.54315859455E+02  0.16468835111E+02 -0.17047391175E+03  0.17972273675E+03  0.41800000000E+01 0.  1.
        -11    1    1    2    0    0  0.29598297336E+02  0.34437177930E+02 -0.30798074761E+02  0.54868021998E+02  0.00000000000E+00 0. -1.
         11    1    1    2    0    0  0.66207536083E+02 -0.80490739517E+01 -0.23015327642E+03  0.23962211098E+03  0.00000000000E+00 0.  1.
</event>
<event>
 7    1  0.3258878E-009  0.1293325E+03  0.7561462E-02  0.1228450E+00
          1   -1    0    0  501    0  0.00000000000E+00  0.00000000000E+00  0.71166913369E+03  0.71166913369E+03  0.00000000000E+00 0. -1.
         -1   -1    0    0    0  501 -0.00000000000E+00 -0.00000000000E+00 -0.32450508173E+02  0.32450508173E+02  0.00000000000E+00 0.  1.
         25    2    1    2    0    0  0.77329010432E+02  0.31122515098E+02  0.20643639840E+03  0.25536356154E+03  0.12508467203E+03 0.  0.
          5    1    3    3  502    0  0.30852559591E+02  0.69787686080E+02  0.60907683218E+02  0.97721133010E+02  0.41800000000E+01 0.  1.
         -5    1    3    3    0  502  0.46476450841E+02 -0.38665170982E+02  0.14552871519E+03  0.15764242853E+03  0.41800000000E+01 0.  1.
        -11    1    1    2    0    0 -0.60660408831E+02  0.23107025549E+02  0.29833747179E+03  0.30531764918E+03  0.00000000000E+00 0. -1.
         11    1    1    2    0    0 -0.16668601600E+02 -0.54229540647E+02  0.17444475532E+03  0.18343843114E+03  0.00000000000E+00 0.  1.
</event>
<event>
 7    1  0.2856214E-009  0.1085399E+03  0.7561462E-02  0.1263298E+00
          4   -1    0    0  501    0  0.00000000000E+00  0.00000000000E+00  0.80443218068E+03  0.80443218068E+03  0.00000000000E+00 0. -1.
         -4   -1    0    0    0  501 -0.00000000000E+00 -0.00000000000E+00 -0.23320487041E+02  0.23320487041E+02  0.00000000000E+00 0.  1.
         25    2    1    2    0    0  0.41601897122E+02 -0.62674270860E+02  0.54818721469E+03  0.56728901089E+03  0.12509523355E+03 0.  0.
          5    1    3    3  502    0  0.51441866847E+02 -0.18051484138E+02  0.49068875778E+03  0.49372568412E+03  0.41800000000E+01 0.  1.
         -5    1    3    3    0  502 -0.98399697244E+01 -0.44622786722E+02  0.57498456906E+02  0.73563326771E+02  0.41800000000E+01 0.  1.
        -11    1    1    2    0    0  0.25502412326E+02  0.36416488458E+02  0.92547300157E+02  0.10267198465E+03  0.00000000000E+00 0.  1.
         11    1    1    2    0    0 -0.67104309448E+02  0.26257782402E+02  0.14037717879E+03  0.15779167218E+03  0.00000000000E+00 0. -1.
</event>
<event>
 7    1  0.2856214E-009  0.2359315E+03  0.7561462E-02  0.1122533E+00
          2   -1    0    0  501    0  0.00000000000E+00  0.00000000000E+00  0.95137928831E+03  0.95137928831E+03  0.00000000000E+00 0. -1.
         -2   -1    0    0    0  501 -0.00000000000E+00 -0.00000000000E+00 -0.64032801815E+02  0.64032801815E+02  0.00000000000E+00 0.  1.
         25    2    1    2    0    0 -0.20879711047E+03  0.58007469557E+02  0.55361509552E+03  0.60753428016E+03  0.12508847955E+03 0.  0.
          5    1    3    3  502    0 -0.54095734515E+02 -0.28009748830E+02  0.72004065536E+02  0.94408433818E+02  0.41800000000E+01 0. -1.
         -5    1    3    3    0  502 -0.15470137595E+03  0.86017218387E+02  0.48161102998E+03  0.51312584634E+03  0.41800000000E+01 0. -1.
        -11    1    1    2    0    0  0.17223822782E+03 -0.88246985310E+01  0.23139745329E+03  0.28859775435E+03  0.00000000000E+00 0. -1.
         11    1    1    2    0    0  0.36558882649E+02 -0.49182771026E+02  0.10233393769E+03  0.11928005563E+03  0.00000000000E+00 0.  1.
</event>
<event>
 7    1  0.2856214E-009  0.1253424E+03  0.7561462E-02  0.1234535E+00
          1   -1    0    0  501    0  0.00000000000E+00  0.00000000000E+00  0.26578579705E+03  0.26578579705E+03  0.00000000000E+00 0. -1.
         -1   -1    0    0    0  501 -0.00000000000E+00 -0.00000000000E+00 -0.69180843761E+02  0.69180843761E+02  0.00000000000E+00 0.  1.
         25    2    1    2    0    0  0.69739740222E+00 -0.79445845047E+02  0.88024891400E+02  0.17235910054E+03  0.12508856612E+03 0.  0.
          5    1    3    3  502    0  0.61172048380E+02 -0.53442815409E+02  0.57928861404E+02  0.99856794488E+02  0.41800000000E+01 0.  1.
         -5    1    3    3    0  502 -0.60474650978E+02 -0.26003029638E+02  0.30096029996E+02  0.72502306051E+02  0.41800000000E+01 0.  1.
        -11    1    1    2    0    0  0.24076143936E+02  0.74275736532E+02  0.36455021159E+02  0.86171423987E+02  0.00000000000E+00 0.  1.
         11    1    1    2    0    0 -0.24773541338E+02  0.51701085144E+01  0.72125040734E+02  0.76436116289E+02  0.00000000000E+00 0. -1.
</event>
<event>
 7    1  0.2856214E-009  0.9191115E+02  0.7561462E-02  0.1298288E+00
         -1   -1    0    0    0  501 -0.00000000000E+00  0.00000000000E+00  0.11881008632E+04  0.11881008632E+04  0.00000000000E+00 0.  1.
          1   -1    0    0  501    0  0.00000000000E+00 -0.00000000000E+00 -0.12814844020E+02  0.12814844020E+02  0.00000000000E+00 0. -1.
         25    2    1    2    0    0 -0.17618692139E+02  0.20683770740E+02  0.91799719403E+03  0.92687960862E+03  0.12509485975E+03 0.  0.
          5    1    3    3  502    0  0.37051189685E+02 -0.10001566911E+02  0.66775230999E+03  0.66886728273E+03  0.41800000000E+01 0.  1.
         -5    1    3    3    0  502 -0.54669881823E+02  0.30685337651E+02  0.25024488404E+03  0.25801232589E+03  0.41800000000E+01 0.  1.
        -11    1    1    2    0    0 -0.59290206359E+01 -0.46827248930E+02  0.20914718958E+03  0.21440730267E+03  0.00000000000E+00 0.  1.
         11    1    1    2    0    0  0.23547712775E+02  0.26143478190E+02  0.48141635535E+02  0.59628795903E+02  0.00000000000E+00 0. -1.
</event>
<event>
 7    1  0.2856214E-009  0.9660938E+02  0.7561462E-02  0.1287592E+00
          1   -1    0    0  501    0  0.00000000000E+00  0.00000000000E+00  0.18955898072E+03  0.18955898072E+03  0.00000000000E+00 0. -1.
         -1   -1    0    0    0  501 -0.00000000000E+00 -0.00000000000E+00 -0.73880979915E+02  0.73880979915E+02  0.00000000000E+00 0.  1.
         25    2    1    2    0    0  0.15636325654E+02  0.37558460047E+01  0.11482940232E+03  0.17056912940E+03  0.12509770264E+03 0.  0.
          5    1    3    3  502    0  0.27418406553E+02 -0.44215920835E+02  0.10874596658E+03  0.12062327437E+03  0.41800000000E+01 0. -1.
         -5    1    3    3    0  502 -0.11782080899E+02  0.47971766840E+02  0.60834357487E+01  0.49945855029E+02  0.41800000000E+01 0. -1.
        -11    1    1    2    0    0  0.37790970046E+02 -0.41769559446E+01  0.83235089175E+01  0.38921525903E+02  0.00000000000E+00 0. -1.
         11    1    1    2    0    0 -0.53427295700E+02  0.42110993993E+00 -0.74749104413E+01  0.53949305329E+02  0.00000000000E+00 0.  1.
</event>
<event>
 7    1  0.2856214E-009  0.1100745E+03  0.7561462E-02  0.1260432E+00
         -4   -1    0    0    0  501 -0.00000000000E+00  0.00000000000E+00  0.10709547399E+03  0.10709547399E+03  0.00000000000E+00 0.  1.
          4   -1    0    0  501    0  0.00000000000E+00 -0.00000000000E+00 -0.18412110565E+03  0.18412110565E+03  0.00000000000E+00 0. -1.
         25    2    1    2    0    0 -0.20879296269E+02 -0.58029915405E+02  0.24397044263E+02  0.14158417767E+03  0.12508975779E+03 0.  0.
          5    1    3    3  502    0  0.84930868365E+01 -0.87406867484E+02  0.40547307506E+02  0.96817609728E+02  0.41800000000E+01 0.  1.
         -5    1    3    3    0  502 -0.29372383105E+02  0.29376952079E+02 -0.16150263243E+02  0.44766567945E+02  0.41800000000E+01 0.  1.
        -11    1    1    2    0    0 -0.23518450572E+02  0.29406184391E+02 -0.28059328628E+01  0.37758634204E+02  0.00000000000E+00 0.  1.
         11    1    1    2    0    0  0.44397746841E+02  0.28623731014E+02 -0.98616743064E+02  0.11187376777E+03  0.00000000000E+00 0. -1.
</event>
<event>
 7    1  0.2856214E-009  0.9331233E+02  0.7561462E-02  0.1295023E+00
         -1   -1    0    0    0  501 -0.00000000000E+00  0.00000000000E+00  0.89548728890E+02  0.89548728890E+02  0.00000000000E+00 0.  1.
          1   -1    0    0  501    0  0.00000000000E+00 -0.00000000000E+00 -0.13447961556E+03  0.13447961556E+03  0.00000000000E+00 0. -1.
         25    2    1    2    0    0 -0.20456991295E+01 -0.17448940431E+02 -0.28640847872E+02  0.12951957031E+03  0.12508545286E+03 0.  0.
          5    1    3    3  502    0 -0.41828983901E+02  0.12311617231E+02  0.29589204482E+02  0.52860507328E+02  0.41800000000E+01 0.  1.
         -5    1    3    3    0  502  0.39783284772E+02 -0.29760557662E+02 -0.58230052354E+02  0.76659062978E+02  0.41800000000E+01 0.  1.
        -11    1    1    2    0    0 -0.28109409799E+02  0.44379748275E+02 -0.67154351583E+01  0.52960344085E+02  0.00000000000E+00 0.  1.
         11    1    1    2    0    0  0.30155108929E+02 -0.26930807843E+02 -0.95746036408E+01  0.41548430061E+02  0.00000000000E+00 0. -1.
</event>
<event>
 7    1  0.2856214E-009  0.1044291E+03  0.7561462E-02  0.1271249E+00
         -1   -1    0    0    0  501 -0.00000000000E+00  0.00000000000E+00  0.18552711172E+03  0.18552711172E+03  0.00000000000E+00 0.  1.
          1   -1    0    0  501    0  0.00000000000E+00 -0.00000000000E+00 -0.67776929975E+02  0.67776929975E+02  0.00000000000E+00 0. -1.
         25    2    1    2    0    0  0.23236607185E+02  0.17731304236E+02  0.70548342374E+02  0.14655624808E+03  0.12508927283E+03 0.  0.
          5    1    3    3  502    0  0.67801784327E+02  0.32127191438E+02  0.20510131355E+02  0.77893364774E+02  0.41800000000E+01 0. -1.
         -5    1    3    3    0  502 -0.44565177141E+02 -0.14395887202E+02  0.50038211019E+02  0.68662883307E+02  0.41800000000E+01 0. -1.
        -11    1    1    2    0    0  0.30538026013E+02 -0.17171811978E+01 -0.39276298514E+01  0.30837412671E+02  0.00000000000E+00 0. -1.
         11    1    1    2    0    0 -0.53774633198E+02 -0.16014123039E+02  0.51129469227E+02  0.75910380948E+02  0.00000000000E+00 0.  1.
</event>
<event>
 7    1  0.2856214E-009  0.9924199E+02  0.7561462E-02  0.1281898E+00
         -1   -1    0    0    0  501 -0.00000000000E+00  0.00000000000E+00  0.10541919895E+03  0.10541919895E+03  0.00000000000E+00 0.  1.
          1   -1    0    0  501    0  0.00000000000E+00 -0.00000000000E+00 -0.11403713380E+03  0.11403713380E+03  0.00000000000E+00 0. -1.
         25    2    1    2    0    0  0.13679577186E+02  0.61010917481E+01 -0.14872733377E+02  0.12685714399E+03  0.12508869905E+03 0.  0.
          5    1    3    3  502    0  0.59210442079E+02 -0.28174613365E+02  0.60978536021E+01  0.65987434471E+02  0.41800000000E+01 0.  1.
         -5    1    3    3    0  502 -0.45530864893E+02  0.34275705114E+02 -0.20970586979E+02  0.60869709521E+02  0.41800000000E+01 0.  1.
        -11    1    1    2    0    0  0.25421680930E+01  0.33106890783E+02  0.29326567512E+02  0.44300975136E+02  0.00000000000E+00 0.  1.
         11    1    1    2    0    0 -0.16221745279E+02 -0.39207982532E+02 -0.23071768986E+02  0.48298213613E+02  0.00000000000E+00 0. -1.
</event>
<event>
 7    1  0.2856214E-009  0.1231120E+03  0.7561462E-02  0.1238050E+00
         -4   -1    0    0    0  501 -0.00000000000E+00  0.00000000000E+00  0.11194382782E+03  0.11194382782E+03  0.00000000000E+00 0.  1.
          4   -1    0    0  501    0  0.00000000000E+00 -0.00000000000E+00 -0.15213930787E+03  0.15213930787E+03  0.00000000000E+00 0. -1.
         25    2    1    2    0    0 -0.31903392000E+02 -0.51914224341E+02 -0.61266332714E+02  0.15203193711E+03  0.12508890146E+03 0.  0.
          5    1    3    3  502    0 -0.69419126904E+02 -0.67852394078E+02 -0.34574435693E+02  0.10313014383E+03  0.41800000000E+01 0. -1.
         -5    1    3    3    0  502  0.37515734905E+02  0.15938169736E+02 -0.26691897020E+02  0.48901793285E+02  0.41800000000E+01 0. -1.
        -11    1    1    2    0    0  0.40499672442E+02  0.74016585712E+02  0.25032436583E+02  0.88007393495E+02  0.00000000000E+00 0.  1.
         11    1    1    2    0    0 -0.85962804425E+01 -0.22102361371E+02 -0.39615839215E+01  0.24043805081E+02  0.00000000000E+00 0. -1.
</event>
<event>
 7    1  0.2856214E-009  0.1162013E+03  0.7561462E-02  0.1249499E+00
          1   -1    0    0  501    0  0.00000000000E+00  0.00000000000E+00  0.34869956329E+03  0.34869956329E+03  0.00000000000E+00 0. -1.
         -1   -1    0    0    0  501 -0.00000000000E+00 -0.00000000000E+00 -0.45334606581E+02  0.45334606581E+02  0.00000000000E+00 0.  1.
         25    2    1    2    0    0 -0.41411994236E+02 -0.43105639827E+02  0.13382866366E+03  0.19269056665E+03  0.12508594568E+03 0.  0.
          5    1    3    3  502    0  0.71761462668E+01  0.33320995794E+02  0.80475605222E+02  0.87496178612E+02  0.41800000000E+01 0. -1.
         -5    1    3    3    0  502 -0.48588140502E+02 -0.76426635621E+02  0.53353058440E+02  0.10519438804E+03  0.41800000000E+01 0. -1.
        -11    1    1    2    0    0  0.46215205199E+02  0.67906040679E+02  0.11589560821E+03  0.14205234090E+03  0.00000000000E+00 0.  1.
         11    1    1    2    0    0 -0.48032109633E+01 -0.24800400852E+02  0.53640684833E+02  0.59291262319E+02  0.00000000000E+00 0. -1.
</event>
<event>
 7    1  0.2856214E-009  0.9310144E+02  0.7561462E-02  0.1295510E+00
          1   -1    0    0  501    0  0.00000000000E+00  0.00000000000E+00  0.26865092777E+03  0.26865092777E+03  0.00000000000E+00 0. -1.
         -1   -1    0    0    0  501 -0.00000000000E+00 -0.00000000000E+00 -0.64117152480E+02  0.64117152480E+02  0.00000000000E+00 0.  1.
         25    2    1    2    0    0  0.46697978590E+02  0.86644398988E+01  0.18688327330E+03  0.22984780842E+03  0.12509549740E+03 0.  0.
          5    1    3    3  502    0  0.45341919059E+02  0.43265711970E+02  0.30877960394E+02  0.69990944374E+02  0.41800000000E+01 0.  1.
         -5    1    3    3    0  502  0.13560595312E+01 -0.34601272071E+02  0.15600531291E+03  0.15985686404E+03  0.41800000000E+01 0.  1.
        -11    1    1    2    0    0 -0.20957960709E+01 -0.36091243478E+02 -0.17187078905E+02  0.40029562804E+02  0.00000000000E+00 0.  1.
         11    1    1    2    0    0 -0.44602182519E+02  0.27426803580E+02  0.34837580899E+02  0.62890709035E+02  0.00000000000E+00 0. -1.
</event>
<event>
 7    1  0.2856214E-009  0.9755310E+02  0.7561462E-02  0.1285527E+00
         -2   -1    0    0    0  501 -0.00000000000E+00  0.00000000000E+00  0.98962320484E+02  0.98962320484E+02  0.00000000000E+00 0.  1.
          2   -1    0    0  501    0  0.00000000000E+00 -0.00000000000E+00 -0.17607572798E+03  0.17607572798E+03  0.00000000000E+00 0. -1.
         25    2    1    2    0    0  0.63874828919E+02 -0.35224011283E+02 -0.57034331784E+02  0.15563140738E+03  0.12508994852E+03 0.  0.
          5    1    3    3  502    0  0.60324972102E+02 -0.24286323246E+02  0.27127068936E+02  0.70585253594E+02  0.41800000000E+01 0.  1.
         -5    1    3    3    0  502  0.35498568171E+01 -0.10937688038E+02 -0.84161400720E+02  0.85046153788E+02  0.41800000000E+01 0.  1.
        -11    1    1    2    0    0  0.33427120839E+01 -0.26343023242E+02 -0.45333300660E+01  0.26938442403E+02  0.00000000000E+00 0.  1.
         11    1    1    2    0    0 -0.67217541003E+02  0.61567034525E+02 -0.15545745642E+02  0.92468198676E+02  0.00000000000E+00 0. -1.
</event>
<event>
 7    1  0.2856214E-009  0.1061762E+03  0.7561462E-02  0.1267819E+00
          2   -1    0    0  501    0  0.00000000000E+00  0.00000000000E+00  0.69734152708E+03  0.69734152708E+03  0.00000000000E+00 0.  1.
         -2   -1    0    0    0  501 -0.00000000000E+00 -0.00000000000E+00 -0.38302927101E+02  0.38302927101E+02  0.00000000000E+00 0. -1.
         25    2    1    2    0    0 -0.64906920159E+02  0.14482405726E+02  0.12371830897E+03  0.18808582514E+03  0.12508960502E+03 0.  0.
          5    1    3    3  502    0 -0.22288086261E+02 -0.29029969787E+02  0.12153641717E+03  0.12699634260E+03  0.41800000000E+01 0. -1.
         -5    1    3    3    0  502 -0.42618833898E+02  0.43512375513E+02  0.21818918002E+01  0.61089482544E+02  0.41800000000E+01 0. -1.
        -11    1    1    2    0    0 -0.77609154827E+01  0.28838112244E+02  0.16677958768E+03  0.16943228557E+03  0.00000000000E+00 0. -1.
         11    1    1    2    0    0  0.72667835642E+02 -0.43320517970E+02  0.36854070333E+03  0.37812634347E+03  0.00000000000E+00 0.  1.
</event>
<event>
 7    1  0.2856214E-009  0.1170793E+03  0.7561462E-02  0.1247994E+00
          1   -1    0    0  501    0  0.00000000000E+00  0.00000000000E+00  0.98072943501E+02  0.98072943501E+02  0.00000000000E+00 0. -1.
         -1   -1    0    0    0  501 -0.00000000000E+00 -0.00000000000E+00 -0.43566604908E+03  0.43566604908E+03  0.00000000000E+00 0.  1.
         25    2    1    2    0    0  0.18936732884E+02  0.10200624005E+03 -0.35798418562E+03  0.39314602946E+03  0.12508897022E+03 0.  0.
          5    1    3    3  502    0 -0.25013845677E+01  0.39855908307E+02 -0.13412251748E+02  0.42333334958E+02  0.41800000000E+01 0.  1.
         -5    1    3    3    0  502  0.21438117452E+02  0.62150331739E+02 -0.34457193387E+03  0.35081269451E+03  0.41800000000E+01 0.  1.
        -11    1    1    2    0    0  0.17653873898E+02 -0.86678917948E+02 -0.12142162351E+02  0.89287883763E+02  0.00000000000E+00 0.  1.
         11    1    1    2    0    0 -0.36590606782E+02 -0.15327322098E+02  0.32533242389E+02  0.51305079356E+02  0.00000000000E+00 0. -1.
</event>
<event>
 7    1  0.2856214E-009  0.1365228E+03  0.7561462E-02  0.1218086E+00
         -2   -1    0    0    0  501 -0.00000000000E+00  0.00000000000E+00  0.26488818022E+02  0.26488818022E+02  0.00000000000E+00 0.  1.
          2   -1    0    0  501    0  0.00000000000E+00 -0.00000000000E+00 -0.18320594402E+04  0.18320594402E+04  0.00000000000E+00 0. -1.
         25    2    1    2    0    0  0.41553460636E+02  0.91685069301E+02 -0.16245016833E+04  0.16324174111E+04  0.12509213710E+03 0.  0.
          5    1    3    3  502    0  0.54952526261E+02  0.75538642197E+01 -0.10649947592E+04  0.10664465061E+04  0.41800000000E+01 0.  1.
         -5    1    3    3    0  502 -0.13399065625E+02  0.84131205081E+02 -0.55950692415E+03  0.56597090490E+03  0.41800000000E+01 0.  1.
        -11    1    1    2    0    0 -0.25619231866E+01 -0.93073456939E+02 -0.10293984281E+03  0.13880145199E+03  0.00000000000E+00 0.  1.
         11    1    1    2    0    0 -0.38991537450E+02  0.13883876379E+01 -0.78129096033E+02  0.87329395165E+02  0.00000000000E+00 0. -1.
</event>
<event>
 7    1  0.2856214E-009  0.1192854E+03  0.7561462E-02  0.1244281E+00
          1   -1    0    0  501    0  0.00000000000E+00  0.00000000000E+00  0.12961495116E+03  0.12961495116E+03  0.00000000000E+00 0. -1.
         -1   -1    0    0    0  501 -0.00000000000E+00 -0.00000000000E+00 -0.15852676955E+03  0.15852676955E+03  0.00000000000E+00 0.  1.
         25    2    1    2    0    0  0.35397219578E+02  0.68264589705E+02 -0.69188244626E+02  0.16231914142E+03  0.12508986016E+03 0.  0.
          5    1    3    3  502    0  0.18621758044E+02 -0.32928845053E+02 -0.40823144387E+02  0.55812903767E+02  0.41800000000E+01 0.  1.
         -5    1    3    3    0  502  0.16775461533E+02  0.10119343476E+03 -0.28365100238E+02  0.10650623765E+03  0.41800000000E+01 0.  1.
        -11    1    1    2    0    0 -0.47890631496E+02 -0.27520626464E+02  0.57614439223E+02  0.79814291158E+02  0.00000000000E+00 0.  1.
         11    1    1    2    0    0  0.12493411918E+02 -0.40743963241E+02 -0.17338012987E+02  0.46008288126E+02  0.00000000000E+00 0. -1.
</event>
<event>
 7    1  0.2856214E-009  0.1691297E+03  0.7561462E-02  0.1178758E+00
          1   -1    0    0  501    0  0.00000000000E+00  0.00000000000E+00  0.93676443647E+03  0.93676443647E+03  0.00000000000E+00 0. -1.
         -1   -1    0    0    0  501 -0.00000000000E+00 -0.00000000000E+00 -0.34435997434E+02  0.34435997434E+02  0.00000000000E+00 0.  1.
         25    2    1    2    0    0 -0.10349247605E+03 -0.94940658445E+02  0.55666229786E+03  0.58757589340E+03  0.12509234759E+03 0.  0.
          5    1    3    3  502    0 -0.11114999196E+03 -0.10887406124E+03  0.54653933893E+03  0.56826983320E+03  0.41800000000E+01 0.  1.
         -5    1    3    3    0  502  0.76575159089E+01  0.13933402791E+02  0.10122958930E+02  0.19306060208E+02  0.41800000000E+01 0.  1.
        -11    1    1    2    0    0  0.79137276322E+02  0.11149583531E+03  0.29142565722E+03  0.32190517777E+03  0.00000000000E+00 0. -1.
         11    1    1    2    0    0  0.24355199732E+02 -0.16555176861E+02  0.54240483959E+02  0.61719362723E+02  0.00000000000E+00 0.  1.
</event>
<event>
 7    1  0.2856214E-009  0.9073304E+02  0.7561462E-02  0.1301086E+00
          1   -1    0    0  501    0  0.00000000000E+00  0.00000000000E+00  0.31647621597E+02  0.31647621597E+02  0.00000000000E+00 0. -1.
         -1   -1    0    0    0  501 -0.00000000000E+00 -0.00000000000E+00 -0.42812514724E+03  0.42812514724E+03  0.00000000000E+00 0.  1.
         25    2    1    2    0    0 -0.29912018984E+02 -0.16930006846E+02 -0.20491009912E+03  0.24252207499E+03  0.12508978426E+03 0.  0.
          5    1    3    3  502    0  0.18223092400E+02 -0.48610973434E+02 -0.16307377810E+03  0.17118889374E+03  0.41800000000E+01 0. -1.
         -5    1    3    3    0  502 -0.48135111384E+02  0.31680966587E+02 -0.41836321017E+02  0.71333181256E+02  0.41800000000E+01 0. -1.
        -11    1    1    2    0    0  0.48900490373E+02  0.49389485295E+01 -0.18823660535E+03  0.19454734839E+03  0.00000000000E+00 0.  1.
         11    1    1    2    0    0 -0.18988471389E+02  0.11991058317E+02 -0.33308211781E+01  0.22703345458E+02  0.00000000000E+00 0. -1.
</event>
<event>
 7    1  0.2856214E-009  0.1255716E+03  0.7561462E-02  0.1234179E+00
          2   -1    0    0  501    0  0.00000000000E+00  0.00000000000E+00  0.39228670548E+03  0.39228670548E+03  0.00000000000E+00 0. -1.
         -2   -1    0    0    0  501 -0.00000000000E+00 -0.00000000000E+00 -0.50456941778E+02  0.50456941778E+02  0.00000000000E+00 0.  1.
         25    2    1    2    0    0 -0.67525743351E+02  0.58244694069E+02  0.17173783332E+03  0.23041926486E+03  0.12508790438E+03 0.  0.
          5    1    3    3  502    0  0.45462758114E+01  0.59150564172E+02  0.20629091227E+02  0.62948309512E+02  0.41800000000E+01 0. -1.
         -5    1    3    3    0  502 -0.72072019163E+02 -0.90587010236E+00  0.15110874210E+03  0.16747095535E+03  0.41800000000E+01 0. -1.
        -11    1    1    2    0    0  0.25966596551E+00  0.17882542998E+02  0.59616928333E+02  0.62241713620E+02  0.00000000000E+00 0. -1.
         11    1    1    2    0    0  0.67266077386E+02 -0.76127237068E+02  0.11047500204E+03  0.15008266877E+03  0.00000000000E+00 0.  1.
</event>
<event>
 7    1  0.2856214E-009  0.1222624E+03  0.7561462E-02  0.1239411E+00
          1   -1    0    0  501    0  0.00000000000E+00  0.00000000000E+00  0.20590902742E+03  0.20590902742E+03  0.00000000000E+00 0. -1.
         -1   -1    0    0    0  501 -0.00000000000E+00 -0.00000000000E+00 -0.74928623712E+02  0.74928623712E+02  0.00000000000E+00 0.  1.
         25    2    1    2    0    0  0.45591617377E+02 -0.29118154099E+02  0.91045207107E+02  0.16390254796E+03  0.12509337719E+03 0.  0.
          5    1    3    3  502    0 -0.41759270953E+02  0.19816650995E+01  0.39831333619E+02  0.57894483717E+02  0.41800000000E+01 0. -1.
         -5    1    3    3    0  502  0.87350888329E+02 -0.31099819199E+02  0.51213873488E+02  0.10600806424E+03  0.41800000000E+01 0. -1.
        -11    1    1    2    0    0 -0.38023353371E+02 -0.31025992681E+02  0.14275674822E+02  0.51109514917E+02  0.00000000000E+00 0. -1.
         11    1    1    2    0    0 -0.75682640055E+01  0.60144146780E+02  0.25659521783E+02  0.65825588262E+02  0.00000000000E+00 0.  1.
</event>
<event>
 7    1  0.2856214E-009  0.1078710E+03  0.7561462E-02  0.1264564E+00
          2   -1    0    0  501    0  0.00000000000E+00  0.00000000000E+00  0.59373932049E+03  0.59373932049E+03  0.00000000000E+00 0. -1.
         -2   -1    0    0    0  501 -0.00000000000E+00 -0.00000000000E+00 -0.25617519163E+02  0.25617519163E+02  0.00000000000E+00 0.  1.
         25    2    1    2    0    0 -0.24047931447E+02  0.54522068449E+02  0.29956156860E+03  0.33005357970E+03  0.12508906081E+03 0.  0.
          5    1    3    3  502    0 -0.17541050989E+02 -0.37533905485E+02  0.13570087107E+03  0.14194605081E+03  0.41800000000E+01 0.  1.
         -5    1    3    3    0  502 -0.65068804588E+01  0.92055973934E+02  0.16386069753E+03  0.18810752889E+03  0.41800000000E+01 0.  1.
        -11    1    1    2    0    0  0.17368105295E+02 -0.66105774225E+02  0.26726809111E+03  0.27586927518E+03  0.00000000000E+00 0. -1.
         11    1    1    2    0    0  0.66798261528E+01  0.11583705776E+02  0.12921416247E+01  0.13433984774E+02  0.00000000000E+00 0.  1.
</event>
<event>
 7    1  0.2856214E-009  0.1044098E+03  0.7561462E-02  0.1271287E+00
         -3   -1    0    0    0  501 -0.00000000000E+00  0.00000000000E+00  0.74755998710E+03  0.74755998710E+03  0.00000000000E+00 0.  1.
          3   -1    0    0  501    0  0.00000000000E+00 -0.00000000000E+00 -0.20845069930E+02  0.20845069930E+02  0.00000000000E+00 0. -1.
         25    2    1    2    0    0  0.93575204714E+01 -0.49242047795E+02  0.28241472451E+03  0.31291833178E+03  0.12508982087E+03 0.  0.
          5    1    3    3  502    0  0.28484780257E+02  0.23414405877E+02  0.25035054227E+02  0.44764309991E+02  0.41800000000E+01 0. -1.
         -5    1    3    3    0  502 -0.19127259786E+02 -0.72656453671E+02  0.25737967028E+03  0.26815402179E+03  0.41800000000E+01 0. -1.
        -11    1    1    2    0    0 -0.46042145417E+02  0.23902154614E+02  0.17523656886E+03  0.18275406210E+03  0.00000000000E+00 0. -1.
         11    1    1    2    0    0  0.36684624945E+02  0.25339893180E+02  0.26906362381E+03  0.27273266315E+03  0.00000000000E+00 0.  1.
</event>
<event>
 7    1  0.2856214E-009  0.1158119E+03  0.7561462E-02  0.1250171E+00
          3   -1    0    0  501    0  0.00000000000E+00  0.00000000000E+00  0.50907933632E+02  0.50907933632E+02  0.00000000000E+00 0. -1.
         -3   -1    0    0    0  501 -0.00000000000E+00 -0.00000000000E+00 -0.37436184306E+03  0.37436184306E+03  0.00000000000E+00 0.  1.
         25    2    1    2    0    0  0.73700638490E+02  0.15733635013E+02 -0.11567044212E+03  0.18628706040E+03  0.12507552241E+03 0.  0.
          5    1    3    3  502    0  0.10354244036E+03  0.18044434162E+02 -0.55445482323E+02  0.11890463603E+03  0.41800000000E+01 0. -1.
         -5    1    3    3    0  502 -0.29841801866E+02 -0.23107991491E+01 -0.60224959802E+02  0.67382424373E+02  0.41800000000E+01 0. -1.
        -11    1    1    2    0    0  0.73631332341E+01 -0.13197531119E+02  0.85326909921E+00  0.15136664983E+02  0.00000000000E+00 0. -1.
         11    1    1    2    0    0 -0.81063771724E+02 -0.25361038942E+01 -0.20863673641E+03  0.22384605131E+03  0.00000000000E+00 0.  1.
</event>
<event>
 7    1  0.2856214E-009  0.1252648E+03  0.7561462E-02  0.1234656E+00
          4   -1    0    0  501    0  0.00000000000E+00  0.00000000000E+00  0.92378929043E+02  0.92378929043E+02  0.00000000000E+00 0.  1.
         -4   -1    0    0    0  501 -0.00000000000E+00 -0.00000000000E+00 -0.24205125132E+03  0.24205125132E+03  0.00000000000E+00 0. -1.
         25    2    1    2    0    0 -0.38885423646E+01  0.94871233245E+02 -0.39501263818E+02  0.16193397497E+03  0.12508633318E+03 0.  0.
          5    1    3    3  502    0 -0.10536754252E+02  0.11501705601E+03 -0.61643110773E+02  0.13098584607E+03  0.41800000000E+01 0.  1.
         -5    1    3    3    0  502  0.66482118870E+01 -0.20145822767E+02  0.22141846955E+02  0.30948128907E+02  0.41800000000E+01 0.  1.
        -11    1    1    2    0    0  0.12631427994E+02  0.46263187708E+01 -0.58528377829E+02  0.60054365452E+02  0.00000000000E+00 0. -1.
         11    1    1    2    0    0 -0.87428856297E+01 -0.99497552016E+02 -0.51642680632E+02  0.11244183994E+03  0.00000000000E+00 0.  1.
</event>
<event>
 7    1  0.2856214E-009  0.1795195E+03  0.7561462E-02  0.1168269E+00
         -2   -1    0    0    0  501 -0.00000000000E+00  0.00000000000E+00  0.43097164389E+02  0.43097164389E+02  0.00000000000E+00 0.  1.
          2   -1    0    0  501    0  0.00000000000E+00 -0.00000000000E+00 -0.10700329346E+04  0.10700329346E+04  0.00000000000E+00 0. -1.
         25    2    1    2    0    0  0.14215087670E+03  0.40170001133E+02 -0.24856678664E+03  0.31504513462E+03  0.12508992240E+03 0.  0.
          5    1    3    3  502    0  0.11757853013E+03  0.77744067746E+02 -0.14589163710E+03  0.20290562583E+03  0.41800000000E+01 0. -1.
         -5    1    3    3    0  502  0.24572346571E+02 -0.37574066612E+02 -0.10267514954E+03  0.11213950879E+03  0.41800000000E+01 0. -1.
        -11    1    1    2    0    0 -0.38289096085E+02 -0.56031403141E+02 -0.38451656619E+03  0.39045942515E+03  0.00000000000E+00 0.  1.
         11    1    1    2    0    0 -0.10386178062E+03  0.15861402008E+02 -0.39385241734E+03  0.40762553918E+03  0.00000000000E+00 0. -1.
</event>
<event>
 7    1  0.2856214E-009  0.1106957E+03  0.7561462E-02  0.1259287E+00
          1   -1    0    0  501    0  0.00000000000E+00  0.00000000000E+00  0.67231545381E+03  0.67231545381E+03  0.00000000000E+00 0.  1.
         -1   -1    0    0    0  501 -0.00000000000E+00 -0.00000000000E+00 -0.19272717539E+02  0.19272717539E+02  0.00000000000E+00 0. -1.
         25    2    1    2    0    0  0.87593785736E+01 -0.29155914899E+02  0.39195990988E+03  0.41255976845E+03  0.12508476128E+03 0.  0.
          5    1    3    3  502    0  0.34474746988E+02  0.38000756704E+02  0.22338157916E+03  0.22923648924E+03  0.41800000000E+01 0. -1.
         -5    1    3    3    0  502 -0.25715368414E+02 -0.67156671603E+02  0.16857833072E+03  0.18332327921E+03  0.41800000000E+01 0. -1.
        -11    1    1    2    0    0 -0.34203492901E+02  0.52954671527E+02  0.15333742105E+03  0.16579035213E+03  0.00000000000E+00 0. -1.
         11    1    1    2    0    0  0.25444114327E+02 -0.23798756629E+02  0.10774540533E+03  0.11323805077E+03  0.00000000000E+00 0.  1.
</event>
<event>
 7    1  0.2856214E-009  0.6597054E+02  0.7561462E-02  0.1374357E+00
         -1   -1    0    0    0  501 -0.00000000000E+00  0.00000000000E+00  0.27706175171E+02  0.27706175171E+02  0.00000000000E+00 0.  1.
          1   -1    0    0  501    0  0.00000000000E+00 -0.00000000000E+00 -0.43411408079E+03  0.43411408079E+03  0.00000000000E+00 0. -1.
         25    2    1    2    0    0  0.12844101674E+02  0.67296311823E+01 -0.27951332661E+03  0.30656856061E+03  0.12508526579E+03 0.  0.
          5    1    3    3  502    0  0.28216695493E+02  0.27722461630E+02 -0.17878671871E+02  0.43610045761E+02  0.41800000000E+01 0.  1.
         -5    1    3    3    0  502 -0.15372593819E+02 -0.20992830448E+02 -0.26163465474E+03  0.26295851485E+03  0.41800000000E+01 0.  1.
        -11    1    1    2    0    0  0.15996913466E+02  0.20597535221E+02 -0.10827905700E+03  0.11137555335E+03  0.00000000000E+00 0. -1.
         11    1    1    2    0    0 -0.28841015140E+02 -0.27327166403E+02 -0.18615522008E+02  0.43876142008E+02  0.00000000000E+00 0.  1.
</event>
<event>
 7    1  0.3121924E-009  0.9911087E+02  0.7561462E-02  0.1282177E+00
          1   -1    0    0  501    0  0.00000000000E+00  0.00000000000E+00  0.92762193179E+03  0.92762193179E+03  0.00000000000E+00 0. -1.
         -1   -1    0    0    0  501 -0.00000000000E+00 -0.00000000000E+00 -0.15391103301E+02  0.15391103301E+02  0.00000000000E+00 0.  1.
         25    2    1    2    0    0 -0.46307609236E+02 -0.18049594070E+02  0.54514545091E+03  0.56151702681E+03  0.12509047219E+03 0.  0.
          5    1    3    3  502    0 -0.19298857815E+02 -0.53511545530E+02  0.10847201664E+03  0.12255440511E+03  0.41800000000E+01 0. -1.
         -5    1    3    3    0  502 -0.27008751421E+02  0.35461951460E+02  0.43667343427E+03  0.43896262170E+03  0.41800000000E+01 0. -1.
        -11    1    1    2    0    0  0.60868697711E+00  0.43902449054E+02  0.98734979247E+02  0.10805735357E+03  0.00000000000E+00 0.  1.
         11    1    1    2    0    0  0.45698922259E+02 -0.25852854983E+02  0.26835039834E+03  0.27343865472E+03  0.00000000000E+00 0. -1.
</event>
<event>
 7    1  0.2856214E-009  0.9784977E+02  0.7561462E-02  0.1284884E+00
         -1   -1    0    0    0  501 -0.00000000000E+00  0.00000000000E+00  0.33184796669E+03  0.33184796669E+03  0.00000000000E+00 0.  1.
          1   -1    0    0  501    0  0.00000000000E+00 -0.00000000000E+00 -0.51281918548E+02  0.51281918548E+02  0.00000000000E+00 0. -1.
         25    2    1    2    0    0 -0.53099464172E+02 -0.45839354402E+02  0.13249417465E+03  0.19525376253E+03  0.12509406844E+03 0.  0.
          5    1    3    3  502    0 -0.31477466800E+02 -0.49926498752E+02 -0.17097048722E+01  0.59193594962E+02  0.41800000000E+01 0. -1.
         -5    1    3    3    0  502 -0.21621997372E+02  0.40871443502E+01  0.13420387952E+03  0.13606016757E+03  0.41800000000E+01 0. -1.
        -11    1    1    2    0    0  0.78704064388E+02  0.37681060422E+02  0.12508055244E+03  0.15251011987E+03  0.00000000000E+00 0.  1.
         11    1    1    2    0    0 -0.25604600216E+02  0.81582939797E+01  0.22991321057E+02  0.35366002839E+02  0.00000000000E+00 0. -1.
</event>
<event>
 7    1  0.2856214E-009  0.1637316E+03  0.7561462E-02  0.1184547E+00
          2   -1    0    0  501    0  0.00000000000E+00  0.00000000000E+00  0.27251169679E+03  0.27251169679E+03  0.00000000000E+00 0. -1.
         -2   -1    0    0    0  501 -0.00000000000E+00 -0.00000000000E+00 -0.19808928619E+03  0.19808928619E+03  0.00000000000E+00 0.  1.
         25    2    1    2    0    0  0.71330759445E+02 -0.11912448674E+03 -0.11433955240E+03  0.21909026213E+03  0.12509312185E+03 0.  0.
          5    1    3    3  502    0 -0.92842934876E+01 -0.10413824898E+03 -0.68416135832E+02  0.12501685106E+03  0.41800000000E+01 0.  1.
         -5    1    3    3    0  502  0.80615052932E+02 -0.14986237758E+02 -0.45923416565E+02  0.94073411070E+02  0.41800000000E+01 0.  1.
        -11    1    1    2    0    0 -0.61422494142E+02  0.11417904013E+03  0.19828157880E+03  0.23690749351E+03  0.00000000000E+00 0. -1.
         11    1    1    2    0    0 -0.99082653031E+01  0.49454466118E+01 -0.95196158112E+01  0.14603227338E+02  0.00000000000E+00 0.  1.
</event>
<event>
 7    1  0.2856214E-009  0.1368714E+03  0.7561462E-02  0.1217602E+00
         -1   -1    0    0    0  501 -0.00000000000E+00  0.00000000000E+00  0.44843937376E+02  0.44843937376E+02  0.00000000000E+00 0.  1.
          1   -1    0    0  501    0  0.00000000000E+00 -0.00000000000E+00 -0.71260721826E+03  0.71260721826E+03  0.00000000000E+00 0. -1.
         25    2    1    2    0    0 -0.10257644086E+03  0.73543227821E+02 -0.21633819123E+03  0.27996678499E+03  0.12509458476E+03 0.  0.
          5    1    3    3  502    0 -0.51995320787E+02  0.63624461369E+02 -0.21277821373E+03  0.22813072153E+03  0.41800000000E+01 0.  1.
         -5    1    3    3    0  502 -0.50581120074E+02  0.99187664519E+01 -0.35599775037E+01  0.51836063466E+02  0.41800000000E+01 0.  1.
        -11    1    1    2    0    0 -0.40994921010E+01 -0.19962004766E+02 -0.15764392067E+02  0.25764384855E+02  0.00000000000E+00 0.  1.
         11    1    1    2    0    0  0.10667593296E+03 -0.53581223055E+02 -0.43566069758E+03  0.45171998578E+03  0.00000000000E+00 0. -1.
</event>
<event>
 7    1  0.2856214E-009  0.9069257E+02  0.7561462E-02  0.1301183E+00
          2   -1    0    0  501    0  0.00000000000E+00  0.00000000000E+00  0.50636239502E+03  0.50636239502E+03  0.00000000000E+00 0. -1.
         -2   -1    0    0    0  501 -0.00000000000E+00 -0.00000000000E+00 -0.32720836595E+02  0.32720836595E+02  0.00000000000E+00 0.  1.
         25    2    1    2    0    0 -0.38632779529E+01  0.22152785745E+02  0.40474379028E+03  0.42422824294E+03  0.12508555273E+03 0.  0.
          5    1    3    3  502    0  0.56915947832E+02  0.30176796232E+02  0.23493204801E+03  0.24364031631E+03  0.41800000000E+01 0. -1.
         -5    1    3    3    0  502 -0.60779225785E+02 -0.80240104874E+01  0.16981174227E+03  0.18058792663E+03  0.41800000000E+01 0. -1.
        -11    1    1    2    0    0  0.18645490712E+02 -0.32407733301E+02  0.83626382734E+02  0.91603970387E+02  0.00000000000E+00 0. -1.
         11    1    1    2    0    0 -0.14782212759E+02  0.10254947556E+02 -0.14728614595E+02  0.23251018285E+02  0.00000000000E+00 0.  1.
</event>
<event>
 7    1  0.2856214E-009  0.1307682E+03  0.7561462E-02  0.1226320E+00
          2   -1    0    0  501    0  0.00000000000E+00  0.00000000000E+00  0.94542213739E+03  0.94542213739E+03  0.00000000000E+00 0. -1.
         -2   -1    0    0    0  501 -0.00000000000E+00 -0.00000000000E+00 -0.18619553103E+02  0.18619553103E+02  0.00000000000E+00 0.  1.
         25    2    1    2    0    0 -0.66624896891E+02  0.39602289928E+02  0.50441330268E+03  0.52544029887E+03  0.12509000557E+03 0.  0.
          5    1    3    3  502    0 -0.10289336522E+03  0.26440055573E+02  0.40494080262E+03  0.41866531641E+03  0.41800000000E+01 0.  1.
         -5    1    3    3    0  502  0.36268468326E+02  0.13162234355E+02  0.99472500069E+02  0.10677498245E+03  0.41800000000E+01 0.  1.
        -11    1    1    2    0    0  0.42778265030E+02  0.23601173791E+02  0.21525642663E+03  0.22073134025E+03  0.00000000000E+00 0. -1.
         11    1    1    2    0    0  0.23846631861E+02 -0.63203463719E+02  0.20713285497E+03  0.21787005137E+03  0.00000000000E+00 0.  1.
</event>
<event>
 7    1  0.2856214E-009  0.8480933E+02  0.7561462E-02  0.1315932E+00
          3   -1    0    0  501    0  0.00000000000E+00  0.00000000000E+00  0.23957245015E+02  0.23957245015E+02  0.00000000000E+00 0. -1.
         -3   -1    0    0    0  501 -0.00000000000E+00 -0.00000000000E+00 -0.69598693413E+03  0.69598693413E+03  0.00000000000E+00 0.  1.
         25    2    1    2    0    0 -0.41462517967E+02  0.34293333890E+02 -0.25730535425E+03  0.29112389868E+03  0.12510757737E+03 0.  0.
          5    1    3    3  502    0 -0.36241578372E+02  0.22828613757E+01 -0.25578843993E+03  0.25838703888E+03  0.41800000000E+01 0.  1.
         -5    1    3    3    0  502 -0.52209395944E+01  0.32010472514E+02 -0.15169143183E+01  0.32736859805E+02  0.41800000000E+01 0.  1.
        -11    1    1    2    0    0  0.38191271450E+02  0.21933750381E+02 -0.10257071228E+03  0.11162622290E+03  0.00000000000E+00 0. -1.
         11    1    1    2    0    0  0.32712465168E+01 -0.56227084271E+02 -0.31215362259E+03  0.31719405757E+03  0.00000000000E+00 0.  1.
</event>
<event>
 7    1  0.2856214E-009  0.1040220E+03  0.7561462E-02  0.1272059E+00
          1   -1    0    0  501    0  0.00000000000E+00  0.00000000000E+00  0.96862287977E+02  0.96862287977E+02  0.00000000000E+00 0. -1.
         -1   -1    0    0    0  501 -0.00000000000E+00 -0.00000000000E+00 -0.13119832613E+03  0.13119832613E+03  0.00000000000E+00 0.  1.
         25    2    1    2    0    0  0.89014886164E+01  0.32620512031E+02 -0.13721197392E+02  0.13030033116E+03  0.12508625320E+03 0.  0.
          5    1    3    3  502    0 -0.42246524266E+01 -0.45825144752E+02 -0.20116847913E+02  0.50397931997E+02  0.41800000000E+01 0. -1.
         -5    1    3    3    0  502  0.13126141043E+02  0.78445656783E+02  0.63956505211E+01  0.79902399165E+02  0.41800000000E+01 0. -1.
        -11    1    1    2    0    0 -0.30407042850E+02 -0.47243383784E+02  0.10555418338E+02  0.57165920114E+02  0.00000000000E+00 0. -1.
         11    1    1    2    0    0  0.21505554233E+02  0.14622871753E+02 -0.31170259095E+02  0.40594362826E+02  0.00000000000E+00 0.  1.
</event>
<event>
 7    1  0.2856214E-009  0.1514950E+03  0.7561462E-02  0.1198648E+00
         -2   -1    0    0    0  501 -0.00000000000E+00  0.00000000000E+00  0.36832222323E+02  0.36832222323E+02  0.00000000000E+00 0.  1.
          2   -1    0    0  501    0  0.00000000000E+00 -0.00000000000E+00 -0.86887165160E+03  0.86887165160E+03  0.00000000000E+00 0. -1.
         25    2    1    2    0    0 -0.44393478088E+02  0.12547531105E+03 -0.31389213928E+03  0.36316734867E+03  0.12508962172E+03 0.  0.
          5    1    3    3  502    0  0.10210652341E+02  0.65125485624E+01  0.83749580628E+01  0.15306306954E+02  0.41800000000E+01 0.  1.
         -5    1    3    3    0  502 -0.54604130429E+02  0.11896276248E+03 -0.32226709734E+03  0.34786104172E+03  0.41800000000E+01 0.  1.
        -11    1    1    2    0    0  0.53103029647E+02 -0.25583128034E+02 -0.23033637894E+03  0.23775886032E+03  0.00000000000E+00 0.  1.
         11    1    1    2    0    0 -0.87095515587E+01 -0.99892183013E+02 -0.28781091106E+03  0.30477766493E+03  0.00000000000E+00 0. -1.
</event>
<event>
 7    1  0.2856214E-009  0.7818221E+02  0.7561462E-02  0.1334291E+00
         -3   -1    0    0    0  501 -0.00000000000E+00  0.00000000000E+00  0.11525164317E+02  0.11525164317E+02  0.00000000000E+00 0.  1.
          3   -1    0    0  501    0  0.00000000000E+00 -0.00000000000E+00 -0.11923991343E+04  0.11923991343E+04  0.00000000000E+00 0. -1.
         25    2    1    2    0    0  0.36193714334E+02 -0.18803883211E+02 -0.76855837394E+03  0.77973867679E+03  0.12508740519E+03 0.  0.
          5    1    3    3  502    0  0.61661490511E+01  0.12011912511E+02 -0.50528877956E+01  0.15010380121E+02  0.41800000000E+01 0.  1.
         -5    1    3    3    0  502  0.30027565283E+02 -0.30815795722E+02 -0.76350548615E+03  0.76472829667E+03  0.41800000000E+01 0.  1.
        -11    1    1    2    0    0  0.29188963923E+02 -0.46136666383E+01 -0.14621739091E+03  0.14917374749E+03  0.00000000000E+00 0.  1.
         11    1    1    2    0    0 -0.65382678256E+02  0.23417549849E+02 -0.26609820514E+03  0.27501187436E+03  0.00000000000E+00 0. -1.
</event>
<event>
 7    1  0.2865261E-009  0.9233475E+02  0.7561462E-02  0.1297294E+00
          1   -1    0    0  501    0  0.00000000000E+00  0.00000000000E+00  0.56805986980E+03  0.56805986980E+03  0.00000000000E+00 0. -1.
         -1   -1    0    0    0  501 -0.00000000000E+00 -0.00000000000E+00 -0.41737686092E+02  0.41737686092E+02  0.00000000000E+00 0.  1.
         25    2    1    2    0    0 -0.97084437244E+01  0.16584659324E+02  0.49479230387E+03  0.51072361280E+03  0.12509948000E+03 0.  0.
          5    1    3    3  502    0  0.89236063073E+01  0.67557456576E+02  0.21139459072E+03  0.22214586666E+03  0.41800000000E+01 0.  1.
         -5    1    3    3    0  502 -0.18632050032E+02 -0.50972797252E+02  0.28339771315E+03  0.28857774614E+03  0.41800000000E+01 0.  1.
        -11    1    1    2    0    0  0.11742547924E+02  0.21141728149E+02 -0.22575186681E+02  0.33083215602E+02  0.00000000000E+00 0.  1.
         11    1    1    2    0    0 -0.20341041995E+01 -0.37726387473E+02  0.54105066518E+02  0.65990727489E+02  0.00000000000E+00 0. -1.
</event>
<event>
 7    1  0.2856214E-009  0.2118337E+03  0.7561462E-02  0.1140122E+00
          3   -1    0    0  501    0  0.00000000000E+00  0.00000000000E+00  0.24304469875E+03  0.24304469875E+03  0.00000000000E+00 0. -1.
         -3   -1    0    0    0  501 -0.00000000000E+00 -0.00000000000E+00 -0.29326454089E+03  0.29326454089E+03  0.00000000000E+00 0.  1.
         25    2    1    2    0    0  0.17242484533E+03  0.60452344255E+02  0.13597349739E+03  0.25985337655E+03  0.12510064789E+03 0.  0.
          5    1    3    3  502    0  0.40776499864E+02  0.77223726305E+02  0.40744282118E+02  0.96456185758E+02  0.41800000000E+01 0. -1.
         -5    1    3    3    0  502  0.13164834547E+03 -0.16771382050E+02  0.95229215267E+02  0.16339719080E+03  0.41800000000E+01 0. -1.
        -11    1    1    2    0    0 -0.57069075836E+02 -0.66888568896E+02 -0.67795758405E+02  0.11102803666E+03  0.00000000000E+00 0. -1.
         11    1    1    2    0    0 -0.11535576949E+03  0.64362246405E+01 -0.11839758112E+03  0.16542782644E+03  0.00000000000E+00 0.  1.
</event>
<event>
 7    1  0.3373471E-009  0.1564251E+03  0.7561462E-02  0.1192793E+00
          1   -1    0    0  501    0  0.00000000000E+00  0.00000000000E+00  0.83196049469E+03  0.83196049469E+03  0.00000000000E+00 0. -1.
         -1   -1    0    0    0  501 -0.00000000000E+00 -0.00000000000E+00 -0.43555660563E+02  0.43555660563E+02  0.00000000000E+00 0.  1.
         25    2    1    2    0    0  0.13858305250E+03 -0.98874419915E-01  0.24922117267E+03  0.31138598322E+03  0.12507903670E+03 0.  0.
          5    1    3    3  502    0 -0.67188762258E+01  0.45636485343E+01 -0.10376578299E+02  0.13824469714E+02  0.41800000000E+01 0. -1.
         -5    1    3    3    0  502  0.14530192873E+03 -0.46625229542E+01  0.25959775096E+03  0.29756151350E+03  0.41800000000E+01 0. -1.
        -11    1    1    2    0    0 -0.10160302810E+03  0.34967784128E+02  0.27792865902E+03  0.29797694667E+03  0.00000000000E+00 0.  1.
         11    1    1    2    0    0 -0.36980024402E+02 -0.34868909708E+02  0.26125500244E+03  0.26615322536E+03  0.00000000000E+00 0. -1.
</event>
<event>
 7    1  0.2856214E-009  0.1437251E+03  0.7561462E-02  0.1208403E+00
         -1   -1    0    0    0  501 -0.00000000000E+00  0.00000000000E+00  0.20601686390E+02  0.20601686390E+02  0.00000000000E+00 0.  1.
          1   -1    0    0  501    0  0.00000000000E+00 -0.00000000000E+00 -0.13111201907E+04  0.13111201907E+04  0.00000000000E+00 0. -1.
         25    2    1    2    0    0 -0.11985859135E+03  0.23321683574E+02 -0.61797159991E+03  0.64221937333E+03  0.12508733884E+03 0.  0.
          5    1    3    3  502    0  0.58596831024E+01  0.12608483289E+02 -0.29639494970E+03  0.29675031313E+03  0.41800000000E+01 0.  1.
         -5    1    3    3    0  502 -0.12571827445E+03  0.10713200285E+02 -0.32157665021E+03  0.34546906020E+03  0.41800000000E+01 0.  1.
        -11    1    1    2    0    0  0.43460830061E+01  0.22132211857E+02 -0.52308151596E+02  0.56963724971E+02  0.00000000000E+00 0.  1.
         11    1    1    2    0    0  0.11551250835E+03 -0.45453895431E+02 -0.62023875281E+03  0.63253877879E+03  0.00000000000E+00 0. -1.
</event>
<event>
 7    1  0.2856214E-009  0.1303228E+03  0.7561462E-02  0.1226978E+00
         -1   -1    0    0    0  501 -0.00000000000E+00  0.00000000000E+00  0.16451799816E+03  0.16451799816E+03  0.00000000000E+00 0.  1.
          1   -1    0    0  501    0  0.00000000000E+00 -0.00000000000E+00 -0.18074411520E+03  0.18074411520E+03  0.00000000000E+00 0. -1.
         25    2    1    2    0    0 -0.91480746298E+02  0.61469208178E+02  0.65422132566E+02  0.17910388667E+03  0.12510378209E+03 0.  0.
          5    1    3    3  502    0 -0.10301754801E+03  0.70488071655E+02  0.14239407072E+02  0.12570368554E+03  0.41800000000E+01 0.  1.
         -5    1    3    3    0  502  0.11536801711E+02 -0.90188634774E+01  0.51182725494E+02  0.53400201133E+02  0.41800000000E+01 0.  1.
        -11    1    1    2    0    0  0.85138701776E+02 -0.32927091593E+02 -0.13856153462E+02  0.92329761668E+02  0.00000000000E+00 0.  1.
         11    1    1    2    0    0  0.63420445220E+01 -0.28542116585E+02 -0.67792096139E+02  0.73828465017E+02  0.00000000000E+00 0. -1.
</event>
<event>
 7    1  0.2856214E-009  0.9807561E+02  0.7561462E-02  0.1284396E+00
          1   -1    0    0  501    0  0.00000000000E+00  0.00000000000E+00  0.30860119995E+03  0.30860119995E+03  0.00000000000E+00 0. -1.
         -1   -1    0    0    0  501 -0.00000000000E+00 -0.00000000000E+00 -0.43037064511E+02  0.43037064511E+02  0.00000000000E+00 0.  1.
         25    2    1    2    0    0  0.32965978397E+02  0.72089847164E+01  0.18792795734E+03  0.22826207868E+03  0.12509170324E+03 0.  0.
          5    1    3    3  502    0  0.21699816433E+02  0.51911266829E+02  0.16914639010E+03  0.17830769849E+03  0.41800000000E+01 0. -1.
         -5    1    3    3    0  502  0.11266161964E+02 -0.44702282113E+02  0.18781567240E+02  0.49954380183E+02  0.41800000000E+01 0. -1.
        -11    1    1    2    0    0 -0.60640911021E+02 -0.18726903353E+02  0.64998497155E+02  0.90845041862E+02  0.00000000000E+00 0.  1.
         11    1    1    2    0    0  0.27674932624E+02  0.11517918636E+02  0.12637680945E+02  0.32531143926E+02  0.00000000000E+00 0. -1.
</event>
<event>
 7    1  0.2856214E-009  0.1020655E+03  0.7561462E-02  0.1276011E+00
         -2   -1    0    0    0  501 -0.00000000000E+00  0.00000000000E+00  0.59113573849E+02  0.59113573849E+02  0.00000000000E+00 0. -1.
          2   -1    0    0  501    0  0.00000000000E+00 -0.00000000000E+00 -0.26706185746E+03  0.26706185746E+03  0.00000000000E+00 0.  1.
         25    2    1    2    0    0 -0.72004276633E+01  0.45563252570E+02 -0.55677180576E+02  0.14448321644E+03  0.12509034836E+03 0.  0.
          5    1    3    3  502    0  0.52164637354E+02  0.17041423818E+02 -0.55959503537E+02  0.78488839666E+02  0.41800000000E+01 0. -1.
         -5    1    3    3    0  502 -0.59365065018E+02  0.28521828752E+02  0.28232296089E+00  0.65994376777E+02  0.41800000000E+01 0. -1.
        -11    1    1    2    0    0  0.11397225119E+01 -0.63837472731E+02 -0.14907940776E+03  0.16217642156E+03  0.00000000000E+00 0.  1.
         11    1    1    2    0    0  0.60607051514E+01  0.18274220161E+02 -0.31916952694E+01  0.19515793300E+02  0.00000000000E+00 0. -1.
</event>
<event>
 7    1  0.2856214E-009  0.7858575E+02  0.7561462E-02  0.1333113E+00
          1   -1    0    0  501    0  0.00000000000E+00  0.00000000000E+00  0.28216889186E+03  0.28216889186E+03  0.00000000000E+00 0. -1.
         -1   -1    0    0    0  501 -0.00000000000E+00 -0.00000000000E+00 -0.43640663251E+02  0.43640663251E+02  0.00000000000E+00 0.  1.
         25    2    1    2    0    0  0.13841296225E+01  0.31220602432E+02  0.13970732312E+03  0.19011229678E+03  0.12509159613E+03 0.  0.
          5    1    3    3  502    0  0.11439716657E+02 -0.37505957678E+02  0.66948892621E+01  0.39998223970E+02  0.41800000000E+01 0. -1.
         -5    1    3    3    0  502 -0.10055587035E+02  0.68726560110E+02  0.13301243386E+03  0.15011407281E+03  0.41800000000E+01 0. -1.
        -11    1    1    2    0    0  0.13772356950E+02 -0.36584365148E+00 -0.12859309179E+02  0.18846047069E+02  0.00000000000E+00 0.  1.
         11    1    1    2    0    0 -0.15156486573E+02 -0.30854758781E+02  0.11168021467E+03  0.11685121126E+03  0.00000000000E+00 0. -1.
</event>
<event>
 7    1  0.2856214E-009  0.1808087E+03  0.7561462E-02  0.1167023E+00
          2   -1    0    0  501    0  0.00000000000E+00  0.00000000000E+00  0.11040929831E+04  0.11040929831E+04  0.00000000000E+00 0. -1.
         -2   -1    0    0    0  501 -0.00000000000E+00 -0.00000000000E+00 -0.53707210724E+02  0.53707210724E+02  0.00000000000E+00 0.  1.
         25    2    1    2    0    0 -0.16954931394E+03 -0.61727798500E+02  0.83138108504E+03  0.85988359060E+03  0.12509192565E+03 0.  0.
          5    1    3    3  502    0 -0.11525259746E+02 -0.42143875837E+01  0.34483886762E+03  0.34508246796E+03  0.41800000000E+01 0. -1.
         -5    1    3    3    0  502 -0.15802405420E+03 -0.57513410916E+02  0.48654221742E+03  0.51480112264E+03  0.41800000000E+01 0. -1.
        -11    1    1    2    0    0  0.10328404834E+03  0.37781515010E+02  0.63013445915E+02  0.12675066818E+03  0.00000000000E+00 0.  1.
         11    1    1    2    0    0  0.66265265599E+02  0.23946283490E+02  0.15599124147E+03  0.17116593509E+03  0.00000000000E+00 0. -1.
</event>
<event>
 7    1  0.3634598E-009  0.1509419E+03  0.7561462E-02  0.1199320E+00
         -1   -1    0    0    0  501 -0.00000000000E+00  0.00000000000E+00  0.38129768331E+02  0.38129768331E+02  0.00000000000E+00 0.  1.
          1   -1    0    0  501    0  0.00000000000E+00 -0.00000000000E+00 -0.10009008437E+04  0.10009008437E+04  0.00000000000E+00 0. -1.
         25    2    1    2    0    0  0.16750258564E+02 -0.11562328249E+03 -0.80349528974E+03  0.82152403662E+03  0.12509095693E+03 0.  0.
          5    1    3    3  502    0 -0.50857909695E+02 -0.38390237662E+02 -0.40483977720E+03  0.40984515970E+03  0.41800000000E+01 0. -1.
         -5    1    3    3    0  502  0.67608168260E+02 -0.77233044823E+02 -0.39865551254E+03  0.41167887692E+03  0.41800000000E+01 0. -1.
        -11    1    1    2    0    0  0.25255461946E+02  0.63606814040E+02 -0.36148328538E+02  0.77397459949E+02  0.00000000000E+00 0. -1.
         11    1    1    2    0    0 -0.42005720510E+02  0.52016468445E+02 -0.12312745711E+03  0.14010911548E+03  0.00000000000E+00 0.  1.
</event>
<event>
 7    1  0.2856214E-009  0.1625742E+03  0.7561462E-02  0.1185821E+00
         -1   -1    0    0    0  501 -0.00000000000E+00  0.00000000000E+00  0.27808665309E+03  0.27808665309E+03  0.00000000000E+00 0.  1.
          1   -1    0    0  501    0  0.00000000000E+00 -0.00000000000E+00 -0.14807712763E+03  0.14807712763E+03  0.00000000000E+00 0. -1.
         25    2    1    2    0    0 -0.13966664174E+02 -0.14754583983E+03 -0.22421083191E+02  0.19522741468E+03  0.12508475492E+03 0.  0.
          5    1    3    3  502    0  0.11622441616E+02 -0.54423137707E+02 -0.68322448366E+02  0.88217846368E+02  0.41800000000E+01 0.  1.
         -5    1    3    3    0  502 -0.25589105790E+02 -0.93122702118E+02  0.45901365175E+02  0.10700956831E+03  0.41800000000E+01 0.  1.
        -11    1    1    2    0    0 -0.24860032013E+02  0.12568161837E+03  0.12250330055E+03  0.17725955273E+03  0.00000000000E+00 0.  1.
         11    1    1    2    0    0  0.38826696187E+02  0.21864221460E+02  0.29927308101E+02  0.53676813309E+02  0.00000000000E+00 0. -1.
</event>
<event>
 7    1  0.2856214E-009  0.7910983E+02  0.7561462E-02  0.1331597E+00
         -2   -1    0    0    0  501 -0.00000000000E+00  0.00000000000E+00  0.18966848355E+02  0.18966848355E+02  0.00000000000E+00 0.  1.
          2   -1    0    0  501    0  0.00000000000E+00 -0.00000000000E+00 -0.75062493100E+03  0.75062493100E+03  0.00000000000E+00 0. -1.
         25    2    1    2    0    0 -0.29422835248E+02  0.32222032259E+02 -0.34963829116E+03  0.37389648758E+03  0.12509071182E+03 0.  0.
          5    1    3    3  502    0 -0.22930425711E+02  0.43476739500E+02 -0.38806105422E+02  0.62764779286E+02  0.41800000000E+01 0.  1.
         -5    1    3    3    0  502 -0.64924095376E+01 -0.11254707241E+02 -0.31083218573E+03  0.31113170829E+03  0.41800000000E+01 0.  1.
        -11    1    1    2    0    0  0.55586534576E+02 -0.24996064103E+01 -0.14348623763E+03  0.15389740494E+03  0.00000000000E+00 0.  1.
         11    1    1    2    0    0 -0.26163699328E+02 -0.29722425849E+02 -0.23853355386E+03  0.24179788684E+03  0.00000000000E+00 0. -1.
</event>
<event>
 7    1  0.2856214E-009  0.1223633E+03  0.7561462E-02  0.1239248E+00
          1   -1    0    0  501    0  0.00000000000E+00  0.00000000000E+00  0.25981000616E+03  0.25981000616E+03  0.00000000000E+00 0. -1.
         -1   -1    0    0    0  501 -0.00000000000E+00 -0.00000000000E+00 -0.22669419522E+03  0.22669419522E+03  0.00000000000E+00 0.  1.
         25    2    1    2    0    0 -0.71618156311E+02 -0.72704549796E+02 -0.17415166031E+03  0.23746893058E+03  0.12509028871E+03 0.  0.
          5    1    3    3  502    0 -0.32842133056E+01 -0.37029963164E+02 -0.15288348980E+03  0.15739389468E+03  0.41800000000E+01 0.  1.
         -5    1    3    3    0  502 -0.68333943005E+02 -0.35674586631E+02 -0.21268170509E+02  0.80075035902E+02  0.41800000000E+01 0.  1.
        -11    1    1    2    0    0  0.56360531601E+02  0.54506848824E+00  0.50052310225E+02  0.75379310032E+02  0.00000000000E+00 0.  1.
         11    1    1    2    0    0  0.15257624710E+02  0.72159481308E+02  0.15721516102E+03  0.17365596077E+03  0.00000000000E+00 0. -1.
</event>
<event>
 7    1  0.2856214E-009  0.9934694E+02  0.7561462E-02  0.1281675E+00
          2   -1    0    0  501    0  0.00000000000E+00  0.00000000000E+00  0.57000379069E+03  0.57000379069E+03  0.00000000000E+00 0. -1.
         -2   -1    0    0    0  501 -0.00000000000E+00 -0.00000000000E+00 -0.27500706942E+02  0.27500706942E+02  0.00000000000E+00 0.  1.
         25    2    1    2    0    0  0.37561901336E+02  0.35958041310E+02  0.37701481592E+03  0.40061391482E+03  0.12508980837E+03 0.  0.
          5    1    3    3  502    0  0.53034415852E+02  0.62297581879E+02  0.35050666764E+03  0.35995282251E+03  0.41800000000E+01 0.  1.
         -5    1    3    3    0  502 -0.15472514516E+02 -0.26339540569E+02  0.26508148285E+02  0.40661092316E+02  0.41800000000E+01 0.  1.
        -11    1    1    2    0    0  0.18423484974E+02 -0.21110559913E+02  0.80753959003E+01  0.29159776360E+02  0.00000000000E+00 0.  1.
         11    1    1    2    0    0 -0.55985386310E+02 -0.14847481397E+02  0.15741287193E+03  0.16773080645E+03  0.00000000000E+00 0. -1.
</event>
<event>
 7    1  0.2856214E-009  0.1315247E+03  0.7561462E-02  0.1225211E+00
         -1   -1    0    0    0  501 -0.00000000000E+00  0.00000000000E+00  0.11856538784E+03  0.11856538784E+03  0.00000000000E+00 0.  1.
          1   -1    0    0  501    0  0.00000000000E+00 -0.00000000000E+00 -0.18700945744E+03  0.18700945744E+03  0.00000000000E+00 0. -1.
         25    2    1    2    0    0  0.78948748269E+02  0.73750483462E+02 -0.33637145969E+02  0.16867345578E+03  0.12508892209E+03 0.  0.
          5    1    3    3  502    0  0.90160538993E+02  0.45342186419E+02  0.23542730656E+02  0.10371388156E+03  0.41800000000E+01 0. -1.
         -5    1    3    3    0  502 -0.11211790724E+02  0.28408297043E+02 -0.57179876624E+02  0.64959574221E+02  0.41800000000E+01 0. -1.
        -11    1    1    2    0    0 -0.34893302527E+01 -0.52784285079E+02 -0.51239063911E+01  0.53147065711E+02  0.00000000000E+00 0.  1.
         11    1    1    2    0    0 -0.75459418016E+02 -0.20966198383E+02 -0.29683017234E+02  0.83754323793E+02  0.00000000000E+00 0. -1.
</event>
<event>
 7    1  0.2856214E-009  0.6888714E+02  0.7561462E-02  0.1363919E+00
          3   -1    0    0  501    0  0.00000000000E+00  0.00000000000E+00  0.63415471417E+03  0.63415471417E+03  0.00000000000E+00 0. -1.
         -3   -1    0    0    0  501 -0.00000000000E+00 -0.00000000000E+00 -0.37379054228E+02  0.37379054228E+02  0.00000000000E+00 0.  1.
         25    2    1    2    0    0  0.13441409346E+02  0.58738479291E+02  0.51873883657E+03  0.53700005149E+03  0.12509274279E+03 0.  0.
          5    1    3    3  502    0  0.16734088784E+02  0.27956128576E+01  0.24293557215E+01  0.17641410032E+02  0.41800000000E+01 0. -1.
         -5    1    3    3    0  502 -0.32926794381E+01  0.55942866433E+02  0.51630948085E+03  0.51935864146E+03  0.41800000000E+01 0. -1.
        -11    1    1    2    0    0 -0.12370925658E+02 -0.11612092024E+02  0.85183204262E+02  0.86856541326E+02  0.00000000000E+00 0. -1.
         11    1    1    2    0    0 -0.10704836884E+01 -0.47126387267E+02 -0.71463808856E+01  0.47677175587E+02  0.00000000000E+00 0.  1.
</event>
<event>
 7    1  0.2856214E-009  0.1088181E+03  0.7561462E-02  0.1262774E+00
          2   -1    0    0  501    0  0.00000000000E+00  0.00000000000E+00  0.13156334716E+03  0.13156334716E+03  0.00000000000E+00 0. -1.
         -2   -1    0    0    0  501 -0.00000000000E+00 -0.00000000000E+00 -0.11419031415E+03  0.11419031415E+03  0.00000000000E+00 0.  1.
         25    2    1    2    0    0  0.37449221060E+02  0.41464601900E+02  0.27110274763E+02  0.13965788744E+03  0.12509037196E+03 0.  0.
          5    1    3    3  502    0  0.45679504142E+02  0.69754723586E+02  0.54101380516E+02  0.99482512710E+02  0.41800000000E+01 0.  1.
         -5    1    3    3    0  502 -0.82302830824E+01 -0.28290121686E+02 -0.26991105753E+02  0.40175374726E+02  0.41800000000E+01 0.  1.
        -11    1    1    2    0    0 -0.30422305541E+01 -0.63475098305E+02  0.20599687325E+01  0.63581339580E+02  0.00000000000E+00 0. -1.
         11    1    1    2    0    0 -0.34406990506E+02  0.22010496405E+02 -0.11797210491E+02  0.42514434290E+02  0.00000000000E+00 0.  1.
</event>
<event>
 7    1  0.2856214E-009  0.1722564E+03  0.7561462E-02  0.1175515E+00
         -2   -1    0    0    0  501 -0.00000000000E+00  0.00000000000E+00  0.51919016877E+02  0.51919016877E+02  0.00000000000E+00 0.  1.
          2   -1    0    0  501    0  0.00000000000E+00 -0.00000000000E+00 -0.62205019627E+03  0.62205019627E+03  0.00000000000E+00 0. -1.
         25    2    1    2    0    0  0.14199943927E+03 -0.97954022635E+01 -0.27300304415E+03  0.33232168185E+03  0.12508895817E+03 0.  0.
          5    1    3    3  502    0  0.19196928568E+02 -0.45421740680E+02 -0.13670810816E+03  0.14538994405E+03  0.41800000000E+01 0.  1.
         -5    1    3    3    0  502  0.12280251070E+03  0.35626338416E+02 -0.13629493599E+03  0.18693173780E+03  0.41800000000E+01 0.  1.
        -11    1    1    2    0    0 -0.64828034160E+02 -0.39124679677E+02 -0.15787603508E+03  0.17509499429E+03  0.00000000000E+00 0. -1.
         11    1    1    2    0    0 -0.77171405106E+02  0.48920081941E+02 -0.13925210017E+03  0.16655253701E+03  0.00000000000E+00 0.  1.
</event>
<event>
 7    1  0.2856214E-009  0.1139547E+03  0.7561462E-02  0.1253417E+00
         -2   -1    0    0    0  501 -0.00000000000E+00  0.00000000000E+00  0.21550916845E+02  0.21550916845E+02  0.00000000000E+00 0.  1.
          2   -1    0    0  501    0  0.00000000000E+00 -0.00000000000E+00 -0.10125336536E+04  0.10125336536E+04  0.00000000000E+00 0. -1.
         25    2    1    2    0    0 -0.37309838277E+02  0.36940305756E+02 -0.83522573635E+03  0.84617115061E+03  0.12508787012E+03 0.  0.
          5    1    3    3  502    0 -0.56371826417E+02  0.73573972522E+02 -0.51830901043E+03  0.52654782778E+03  0.41800000000E+01 0.  1.
         -5    1    3    3    0  502  0.19061988140E+02 -0.36633666766E+02 -0.31691672592E+03  0.31962332283E+03  0.41800000000E+01 0.  1.
        -11    1    1    2    0    0  0.92913328185E+01 -0.57893254952E+02 -0.13512090744E+03  0.14729432257E+03  0.00000000000E+00 0.  1.
         11    1    1    2    0    0  0.28018505459E+02  0.20952949196E+02 -0.20636092940E+02  0.40619097233E+02  0.00000000000E+00 0. -1.
</event>
<event>
 7    1  0.2856214E-009  0.1436316E+03  0.7561462E-02  0.1208524E+00
          2   -1    0    0  501    0  0.00000000000E+00  0.00000000000E+00  0.36503588164E+03  0.36503588164E+03  0.00000000000E+00 0. -1.
         -2   -1    0    0    0  501 -0.00000000000E+00 -0.00000000000E+00 -0.78499907333E+02  0.78499907333E+02  0.00000000000E+00 0.  1.
         25    2    1    2    0    0  0.89214478610E+02 -0.52677463734E+02  0.49322048603E+02  0.16975056136E+03  0.12509376572E+03 0.  0.
          5    1    3    3  502    0 -0.19784033476E+02  0.20478875061E+02 -0.17456282198E+01  0.28832480334E+02  0.41800000000E+01 0.  1.
         -5    1    3    3    0  502  0.10899851209E+03 -0.73156338795E+02  0.51067676823E+02  0.14091808102E+03  0.41800000000E+01 0.  1.
        -11    1    1    2    0    0 -0.28373190667E+02  0.59502823152E+02  0.72136790292E+02  0.97720726692E+02  0.00000000000E+00 0.  1.
         11    1    1    2    0    0 -0.60841287943E+02 -0.68253594179E+01  0.16507713541E+03  0.17606450092E+03  0.00000000000E+00 0. -1.
</event>
<event>
 7    1  0.2856214E-009  0.1036876E+03  0.7561462E-02  0.1272727E+00
         -1   -1    0    0    0  501 -0.00000000000E+00  0.00000000000E+00  0.41611865516E+02  0.41611865516E+02  0.00000000000E+00 0.  1.
          1   -1    0    0  501    0  0.00000000000E+00 -0.00000000000E+00 -0.28800013023E+03  0.28800013023E+03  0.00000000000E+00 0. -1.
         25    2    1    2    0    0  0.26400800778E+02  0.20883220309E+01 -0.13484798085E+03  0.18583500245E+03  0.12509718951E+03 0.  0.
          5    1    3    3  502    0  0.32112320654E+01  0.58466823728E+02 -0.98701726522E+02  0.11483982196E+03  0.41800000000E+01 0. -1.
         -5    1    3    3    0  502  0.23189568712E+02 -0.56378501698E+02 -0.36146254330E+02  0.70995180490E+02  0.41800000000E+01 0. -1.
        -11    1    1    2    0    0 -0.19039943135E+02 -0.42457874316E+02 -0.77792884155E+02  0.90647246793E+02  0.00000000000E+00 0. -1.
         11    1    1    2    0    0 -0.73608576425E+01  0.40369552285E+02 -0.33747399707E+02  0.53129746507E+02  0.00000000000E+00 0.  1.
</event>
<event>
 7    1  0.2856214E-009  0.4660230E+03  0.7561462E-02  0.1023049E+00
         -2   -1    0    0    0  501 -0.00000000000E+00  0.00000000000E+00  0.17456328235E+03  0.17456328235E+03  0.00000000000E+00 0.  1.
          2   -1    0    0  501    0  0.00000000000E+00 -0.00000000000E+00 -0.12764140086E+04  0.12764140086E+04  0.00000000000E+00 0. -1.
         25    2    1    2    0    0  0.94005836772E+02 -0.44830137503E+03 -0.60025669960E+03  0.76535422552E+03  0.12509102649E+03 0.  0.
          5    1    3    3  502    0 -0.13317959433E+02 -0.22539446465E+03 -0.31753170832E+03  0.38964585321E+03  0.41800000000E+01 0.  1.
         -5    1    3    3    0  502  0.10732379621E+03 -0.22290691039E+03 -0.28272499128E+03  0.37570837231E+03  0.41800000000E+01 0.  1.
        -11    1    1    2    0    0 -0.40938419114E+02  0.25785375837E+03 -0.21919332149E+03  0.34089621155E+03  0.00000000000E+00 0.  1.
         11    1    1    2    0    0 -0.53067417658E+02  0.19044761666E+03 -0.28240070515E+03  0.34472685387E+03  0.00000000000E+00 0. -1.
</event>
<event>
 7    1  0.2856214E-009  0.1579384E+03  0.7561462E-02  0.1191044E+00
          1   -1    0    0  501    0  0.00000000000E+00  0.00000000000E+00  0.68280801822E+02  0.68280801822E+02  0.00000000000E+00 0. -1.
         -1   -1    0    0    0  501 -0.00000000000E+00 -0.00000000000E+00 -0.40043242636E+03  0.40043242636E+03  0.00000000000E+00 0.  1.
         25    2    1    2    0    0  0.12374703853E+03  0.20710712052E+01 -0.19037036273E+03  0.25924175548E+03  0.12509114237E+03 0.  0.
          5    1    3    3  502    0  0.12490255974E+03  0.44874835140E+02 -0.13891217451E+03  0.19216780398E+03  0.41800000000E+01 0. -1.
         -5    1    3    3    0  502 -0.11555212052E+01 -0.42803763934E+02 -0.51458188216E+02  0.67073951506E+02  0.41800000000E+01 0. -1.
        -11    1    1    2    0    0 -0.71620434648E+02 -0.33640821100E+02 -0.12197418943E+03  0.14539220883E+03  0.00000000000E+00 0.  1.
         11    1    1    2    0    0 -0.52126603885E+02  0.31569749895E+02 -0.19807072384E+02  0.64079263864E+02  0.00000000000E+00 0. -1.
</event>
<event>
 7    1  0.2856214E-009  0.1259140E+03  0.7561462E-02  0.1233648E+00
         -3   -1    0    0    0  501 -0.00000000000E+00  0.00000000000E+00  0.55116528085E+03  0.55116528085E+03  0.00000000000E+00 0.  1.
          3   -1    0    0  501    0  0.00000000000E+00 -0.00000000000E+00 -0.39884070209E+02  0.39884070209E+02  0.00000000000E+00 0. -1.
         25    2    1    2    0    0 -0.20422998104E+02 -0.99745725365E+02  0.27651123480E+03  0.32011372286E+03  0.12509206216E+03 0.  0.
          5    1    3    3  502    0 -0.41840909444E+02 -0.32448390632E+02  0.24742188745E+02  0.58593583792E+02  0.41800000000E+01 0. -1.
         -5    1    3    3    0  502  0.21417911339E+02 -0.67297334733E+02  0.25176904606E+03  0.26152013907E+03  0.41800000000E+01 0. -1.
        -11    1    1    2    0    0  0.42463429550E+02  0.96834463663E+02  0.22043634096E+03  0.24448361217E+03  0.00000000000E+00 0.  1.
         11    1    1    2    0    0 -0.22040431446E+02  0.29112617024E+01  0.14333634873E+02  0.26452016023E+02  0.00000000000E+00 0. -1.
</event>
<event>
 7    1  0.2856214E-009  0.7974809E+02  0.7561462E-02  0.1329768E+00
          2   -1    0    0  501    0  0.00000000000E+00  0.00000000000E+00  0.11652947967E+03  0.11652947967E+03  0.00000000000E+00 0. -1.
         -2   -1    0    0    0  501 -0.00000000000E+00 -0.00000000000E+00 -0.15172727106E+03  0.15172727106E+03  0.00000000000E+00 0.  1.
         25    2    1    2    0    0  0.34710367439E+02  0.30802406024E+02  0.41656388537E+02  0.13977878380E+03  0.12509698586E+03 0.  0.
          5    1    3    3  502    0 -0.68617463101E+01  0.18967004567E+02 -0.41295353921E+02  0.46147692035E+02  0.41800000000E+01 0.  1.
         -5    1    3    3    0  502  0.41572113749E+02  0.11835401456E+02  0.82951742458E+02  0.93631091769E+02  0.41800000000E+01 0.  1.
        -11    1    1    2    0    0 -0.62238998731E+02 -0.16212331339E+02 -0.72667825754E+02  0.97041978290E+02  0.00000000000E+00 0.  1.
         11    1    1    2    0    0  0.27528631293E+02 -0.14590074685E+02 -0.41863541695E+01  0.31435988634E+02  0.00000000000E+00 0. -1.
</event>
<event>
 7    1  0.2856214E-009  0.1548256E+03  0.7561462E-02  0.1194666E+00
         -2   -1    0    0    0  501 -0.00000000000E+00  0.00000000000E+00  0.78085987457E+02  0.78085987457E+02  0.00000000000E+00 0.  1.
          2   -1    0    0  501    0  0.00000000000E+00 -0.00000000000E+00 -0.40372683018E+03  0.40372683018E+03  0.00000000000E+00 0. -1.
         25    2    1    2    0    0  0.13836941672E+03  0.54153107144E+00 -0.19156689643E+03  0.26737958877E+03  0.12509028715E+03 0.  0.
          5    1    3    3  502    0 -0.13589456225E+02  0.39899397840E+01  0.77557256669E+01  0.16679826756E+02  0.41800000000E+01 0.  1.
         -5    1    3    3    0  502  0.15195887295E+03 -0.34484087125E+01 -0.19932262210E+03  0.25069976201E+03  0.41800000000E+01 0.  1.
        -11    1    1    2    0    0 -0.11624678044E+03 -0.13759337782E+02 -0.51418290062E+02  0.12785332961E+03  0.00000000000E+00 0.  1.
         11    1    1    2    0    0 -0.22122636281E+02  0.13217806711E+02 -0.82655656226E+02  0.86579899263E+02  0.00000000000E+00 0. -1.
</event>
<event>
 7    1  0.2856214E-009  0.7723610E+02  0.7561462E-02  0.1337083E+00
         -4   -1    0    0    0  501 -0.00000000000E+00  0.00000000000E+00  0.65892298823E+02  0.65892298823E+02  0.00000000000E+00 0.  1.
          4   -1    0    0  501    0  0.00000000000E+00 -0.00000000000E+00 -0.19034752046E+03  0.19034752046E+03  0.00000000000E+00 0. -1.
         25    2    1    2    0    0 -0.77184579769E+01  0.28289174483E+02 -0.61731335579E+02  0.14254124658E+03  0.12508955671E+03 0.  0.
          5    1    3    3  502    0 -0.28189951213E+02  0.45032456428E+02 -0.89374476237E+02  0.10405702708E+03  0.41800000000E+01 0. -1.
         -5    1    3    3    0  502  0.20471493236E+02 -0.16743281946E+02  0.27643140657E+02  0.38484219506E+02  0.41800000000E+01 0. -1.
        -11    1    1    2    0    0  0.16674017342E+02  0.19572950611E+02  0.87970574715E+01  0.27175567521E+02  0.00000000000E+00 0.  1.
         11    1    1    2    0    0 -0.89555593655E+01 -0.47862125094E+02 -0.71520943534E+02  0.86523005184E+02  0.00000000000E+00 0. -1.
</event>
<event>
 7    1  0.2856214E-009  0.1381702E+03  0.7561462E-02  0.1215813E+00
         -2   -1    0    0    0  501 -0.00000000000E+00  0.00000000000E+00  0.67759039375E+02  0.67759039375E+02  0.00000000000E+00 0. -1.
          2   -1    0    0  501    0  0.00000000000E+00 -0.00000000000E+00 -0.43697294287E+03  0.43697294287E+03  0.00000000000E+00 0.  1.
         25    2    1    2    0    0 -0.11869223038E+03  0.22329969922E+02 -0.11359054665E+03  0.20769617097E+03  0.12509362110E+03 0.  0.
          5    1    3    3  502    0 -0.13145958451E+02 -0.10450808714E+02 -0.93747485081E+02  0.95331521468E+02  0.41800000000E+01 0. -1.
         -5    1    3    3    0  502 -0.10554627193E+03  0.32780778636E+02 -0.19843061566E+02  0.11236464950E+03  0.41800000000E+01 0. -1.
        -11    1    1    2    0    0  0.62475317160E+02 -0.55153875738E+02 -0.17140909469E+03  0.19059431525E+03  0.00000000000E+00 0. -1.
         11    1    1    2    0    0  0.56216913220E+02  0.32823905816E+02 -0.84214262161E+02  0.10644149603E+03  0.00000000000E+00 0.  1.
</event>
<event>
 7    1  0.2896959E-009  0.1328878E+03  0.7561462E-02  0.1223233E+00
         -1   -1    0    0    0  501 -0.00000000000E+00  0.00000000000E+00  0.52312031686E+02  0.52312031686E+02  0.00000000000E+00 0.  1.
          1   -1    0    0  501    0  0.00000000000E+00 -0.00000000000E+00 -0.43372009878E+03  0.43372009878E+03  0.00000000000E+00 0. -1.
         25    2    1    2    0    0  0.40788119625E+02  0.89137570384E+02 -0.14972479009E+03  0.21834604821E+03  0.12509319264E+03 0.  0.
          5    1    3    3  502    0  0.85656022646E+02  0.55377259065E+02 -0.10493598642E+03  0.14639886845E+03  0.41800000000E+01 0.  1.
         -5    1    3    3    0  502 -0.44867903021E+02  0.33760311320E+02 -0.44788803677E+02  0.71947179769E+02  0.41800000000E+01 0.  1.
        -11    1    1    2    0    0 -0.45846935492E+01 -0.61927963002E+02 -0.47956056954E+02  0.78459387042E+02  0.00000000000E+00 0.  1.
         11    1    1    2    0    0 -0.36203426076E+02 -0.27209607383E+02 -0.18372722005E+03  0.18922669521E+03  0.00000000000E+00 0. -1.
</event>
<event>
 7    1  0.3130627E-009  0.8358966E+02  0.7561462E-02  0.1319162E+00
         -1   -1    0    0    0  501 -0.00000000000E+00  0.00000000000E+00  0.28681249880E+02  0.28681249880E+02  0.00000000000E+00 0.  1.
          1   -1    0    0  501    0  0.00000000000E+00 -0.00000000000E+00 -0.56714054937E+03  0.56714054937E+03  0.00000000000E+00 0. -1.
         25    2    1    2    0    0 -0.11398916538E+02  0.47223217861E+02 -0.40506828434E+03  0.42671729788E+03  0.12508944690E+03 0.  0.
          5    1    3    3  502    0 -0.30558374790E+02  0.54881558273E+02 -0.84066693973E+02  0.10502609744E+03  0.41800000000E+01 0. -1.
         -5    1    3    3    0  502  0.19159458252E+02 -0.76583404115E+01 -0.32100159037E+03  0.32169120044E+03  0.41800000000E+01 0. -1.
        -11    1    1    2    0    0 -0.26451898062E+02 -0.58383945817E+01 -0.31122402448E+01  0.27266752680E+02  0.00000000000E+00 0.  1.
         11    1    1    2    0    0  0.37850814600E+02 -0.41384823280E+02 -0.13027877490E+03  0.14183774869E+03  0.00000000000E+00 0. -1.
</event>
<event>
 7    1  0.2856214E-009  0.8927862E+02  0.7561462E-02  0.1304608E+00
          3   -1    0    0  501    0  0.00000000000E+00  0.00000000000E+00  0.12881723258E+04  0.12881723258E+04  0.00000000000E+00 0. -1.
         -3   -1    0    0    0  501 -0.00000000000E+00 -0.00000000000E+00 -0.20192049535E+02  0.20192049535E+02  0.00000000000E+00 0.  1.
         25    2    1    2    0    0  0.30480847023E+02  0.38328300214E+02  0.11241200070E+04  0.11321194041E+04  0.12510161613E+03 0.  0.
          5    1    3    3  502    0  0.36999600788E+02 -0.36984111367E+02  0.63614577274E+03  0.63830691013E+03  0.41800000000E+01 0.  1.
         -5    1    3    3    0  502 -0.65187537654E+01  0.75312411581E+02  0.48797423423E+03  0.49381249393E+03  0.41800000000E+01 0.  1.
        -11    1    1    2    0    0 -0.12249918777E+02 -0.24813877353E+02  0.15016354162E+03  0.15269210278E+03  0.00000000000E+00 0. -1.
         11    1    1    2    0    0 -0.18230928246E+02 -0.13514422861E+02 -0.63032723602E+01  0.23552868454E+02  0.00000000000E+00 0.  1.
</event>
<event>
 7    1  0.2856214E-009  0.1150799E+03  0.7561462E-02  0.1251442E+00
         -2   -1    0    0    0  501 -0.00000000000E+00  0.00000000000E+00  0.10163467744E+04  0.10163467744E+04  0.00000000000E+00 0.  1.
          2   -1    0    0  501    0  0.00000000000E+00 -0.00000000000E+00 -0.15661479704E+02  0.15661479704E+02  0.00000000000E+00 0. -1.
         25    2    1    2    0    0 -0.25691853926E+02  0.53388792392E+02  0.56158670929E+03  0.57839197441E+03  0.12508880644E+03 0.  0.
          5    1    3    3  502    0 -0.59418960792E+02 -0.11401940710E+02  0.18260586861E+03  0.19241359828E+03  0.41800000000E+01 0.  1.
         -5    1    3    3    0  502  0.33727106866E+02  0.64790733102E+02  0.37898084068E+03  0.38597837613E+03  0.41800000000E+01 0.  1.
        -11    1    1    2    0    0  0.52213943055E+02 -0.43783494346E+02  0.39786061852E+03  0.40365376499E+03  0.00000000000E+00 0.  1.
         11    1    1    2    0    0 -0.26522089130E+02 -0.96052980458E+01  0.41237966892E+02  0.49962514706E+02  0.00000000000E+00 0. -1.
</event>
<event>
 7    1  0.2856214E-009  0.6833566E+02  0.7561462E-02  0.1365846E+00
          1   -1    0    0  501    0  0.00000000000E+00  0.00000000000E+00  0.32456652650E+02  0.32456652650E+02  0.00000000000E+00 0. -1.
         -1   -1    0    0    0  501 -0.00000000000E+00 -0.00000000000E+00 -0.43112224140E+03  0.43112224140E+03  0.00000000000E+00 0.  1.
         25    2    1    2    0    0 -0.20712342777E+01  0.27574566609E+02 -0.15681336954E+03  0.20248940488E+03  0.12508748734E+03 0.  0.
          5    1    3    3  502    0 -0.61121288187E+01 -0.19268027694E+02  0.14217573852E+02  0.25064453239E+02  0.41800000000E+01 0. -1.
         -5    1    3    3    0  502  0.40408945410E+01  0.46842594303E+02 -0.17103094339E+03  0.17742495165E+03  0.41800000000E+01 0. -1.
        -11    1    1    2    0    0 -0.13943710483E+01 -0.48045234318E+02 -0.23401081130E+03  0.23889610423E+03  0.00000000000E+00 0.  1.
         11    1    1    2    0    0  0.34656053260E+01  0.20470667710E+02 -0.78414079092E+01  0.22193384932E+02  0.00000000000E+00 0. -1.
</event>
<event>
 7    1  0.2856214E-009  0.1589460E+03  0.7561462E-02  0.1189892E+00
          1   -1    0    0  501    0  0.00000000000E+00  0.00000000000E+00  0.13181843252E+04  0.13181843252E+04  0.00000000000E+00 0. -1.
         -1   -1    0    0    0  501 -0.00000000000E+00 -0.00000000000E+00 -0.29987222914E+02  0.29987222914E+02  0.00000000000E+00 0.  1.
         25    2    1    2    0    0  0.98494402952E+02  0.11277198957E+03  0.91844180007E+03  0.93893628823E+03  0.12508934483E+03 0.  0.
          5    1    3    3  502    0  0.71180073748E+02  0.48542186873E+02  0.77038757975E+03  0.77520154943E+03  0.41800000000E+01 0. -1.
         -5    1    3    3    0  502  0.27314329203E+02  0.64229802700E+02  0.14805422032E+03  0.16373473880E+03  0.41800000000E+01 0. -1.
        -11    1    1    2    0    0 -0.99729049218E+02 -0.77196378369E+02  0.20506832824E+03  0.24074505880E+03  0.00000000000E+00 0.  1.
         11    1    1    2    0    0  0.12346462660E+01 -0.35575611203E+02  0.16468697397E+03  0.16849020108E+03  0.00000000000E+00 0. -1.
</event>
<event>
 7    1  0.2997523E-009  0.1497852E+03  0.7561462E-02  0.1200737E+00
         -1   -1    0    0    0  501 -0.00000000000E+00  0.00000000000E+00  0.11052834696E+03  0.11052834696E+03  0.00000000000E+00 0.  1.
          1   -1    0    0  501    0  0.00000000000E+00 -0.00000000000E+00 -0.25872842061E+03  0.25872842061E+03  0.00000000000E+00 0. -1.
         25    2    1    2    0    0 -0.61265892064E+02 -0.11175991894E+03 -0.10310877018E+03  0.20621023395E+03  0.12508978011E+03 0.  0.
          5    1    3    3  502    0 -0.81060517031E+02 -0.28678621408E+02 -0.23157268743E+02  0.89145960329E+02  0.41800000000E+01 0. -1.
         -5    1    3    3    0  502  0.19794624968E+02 -0.83081297532E+02 -0.79951501435E+02  0.11706427362E+03  0.41800000000E+01 0. -1.
        -11    1    1    2    0    0  0.35071477567E+02  0.75455826319E+02  0.18536542244E+02  0.85247836703E+02  0.00000000000E+00 0.  1.
         11    1    1    2    0    0  0.26194414497E+02  0.36304092620E+02 -0.63627845717E+02  0.77798696920E+02  0.00000000000E+00 0. -1.
</event>
<event>
 7    1  0.2856214E-009  0.8257605E+02  0.7561462E-02  0.1321896E+00
         -2   -1    0    0    0  501 -0.00000000000E+00  0.00000000000E+00  0.48384278300E+02  0.48384278300E+02  0.00000000000E+00 0.  1.
          2   -1    0    0  501    0  0.00000000000E+00 -0.00000000000E+00 -0.31465217751E+03  0.31465217751E+03  0.00000000000E+00 0. -1.
         25    2    1    2    0    0 -0.18733743623E+02  0.37439234388E+02 -0.21301545610E+03  0.25054488661E+03  0.12507800065E+03 0.  0.
          5    1    3    3  502    0 -0.35178982910E+02 -0.14570197872E+02 -0.18529927907E+03  0.18921719459E+03  0.41800000000E+01 0. -1.
         -5    1    3    3    0  502  0.16445239288E+02  0.52009432260E+02 -0.27716177034E+02  0.61327692021E+02  0.41800000000E+01 0. -1.
        -11    1    1    2    0    0  0.21502725409E+01  0.16021565630E+02  0.16472141866E+02  0.23079118157E+02  0.00000000000E+00 0.  1.
         11    1    1    2    0    0  0.16583471082E+02 -0.53460800018E+02 -0.69724584970E+02  0.89412451040E+02  0.00000000000E+00 0. -1.
</event>
<event>
 7    1  0.2856214E-009  0.1381122E+03  0.7561462E-02  0.1215892E+00
         -2   -1    0    0    0  501 -0.00000000000E+00  0.00000000000E+00  0.22201870262E+03  0.22201870262E+03  0.00000000000E+00 0.  1.
          2   -1    0    0  501    0  0.00000000000E+00 -0.00000000000E+00 -0.13620144243E+03  0.13620144243E+03  0.00000000000E+00 0. -1.
         25    2    1    2    0    0 -0.99921419734E+02  0.83377139257E+02  0.67897334648E+01  0.18063695675E+03  0.12509025618E+03 0.  0.
          5    1    3    3  502    0 -0.69520647060E+02  0.59281528212E+02 -0.55613194654E+02  0.10704073885E+03  0.41800000000E+01 0. -1.
         -5    1    3    3    0  502 -0.30400772673E+02  0.24095611045E+02  0.62402928119E+02  0.73596217896E+02  0.41800000000E+01 0. -1.
        -11    1    1    2    0    0  0.26745577465E+02 -0.65018547970E+02  0.28392044303E+01  0.70361911400E+02  0.00000000000E+00 0. -1.
         11    1    1    2    0    0  0.73175842269E+02 -0.18358591287E+02  0.76188322296E+02  0.10722127690E+03  0.00000000000E+00 0.  1.
</event>
<event>
 7    1  0.2856214E-009  0.9632381E+02  0.7561462E-02  0.1288222E+00
         -3   -1    0    0    0  501 -0.00000000000E+00  0.00000000000E+00  0.60894041196E+03  0.60894041196E+03  0.00000000000E+00 0.  1.
          3   -1    0    0  501    0  0.00000000000E+00 -0.00000000000E+00 -0.29884832601E+02  0.29884832601E+02  0.00000000000E+00 0. -1.
         25    2    1    2    0    0  0.59259288928E+02 -0.55426043059E+01  0.19046436736E+03  0.23551893700E+03  0.12510040235E+03 0.  0.
          5    1    3    3  502    0 -0.28826682906E+01  0.18049568527E+02 -0.12080697807E+02  0.22304985093E+02  0.41800000000E+01 0.  1.
         -5    1    3    3    0  502  0.62141957219E+02 -0.23592172833E+02  0.20254506517E+03  0.21321395191E+03  0.41800000000E+01 0.  1.
        -11    1    1    2    0    0 -0.12808035293E+02  0.44727371140E+02  0.19074246963E+03  0.19633459506E+03  0.00000000000E+00 0.  1.
         11    1    1    2    0    0 -0.46451253635E+02 -0.39184766834E+02  0.19784874236E+03  0.20697171249E+03  0.00000000000E+00 0. -1.
</event>
<event>
 7    1  0.2856214E-009  0.9114903E+02  0.7561462E-02  0.1300093E+00
          1   -1    0    0  501    0  0.00000000000E+00  0.00000000000E+00  0.88165010705E+03  0.88165010705E+03  0.00000000000E+00 0. -1.
         -1   -1    0    0    0  501 -0.00000000000E+00 -0.00000000000E+00 -0.25064604153E+02  0.25064604153E+02  0.00000000000E+00 0.  1.
         25    2    1    2    0    0 -0.31267156022E+02  0.36755966712E+02  0.73345270554E+03  0.74560627749E+03  0.12508882296E+03 0.  0.
          5    1    3    3  502    0 -0.50954522882E+02  0.12061391624E+02  0.68854825577E+03  0.69054906668E+03  0.41800000000E+01 0.  1.
         -5    1    3    3    0  502  0.19687366861E+02  0.24694575087E+02  0.44904449769E+02  0.55057210805E+02  0.41800000000E+01 0.  1.
        -11    1    1    2    0    0 -0.27858933442E+02 -0.25410299846E+02  0.75306070437E+02  0.84218808798E+02  0.00000000000E+00 0. -1.
         11    1    1    2    0    0  0.59126089463E+02 -0.11345666865E+02  0.47826726917E+02  0.76889624914E+02  0.00000000000E+00 0.  1.
</event>
<event>
 7    1  0.2856214E-009  0.7089678E+02  0.7561462E-02  0.1357070E+00
          2   -1    0    0  501    0  0.00000000000E+00  0.00000000000E+00  0.50781908044E+02  0.50781908044E+02  0.00000000000E+00 0. -1.
         -2   -1    0    0    0  501 -0.00000000000E+00 -0.00000000000E+00 -0.24367649692E+03  0.24367649692E+03  0.00000000000E+00 0.  1.
         25    2    1    2    0    0 -0.19047578782E+02 -0.10554545363E+01 -0.87381177074E+02  0.15377626141E+03  0.12509094382E+03 0.  0.
          5    1    3    3  502    0 -0.42888478960E+02 -0.15705802376E+02  0.14450439958E+02  0.48087227730E+02  0.41800000000E+01 0. -1.
         -5    1    3    3    0  502  0.23840900178E+02  0.14650347840E+02 -0.10183161703E+03  0.10568903368E+03  0.41800000000E+01 0. -1.
        -11    1    1    2    0    0 -0.16797744425E+01  0.31094464374E+02 -0.23211654932E+01  0.31226193591E+02  0.00000000000E+00 0. -1.
         11    1    1    2    0    0  0.20727353224E+02 -0.30039009838E+02 -0.10319224631E+03  0.10945594996E+03  0.00000000000E+00 0.  1.
</event>
<event>
 7    1  0.2856214E-009  0.1114965E+03  0.7561462E-02  0.1257823E+00
          1   -1    0    0  501    0  0.00000000000E+00  0.00000000000E+00  0.11678104399E+03  0.11678104399E+03  0.00000000000E+00 0. -1.
         -1   -1    0    0    0  501 -0.00000000000E+00 -0.00000000000E+00 -0.14838063806E+03  0.14838063806E+03  0.00000000000E+00 0.  1.
         25    2    1    2    0    0  0.27120624877E+02 -0.68599292668E+02 -0.31350948700E+02  0.14855942555E+03  0.12508249153E+03 0.  0.
          5    1    3    3  502    0  0.32248149229E+02  0.71712759579E+01 -0.58903123664E+02  0.67664028146E+02  0.41800000000E+01 0. -1.
         -5    1    3    3    0  502 -0.51275243523E+01 -0.75770568626E+02  0.27552174964E+02  0.80895397404E+02  0.41800000000E+01 0. -1.
        -11    1    1    2    0    0  0.28367281473E+02  0.42795388434E+01 -0.11512485808E+02  0.30912043613E+02  0.00000000000E+00 0.  1.
         11    1    1    2    0    0 -0.55487906349E+02  0.64319753825E+02  0.11263840443E+02  0.85690212887E+02  0.00000000000E+00 0. -1.
</event>
<event>
 7    1  0.2856214E-009  0.1072581E+03  0.7561462E-02  0.1265733E+00
         -2   -1    0    0    0  501 -0.00000000000E+00  0.00000000000E+00  0.45381150409E+02  0.45381150409E+02  0.00000000000E+00 0.  1.
          2   -1    0    0  501    0  0.00000000000E+00 -0.00000000000E+00 -0.44969504022E+03  0.44969504022E+03  0.00000000000E+00 0. -1.
         25    2    1    2    0    0  0.56287195897E+02 -0.67127946936E+02 -0.17378169959E+03  0.23134728874E+03  0.12508828568E+03 0.  0.
          5    1    3    3  502    0  0.53233158290E+02 -0.67088678445E+02 -0.19313518773E+03  0.21131335276E+03  0.41800000000E+01 0.  1.
         -5    1    3    3    0  502  0.30540376069E+01 -0.39268491234E-01  0.19353488138E+02  0.20033935979E+02  0.41800000000E+01 0.  1.
        -11    1    1    2    0    0 -0.39211012936E+02 -0.13275931614E+02 -0.47006701091E+02  0.62636920767E+02  0.00000000000E+00 0.  1.
         11    1    1    2    0    0 -0.17076182961E+02  0.80403878550E+02 -0.18352548913E+03  0.20109198112E+03  0.00000000000E+00 0. -1.
</event>
<event>
 7    1  0.3045209E-009  0.1733383E+03  0.7561462E-02  0.1174411E+00
         -2   -1    0    0    0  501 -0.00000000000E+00  0.00000000000E+00  0.23445521197E+03  0.23445521197E+03  0.00000000000E+00 0.  1.
          2   -1    0    0  501    0  0.00000000000E+00 -0.00000000000E+00 -0.15107613120E+03  0.15107613120E+03  0.00000000000E+00 0. -1.
         25    2    1    2    0    0 -0.12774768448E+03  0.63748316348E+02 -0.13383277793E+02  0.19029530820E+03  0.12509945432E+03 0.  0.
          5    1    3    3  502    0 -0.15163480802E+03  0.42557293999E+02 -0.13057062609E+02  0.15808920761E+03  0.41800000000E+01 0. -1.
         -5    1    3    3    0  502  0.23887123542E+02  0.21191022349E+02 -0.32621518332E+00  0.32206100597E+02  0.41800000000E+01 0. -1.
        -11    1    1    2    0    0  0.83331367198E+02 -0.73879889647E+02  0.31663563880E+02  0.11577968790E+03  0.00000000000E+00 0.  1.
         11    1    1    2    0    0  0.44416317285E+02  0.10131573299E+02  0.65098794686E+02  0.79456347061E+02  0.00000000000E+00 0. -1.
</event>
<event>
 7    1  0.2856214E-009  0.1038286E+03  0.7561462E-02  0.1272445E+00
          4   -1    0    0  501    0  0.00000000000E+00  0.00000000000E+00  0.72845357116E+02  0.72845357116E+02  0.00000000000E+00 0. -1.
         -4   -1    0    0    0  501 -0.00000000000E+00 -0.00000000000E+00 -0.22688153759E+03  0.22688153759E+03  0.00000000000E+00 0.  1.
         25    2    1    2    0    0  0.56275563160E+02 -0.38999302234E+02 -0.91581658097E+02  0.16947245539E+03  0.12508328607E+03 0.  0.
          5    1    3    3  502    0 -0.13403916483E+02  0.74515779699E+01  0.22711611053E+02  0.27721483870E+02  0.41800000000E+01 0.  1.
         -5    1    3    3    0  502  0.69679479643E+02 -0.46450880204E+02 -0.11429326915E+03  0.14175097152E+03  0.41800000000E+01 0.  1.
        -11    1    1    2    0    0 -0.52508448635E+02 -0.14348706667E+02 -0.10002455715E+02  0.55345023998E+02  0.00000000000E+00 0.  1.
         11    1    1    2    0    0 -0.37671145253E+01  0.53348008901E+02 -0.52452066666E+02  0.74909415317E+02  0.00000000000E+00 0. -1.
</event>
<event>
 7    1  0.2856214E-009  0.9408724E+02  0.7561462E-02  0.1293245E+00
         -1   -1    0    0    0  501 -0.00000000000E+00  0.00000000000E+00  0.47977882163E+02  0.47977882163E+02  0.00000000000E+00 0.  1.
          1   -1    0    0  501    0  0.00000000000E+00 -0.00000000000E+00 -0.34076220491E+03  0.34076220491E+03  0.00000000000E+00 0. -1.
         25    2    1    2    0    0 -0.15487214108E+02 -0.54706324032E+02 -0.22294665805E+03  0.26188962256E+03  0.12509327071E+03 0.  0.
          5    1    3    3  502    0  0.56566346827E+01  0.31159648494E+02 -0.12861326802E+03  0.13252081467E+03  0.41800000000E+01 0.  1.
         -5    1    3    3    0  502 -0.21143848791E+02 -0.85865972526E+02 -0.94333390026E+02  0.12936880788E+03  0.41800000000E+01 0.  1.
        -11    1    1    2    0    0  0.27376012510E+02  0.43282157802E+02  0.38338004945E+01  0.51356492006E+02  0.00000000000E+00 0.  1.
         11    1    1    2    0    0 -0.11888798402E+02  0.11424166230E+02 -0.73671465195E+02  0.75493972511E+02  0.00000000000E+00 0. -1.
</event>
<event>
 7    1  0.2856214E-009  0.9050296E+02  0.7561462E-02  0.1301638E+00
          3   -1    0    0  501    0  0.00000000000E+00  0.00000000000E+00  0.44368180277E+02  0.44368180277E+02  0.00000000000E+00 0. -1.
         -3   -1    0    0    0  501 -0.00000000000E+00 -0.00000000000E+00 -0.37290858364E+03  0.37290858364E+03  0.00000000000E+00 0.  1.
         25    2    1    2    0    0 -0.37224368417E+02 -0.35520585021E+02 -0.25295356843E+03  0.28684544703E+03  0.12508971635E+03 0.  0.
          5    1    3    3  502    0 -0.54415164263E+02 -0.62599566105E+02 -0.23628908802E+03  0.25045902119E+03  0.41800000000E+01 0.  1.
         -5    1    3    3    0  502  0.17190795846E+02  0.27078981084E+02 -0.16664480415E+02  0.36386425847E+02  0.41800000000E+01 0.  1.
        -11    1    1    2    0    0  0.45757544133E+02  0.25265140308E+02 -0.94081882430E+02  0.10762658018E+03  0.00000000000E+00 0.  1.
         11    1    1    2    0    0 -0.85331757163E+01  0.10255444713E+02  0.18495047499E+02  0.22804736702E+02  0.00000000000E+00 0. -1.
</event>
<event>
 7    1  0.2856214E-009  0.1388031E+03  0.7561462E-02  0.1214949E+00
          3   -1    0    0  501    0  0.00000000000E+00  0.00000000000E+00  0.30453164552E+02  0.30453164552E+02  0.00000000000E+00 0. -1.
         -3   -1    0    0    0  501 -0.00000000000E+00 -0.00000000000E+00 -0.78986031637E+03  0.78986031637E+03  0.00000000000E+00 0.  1.
         25    2    1    2    0    0 -0.67595738907E+02  0.85570757071E+02 -0.36086619844E+03  0.39719489334E+03  0.12509129361E+03 0.  0.
          5    1    3    3  502    0  0.13822466998E+02 -0.97811066560E+01 -0.15597805422E+03  0.15695017184E+03  0.41800000000E+01 0.  1.
         -5    1    3    3    0  502 -0.81418205905E+02  0.95351863727E+02 -0.20488814422E+03  0.24024472151E+03  0.41800000000E+01 0.  1.
        -11    1    1    2    0    0  0.73690532927E+02 -0.31237440073E+02 -0.16671006414E+03  0.18492787186E+03  0.00000000000E+00 0.  1.
         11    1    1    2    0    0 -0.60947940200E+01 -0.54333316998E+02 -0.23183088924E+03  0.23819071572E+03  0.00000000000E+00 0. -1.
</event>
<event>
 7    1  0.2856214E-009  0.9904822E+02  0.7561462E-02  0.1282310E+00
          1   -1    0    0  501    0  0.00000000000E+00  0.00000000000E+00  0.54150086303E+03  0.54150086303E+03  0.00000000000E+00 0. -1.
         -1   -1    0    0    0  501 -0.00000000000E+00 -0.00000000000E+00 -0.27258629549E+02  0.27258629549E+02  0.00000000000E+00 0.  1.
         25    2    1    2    0    0  0.32870512999E+02 -0.42165814251E+02  0.24796709862E+03  0.28282688727E+03  0.12507973315E+03 0.  0.
          5    1    3    3  502    0 -0.25542056761E+02 -0.35857767107E+01  0.10563752229E+01  0.26150387890E+02  0.41800000000E+01 0.  1.
         -5    1    3    3    0  502  0.58412569761E+02 -0.38580037540E+02  0.24691072340E+03  0.25667649938E+03  0.41800000000E+01 0.  1.
        -11    1    1    2    0    0  0.23477932649E+02  0.38850589477E+02  0.14934199838E+03  0.15608848165E+03  0.00000000000E+00 0.  1.
         11    1    1    2    0    0 -0.56348445648E+02  0.33152247741E+01  0.11693313648E+03  0.12984412366E+03  0.00000000000E+00 0. -1.
</event>
<event>
 7    1  0.2856214E-009  0.1064937E+03  0.7561462E-02  0.1267204E+00
          1   -1    0    0  501    0  0.00000000000E+00  0.00000000000E+00  0.19989607968E+03  0.19989607968E+03  0.00000000000E+00 0. -1.
         -1   -1    0    0    0  501 -0.00000000000E+00 -0.00000000000E+00 -0.73828069861E+02  0.73828069861E+02  0.00000000000E+00 0.  1.
         25    2    1    2    0    0  0.42663196534E+02  0.23008470961E+02  0.97276846588E+02  0.16570276453E+03  0.12508030707E+03 0.  0.
          5    1    3    3  502    0  0.57222011090E+02 -0.31779305090E+02  0.17745320205E+02  0.67945945975E+02  0.41800000000E+01 0. -1.
         -5    1    3    3    0  502 -0.14558814556E+02  0.54787776050E+02  0.79531526384E+02  0.97756818559E+02  0.41800000000E+01 0. -1.
        -11    1    1    2    0    0 -0.32506918362E+02  0.25299956910E+02 -0.13155627157E+02  0.43241855730E+02  0.00000000000E+00 0. -1.
         11    1    1    2    0    0 -0.10156278172E+02 -0.48308427871E+02  0.41946790387E+02  0.64779529278E+02  0.00000000000E+00 0.  1.
</event>
<event>
 7    1  0.2856214E-009  0.1545169E+03  0.7561462E-02  0.1195030E+00
          1   -1    0    0  501    0  0.00000000000E+00  0.00000000000E+00  0.61914418746E+03  0.61914418746E+03  0.00000000000E+00 0. -1.
         -1   -1    0    0    0  501 -0.00000000000E+00 -0.00000000000E+00 -0.48512415670E+02  0.48512415670E+02  0.00000000000E+00 0.  1.
         25    2    1    2    0    0  0.73172573231E+02 -0.10681863488E+03  0.35999636723E+03  0.40250573124E+03  0.12509609519E+03 0.  0.
          5    1    3    3  502    0 -0.22198304168E+02 -0.75786834186E+02  0.17475158987E+03  0.19181240707E+03  0.41800000000E+01 0.  1.
         -5    1    3    3    0  502  0.95370877399E+02 -0.31031800690E+02  0.18524477737E+03  0.21069332417E+03  0.41800000000E+01 0.  1.
        -11    1    1    2    0    0 -0.48475462922E+02  0.66534065210E+02  0.46920672175E+02  0.94753373640E+02  0.00000000000E+00 0.  1.
         11    1    1    2    0    0 -0.24697110309E+02  0.40284569666E+02  0.16371473239E+03  0.17039749825E+03  0.00000000000E+00 0. -1.
</event>
<event>
 7    1  0.2856214E-009  0.1209317E+03  0.7561462E-02  0.1241568E+00
         -1   -1    0    0    0  501 -0.00000000000E+00  0.00000000000E+00  0.33675708821E+03  0.33675708821E+03  0.00000000000E+00 0.  1.
          1   -1    0    0  501    0  0.00000000000E+00 -0.00000000000E+00 -0.60244408263E+02  0.60244408263E+02  0.00000000000E+00 0. -1.
         25    2    1    2    0    0  0.44689917470E+02  0.69077615303E+02  0.99089017580E+02  0.17954155513E+03  0.12509049106E+03 0.  0.
          5    1    3    3  502    0 -0.33660887810E+02  0.61540129956E+02  0.54933639099E+02  0.89193161553E+02  0.41800000000E+01 0. -1.
         -5    1    3    3    0  502  0.78350805280E+02  0.75374853467E+01  0.44155378482E+02  0.90348393578E+02  0.41800000000E+01 0. -1.
        -11    1    1    2    0    0 -0.49147829538E+02 -0.40040293532E+02  0.17707479069E+03  0.18808034387E+03  0.00000000000E+00 0.  1.
         11    1    1    2    0    0  0.44579120683E+01 -0.29037321771E+02  0.34887167456E+00  0.29379597463E+02  0.00000000000E+00 0. -1.
</event>
<event>
 7    1  0.2856214E-009  0.1131967E+03  0.7561462E-02  0.1254762E+00
          3   -1    0    0  501    0  0.00000000000E+00  0.00000000000E+00  0.93902379110E+02  0.93902379110E+02  0.00000000000E+00 0. -1.
         -3   -1    0    0    0  501 -0.00000000000E+00 -0.00000000000E+00 -0.19385394959E+03  0.19385394959E+03  0.00000000000E+00 0.  1.
         25    2    1    2    0    0  0.29000152337E+02  0.73461252072E+02 -0.66963969469E+02  0.16238737718E+03  0.12509165708E+03 0.  0.
          5    1    3    3  502    0 -0.22744817985E+02 -0.25500616105E+01  0.23682944123E+02  0.33199153630E+02  0.41800000000E+01 0. -1.
         -5    1    3    3    0  502  0.51744970322E+02  0.76011313683E+02 -0.90646913591E+02  0.12918822355E+03  0.41800000000E+01 0. -1.
        -11    1    1    2    0    0  0.26181754700E+02 -0.35462911008E+02 -0.37977341582E+02  0.58184025385E+02  0.00000000000E+00 0.  1.
         11    1    1    2    0    0 -0.55181907036E+02 -0.37998341064E+02  0.49897405747E+01  0.67184926128E+02  0.00000000000E+00 0. -1.
</event>
<event>
 7    1  0.2856214E-009  0.1288216E+03  0.7561462E-02  0.1229215E+00
         -4   -1    0    0    0  501 -0.00000000000E+00  0.00000000000E+00  0.23363857140E+02  0.23363857140E+02  0.00000000000E+00 0.  1.
          4   -1    0    0  501    0  0.00000000000E+00 -0.00000000000E+00 -0.11309208862E+04  0.11309208862E+04  0.00000000000E+00 0. -1.
         25    2    1    2    0    0  0.99292822639E+02 -0.62847418023E+02 -0.68645427938E+03  0.70758426621E+03  0.12508858276E+03 0.  0.
          5    1    3    3  502    0  0.56775393199E+02 -0.50527827428E+02 -0.14026129111E+03  0.15958448797E+03  0.41800000000E+01 0.  1.
         -5    1    3    3    0  502  0.42517429440E+02 -0.12319590594E+02 -0.54619298827E+03  0.54799977824E+03  0.41800000000E+01 0.  1.
        -11    1    1    2    0    0 -0.10998053802E+03  0.62208036515E+02 -0.41613881498E+03  0.43489892146E+03  0.00000000000E+00 0. -1.
         11    1    1    2    0    0  0.10687715379E+02  0.63938150821E+00 -0.49639347150E+01  0.11801555686E+02  0.00000000000E+00 0.  1.
</event>
<event>
 7    1  0.2856214E-009  0.1037190E+03  0.7561462E-02  0.1272664E+00
          2   -1    0    0  501    0  0.00000000000E+00  0.00000000000E+00  0.15952958155E+03  0.15952958155E+03  0.00000000000E+00 0. -1.
         -2   -1    0    0    0  501 -0.00000000000E+00 -0.00000000000E+00 -0.13688824895E+03  0.13688824895E+03  0.00000000000E+00 0.  1.
         25    2    1    2    0    0 -0.53813574736E+02  0.24818177053E+02 -0.68498586733E+02  0.15443634358E+03  0.12508671031E+03 0.  0.
          5    1    3    3  502    0 -0.39022652745E+02  0.75055658080E+02 -0.32348677822E+02  0.90664373344E+02  0.41800000000E+01 0. -1.
         -5    1    3    3    0  502 -0.14790921991E+02 -0.50237481026E+02 -0.36149908912E+02  0.63771970234E+02  0.41800000000E+01 0. -1.
        -11    1    1    2    0    0  0.48590538021E+02 -0.40152595577E+01  0.10546461210E+03  0.11618927274E+03  0.00000000000E+00 0. -1.
         11    1    1    2    0    0  0.52230367150E+01 -0.20802917496E+02 -0.14324692773E+02  0.25792214172E+02  0.00000000000E+00 0.  1.
</event>
<event>
 7    1  0.2856214E-009  0.1501412E+03  0.7561462E-02  0.1200300E+00
          1   -1    0    0  501    0  0.00000000000E+00  0.00000000000E+00  0.34776777409E+02  0.34776777409E+02  0.00000000000E+00 0. -1.
         -1   -1    0    0    0  501 -0.00000000000E+00 -0.00000000000E+00 -0.85692609006E+03  0.85692609006E+03  0.00000000000E+00 0.  1.
         25    2    1    2    0    0 -0.12029902054E+03 -0.41426854702E+02 -0.46891849437E+03  0.50171698152E+03  0.12508931430E+03 0.  0.
          5    1    3    3  502    0 -0.11150535205E+03 -0.60213993662E+02 -0.46255826177E+03  0.47962150338E+03  0.41800000000E+01 0.  1.
         -5    1    3    3    0  502 -0.87936684876E+01  0.18787138960E+02 -0.63602325976E+01  0.22095478145E+02  0.41800000000E+01 0.  1.
        -11    1    1    2    0    0  0.61331521509E+02  0.64502791481E+02 -0.12716763372E+03  0.15522168890E+03  0.00000000000E+00 0. -1.
         11    1    1    2    0    0  0.58967499031E+02 -0.23075936778E+02 -0.22606318457E+03  0.23476419705E+03  0.00000000000E+00 0.  1.
</event>
<event>
 7    1  0.2856214E-009  0.9195228E+02  0.7561462E-02  0.1298192E+00
          1   -1    0    0  501    0  0.00000000000E+00  0.00000000000E+00  0.10278679260E+03  0.10278679260E+03  0.00000000000E+00 0. -1.
         -1   -1    0    0    0  501 -0.00000000000E+00 -0.00000000000E+00 -0.16400410997E+03  0.16400410997E+03  0.00000000000E+00 0.  1.
         25    2    1    2    0    0  0.14647370954E+01  0.37728817935E+02 -0.97050218807E+02  0.16277006526E+03  0.12509892093E+03 0.  0.
          5    1    3    3  502    0  0.46550429471E+02  0.63190076653E+02 -0.61957317365E+02  0.10008051682E+03  0.41800000000E+01 0. -1.
         -5    1    3    3    0  502 -0.45085692375E+02 -0.25461258718E+02 -0.35092901442E+02  0.62689548443E+02  0.41800000000E+01 0. -1.
        -11    1    1    2    0    0  0.17752885517E+02 -0.12805985122E+02  0.60304553771E+02  0.64154480784E+02  0.00000000000E+00 0. -1.
         11    1    1    2    0    0 -0.19217622613E+02 -0.24922832813E+02 -0.24471652336E+02  0.39866356523E+02  0.00000000000E+00 0.  1.
</event>
<event>
 7    1  0.2856214E-009  0.9886265E+02  0.7561462E-02  0.1282706E+00
         -4   -1    0    0    0  501 -0.00000000000E+00  0.00000000000E+00  0.13273276634E+03  0.13273276634E+03  0.00000000000E+00 0.  1.
          4   -1    0    0  501    0  0.00000000000E+00 -0.00000000000E+00 -0.14876005127E+03  0.14876005127E+03  0.00000000000E+00 0. -1.
         25    2    1    2    0    0  0.88033837953E+02  0.16279954132E+02  0.49617728808E+01  0.15390391657E+03  0.12508718086E+03 0.  0.
          5    1    3    3  502    0  0.89592173460E+01 -0.19224239271E+01 -0.53095837251E+02  0.54042609324E+02  0.41800000000E+01 0. -1.
         -5    1    3    3    0  502  0.79074620607E+02  0.18202378059E+02  0.58057610132E+02  0.99861307248E+02  0.41800000000E+01 0. -1.
        -11    1    1    2    0    0 -0.23007787844E+02 -0.32087491119E+02  0.24687599545E+02  0.46566543344E+02  0.00000000000E+00 0.  1.
         11    1    1    2    0    0 -0.65026050109E+02  0.15807536987E+02 -0.45676657363E+02  0.81022357694E+02  0.00000000000E+00 0. -1.
</event>
<event>
 7    1  0.2856214E-009  0.1110705E+03  0.7561462E-02  0.1258600E+00
          2   -1    0    0  501    0  0.00000000000E+00  0.00000000000E+00  0.26730083085E+02  0.26730083085E+02  0.00000000000E+00 0. -1.
         -2   -1    0    0    0  501 -0.00000000000E+00 -0.00000000000E+00 -0.65301599103E+03  0.65301599103E+03  0.00000000000E+00 0.  1.
         25    2    1    2    0    0  0.31347270381E+02 -0.65593034681E+02 -0.40177637135E+03  0.42703285030E+03  0.12509078744E+03 0.  0.
          5    1    3    3  502    0  0.27477554483E+02  0.24261202665E+02 -0.23147333401E+03  0.23439496307E+03  0.41800000000E+01 0. -1.
         -5    1    3    3    0  502  0.38697158974E+01 -0.89854237345E+02 -0.17030303734E+03  0.19263788724E+03  0.41800000000E+01 0. -1.
        -11    1    1    2    0    0  0.18808674978E+02  0.19540947557E+02 -0.14726479295E+03  0.14974155779E+03  0.00000000000E+00 0.  1.
         11    1    1    2    0    0 -0.50155945359E+02  0.46052087124E+02 -0.77244743645E+02  0.10297166603E+03  0.00000000000E+00 0. -1.
</event>
<event>
 7    1  0.2856214E-009  0.1358049E+03  0.7561462E-02  0.1219088E+00
         -2   -1    0    0    0  501 -0.00000000000E+00  0.00000000000E+00  0.29404793898E+02  0.29404793898E+02  0.00000000000E+00 0.  1.
          2   -1    0    0  501    0  0.00000000000E+00 -0.00000000000E+00 -0.15133546532E+04  0.15133546532E+04  0.00000000000E+00 0. -1.
         25    2    1    2    0    0 -0.10723167054E+03 -0.74896420072E+02 -0.12274494167E+04  0.12407211931E+04  0.12509557736E+03 0.  0.
          5    1    3    3  502    0 -0.10963765315E+03 -0.71800766021E+02 -0.64248803571E+03  0.65573173892E+03  0.41800000000E+01 0. -1.
         -5    1    3    3    0  502  0.24059826046E+01 -0.30956540505E+01 -0.58496138100E+03  0.58498945417E+03  0.41800000000E+01 0. -1.
        -11    1    1    2    0    0  0.16079115593E+01  0.11405749327E+02  0.53021508793E+01  0.12680272128E+02  0.00000000000E+00 0.  1.
         11    1    1    2    0    0  0.10562375898E+03  0.63490670744E+02 -0.26180259345E+03  0.28935798186E+03  0.00000000000E+00 0. -1.
</event>
<event>
 7    1  0.2856214E-009  0.1031553E+03  0.7561462E-02  0.1273797E+00
         -2   -1    0    0    0  501 -0.00000000000E+00  0.00000000000E+00  0.18037458967E+02  0.18037458967E+02  0.00000000000E+00 0.  1.
          2   -1    0    0  501    0  0.00000000000E+00 -0.00000000000E+00 -0.69534759022E+03  0.69534759022E+03  0.00000000000E+00 0. -1.
         25    2    1    2    0    0 -0.15332650531E+02  0.91345049596E+01 -0.46216000228E+03  0.47912141679E+03  0.12508770909E+03 0.  0.
          5    1    3    3  502    0  0.69614611307E+01 -0.51111596693E+02 -0.30380854690E+03  0.30818494906E+03  0.41800000000E+01 0.  1.
         -5    1    3    3    0  502 -0.22294111661E+02  0.60246101653E+02 -0.15835145539E+03  0.17093646774E+03  0.41800000000E+01 0.  1.
        -11    1    1    2    0    0  0.52277695493E+02 -0.10012371153E+02 -0.99360475253E+02  0.11271960373E+03  0.00000000000E+00 0.  1.
         11    1    1    2    0    0 -0.36945044962E+02  0.87786619296E+00 -0.11578965372E+03  0.12154402866E+03  0.00000000000E+00 0. -1.
</event>
<event>
 7    1  0.2856214E-009  0.2268843E+03  0.7561462E-02  0.1128852E+00
          2   -1    0    0  501    0  0.00000000000E+00  0.00000000000E+00  0.49726641746E+03  0.49726641746E+03  0.00000000000E+00 0.  1.
         -2   -1    0    0    0  501 -0.00000000000E+00 -0.00000000000E+00 -0.12537173422E+03  0.12537173422E+03  0.00000000000E+00 0. -1.
         25    2    1    2    0    0 -0.19650922382E+03  0.97215269577E+02  0.24533505112E+03  0.35200013861E+03  0.12509247215E+03 0.  0.
          5    1    3    3  502    0 -0.10440039284E+03  0.72787155015E+02  0.54212509378E+02  0.13839754526E+03  0.41800000000E+01 0. -1.
         -5    1    3    3    0  502 -0.92108830976E+02  0.24428114562E+02  0.19112254174E+03  0.21360259335E+03  0.41800000000E+01 0. -1.
        -11    1    1    2    0    0  0.12980151470E+03 -0.10064653310E+03  0.56143457082E+02  0.17358066026E+03  0.00000000000E+00 0.  1.
         11    1    1    2    0    0  0.66707709119E+02  0.34312635213E+01  0.70416175042E+02  0.97057352802E+02  0.00000000000E+00 0. -1.
</event>
<event>
 7    1  0.2856214E-009  0.1103896E+03  0.7561462E-02  0.1259850E+00
          1   -1    0    0  501    0  0.00000000000E+00  0.00000000000E+00  0.98695834207E+02  0.98695834207E+02  0.00000000000E+00 0. -1.
         -1   -1    0    0    0  501 -0.00000000000E+00 -0.00000000000E+00 -0.18177858467E+03  0.18177858467E+03  0.00000000000E+00 0.  1.
         25    2    1    2    0    0  0.47870489755E+01  0.77194824465E+02 -0.53087668763E+02  0.15635828239E+03  0.12509058772E+03 0.  0.
          5    1    3    3  502    0 -0.31893689841E+02 -0.10938273471E+02  0.16870198334E+02  0.37933221192E+02  0.41800000000E+01 0.  1.
         -5    1    3    3    0  502  0.36680738817E+02  0.88133097936E+02 -0.69957867096E+02  0.11842506120E+03  0.41800000000E+01 0.  1.
        -11    1    1    2    0    0  0.20527545488E+02 -0.19796837262E+02  0.27063789220E+02  0.39315945573E+02  0.00000000000E+00 0. -1.
         11    1    1    2    0    0 -0.25314594463E+02 -0.57397987204E+02 -0.57058870924E+02  0.84800190914E+02  0.00000000000E+00 0.  1.
</event>
<event>
 7    1  0.2856214E-009  0.2490311E+03  0.7561462E-02  0.1113919E+00
          2   -1    0    0  501    0  0.00000000000E+00  0.00000000000E+00  0.88271425963E+03  0.88271425963E+03  0.00000000000E+00 0. -1.
         -2   -1    0    0    0  501 -0.00000000000E+00 -0.00000000000E+00 -0.96629245272E+02  0.96629245272E+02  0.00000000000E+00 0.  1.
         25    2    1    2    0    0  0.19871172217E+03  0.12280848234E+03  0.63167174182E+03  0.68500070633E+03  0.12509399023E+03 0.  0.
          5    1    3    3  502    0 -0.82363009426E+01  0.70440113243E+01  0.12535003709E+03  0.12588708808E+03  0.41800000000E+01 0. -1.
         -5    1    3    3    0  502  0.20694802311E+03  0.11576447101E+03  0.50632170474E+03  0.55911361824E+03  0.41800000000E+01 0. -1.
        -11    1    1    2    0    0 -0.58407826335E+02 -0.86472996687E+02  0.79568048909E+02  0.13122548434E+03  0.00000000000E+00 0. -1.
         11    1    1    2    0    0 -0.14030389583E+03 -0.36335485652E+02  0.74845223624E+02  0.16311731423E+03  0.00000000000E+00 0.  1.
</event>
<event>
 7    1  0.2856214E-009  0.1471129E+03  0.7561462E-02  0.1204066E+00
         -3   -1    0    0    0  501 -0.00000000000E+00  0.00000000000E+00  0.44026220598E+03  0.44026220598E+03  0.00000000000E+00 0.  1.
          3   -1    0    0  501    0  0.00000000000E+00 -0.00000000000E+00 -0.61797711640E+02  0.61797711640E+02  0.00000000000E+00 0. -1.
         25    2    1    2    0    0  0.66891667651E+02 -0.10351748685E+03  0.20723700223E+03  0.27163621689E+03  0.12509473989E+03 0.  0.
          5    1    3    3  502    0  0.83892447319E+02 -0.94766338124E+02  0.21584841319E+03  0.25025309475E+03  0.41800000000E+01 0.  1.
         -5    1    3    3    0  502 -0.17000779668E+02 -0.87511487271E+01 -0.86114109608E+01  0.21383122132E+02  0.41800000000E+01 0.  1.
        -11    1    1    2    0    0  0.11684242775E+02  0.53758600357E+02  0.34079864707E+02  0.64714340142E+02  0.00000000000E+00 0. -1.
         11    1    1    2    0    0 -0.78575910426E+02  0.49758886493E+02  0.13714762740E+03  0.16570936059E+03  0.00000000000E+00 0.  1.
</event>
<event>
 7    1  0.2856214E-009  0.9147682E+02  0.7561462E-02  0.1299314E+00
          2   -1    0    0  501    0  0.00000000000E+00  0.00000000000E+00  0.10723041959E+03  0.10723041959E+03  0.00000000000E+00 0. -1.
         -2   -1    0    0    0  501 -0.00000000000E+00 -0.00000000000E+00 -0.14851644677E+03  0.14851644677E+03  0.00000000000E+00 0.  1.
         25    2    1    2    0    0 -0.41157050100E+02 -0.81040540893E+01  0.26520695944E+02  0.13457761876E+03  0.12509280431E+03 0.  0.
          5    1    3    3  502    0 -0.58046475973E+02  0.43936582974E+02  0.31597072631E+02  0.79471152597E+02  0.41800000000E+01 0.  1.
         -5    1    3    3    0  502  0.16889425872E+02 -0.52040637064E+02 -0.50763766872E+01  0.55106466159E+02  0.41800000000E+01 0.  1.
        -11    1    1    2    0    0  0.39777352749E+01 -0.12177237380E+02 -0.76810503274E+02  0.77871438290E+02  0.00000000000E+00 0.  1.
         11    1    1    2    0    0  0.37179314826E+02  0.20281291469E+02  0.90037801499E+01  0.43297809316E+02  0.00000000000E+00 0. -1.
</event>
<event>
 7    1  0.2856214E-009  0.1495458E+03  0.7561462E-02  0.1201032E+00
         -3   -1    0    0    0  501 -0.00000000000E+00  0.00000000000E+00  0.62430965219E+03  0.62430965219E+03  0.00000000000E+00 0.  1.
          3   -1    0    0  501    0  0.00000000000E+00 -0.00000000000E+00 -0.60183303146E+02  0.60183303146E+02  0.00000000000E+00 0. -1.
         25    2    1    2    0    0  0.82471870418E+02  0.85296842316E+02  0.10152122653E+03  0.20007783680E+03  0.12508965034E+03 0.  0.
          5    1    3    3  502    0  0.89585298583E+02  0.10270825450E+03  0.11348335789E+03  0.17739914369E+03  0.41800000000E+01 0. -1.
         -5    1    3    3    0  502 -0.71134281648E+01 -0.17411412182E+02 -0.11962131362E+02  0.22678693109E+02  0.41800000000E+01 0. -1.
        -11    1    1    2    0    0 -0.19978297014E+02 -0.78041988697E+02  0.27368036408E+03  0.28529042401E+03  0.00000000000E+00 0.  1.
         11    1    1    2    0    0 -0.62493573404E+02 -0.72548536190E+01  0.18892475844E+03  0.19912469453E+03  0.00000000000E+00 0. -1.
</event>
<event>
 7    1  0.2856214E-009  0.1484331E+03  0.7561462E-02  0.1202412E+00
         -3   -1    0    0    0  501 -0.00000000000E+00  0.00000000000E+00  0.34479501444E+03  0.34479501444E+03  0.00000000000E+00 0. -1.
          3   -1    0    0  501    0  0.00000000000E+00 -0.00000000000E+00 -0.91253334823E+02  0.91253334823E+02  0.00000000000E+00 0.  1.
         25    2    1    2    0    0  0.61511340574E+01 -0.11496223350E+03  0.17343907741E+03  0.24286437463E+03  0.12509132387E+03 0.  0.
          5    1    3    3  502    0  0.20250331423E+02 -0.88273979256E+02  0.28914589622E+02  0.95162478054E+02  0.41800000000E+01 0. -1.
         -5    1    3    3    0  502 -0.14099197365E+02 -0.26688254247E+02  0.14452448779E+03  0.14770189658E+03  0.41800000000E+01 0. -1.
        -11    1    1    2    0    0  0.24271073899E+02 -0.23609140698E+02  0.17492607322E+02  0.38111256390E+02  0.00000000000E+00 0.  1.
         11    1    1    2    0    0 -0.30422207956E+02  0.13857137420E+03  0.62609994886E+02  0.15507271825E+03  0.00000000000E+00 0. -1.
</event>
<event>
 7    1  0.2856214E-009  0.1062508E+03  0.7561462E-02  0.1267675E+00
         -2   -1    0    0    0  501 -0.00000000000E+00  0.00000000000E+00  0.37173533432E+03  0.37173533432E+03  0.00000000000E+00 0.  1.
          2   -1    0    0  501    0  0.00000000000E+00 -0.00000000000E+00 -0.52372711701E+02  0.52372711701E+02  0.00000000000E+00 0. -1.
         25    2    1    2    0    0  0.21094581883E+02 -0.19461934501E+02  0.50708906989E+02  0.13799465277E+03  0.12508949862E+03 0.  0.
          5    1    3    3  502    0  0.43653761505E+01 -0.69429310317E+02  0.48841607699E+02  0.85102647918E+02  0.41800000000E+01 0.  1.
         -5    1    3    3    0  502  0.16729205733E+02  0.49967375816E+02  0.18672992899E+01  0.52892004850E+02  0.41800000000E+01 0.  1.
        -11    1    1    2    0    0  0.20513937620E+02 -0.22781697098E+02  0.43064778291E+02  0.52862108250E+02  0.00000000000E+00 0. -1.
         11    1    1    2    0    0 -0.41608519504E+02  0.42243631599E+02  0.22558893734E+03  0.23325128500E+03  0.00000000000E+00 0.  1.
</event>
<event>
 7    1  0.2856214E-009  0.1166263E+03  0.7561462E-02  0.1248769E+00
         -2   -1    0    0    0  501 -0.00000000000E+00  0.00000000000E+00  0.29254076130E+02  0.29254076130E+02  0.00000000000E+00 0.  1.
          2   -1    0    0  501    0  0.00000000000E+00 -0.00000000000E+00 -0.56005111466E+03  0.56005111466E+03  0.00000000000E+00 0. -1.
         25    2    1    2    0    0 -0.54931482501E+02  0.17862554970E+02 -0.37997134327E+03  0.40418021073E+03  0.12508749897E+03 0.  0.
          5    1    3    3  502    0 -0.12797813663E+02  0.69256269329E+02 -0.21486045007E+03  0.22614751885E+03  0.41800000000E+01 0.  1.
         -5    1    3    3    0  502 -0.42133668839E+02 -0.51393714359E+02 -0.16511089319E+03  0.17803269188E+03  0.41800000000E+01 0.  1.
        -11    1    1    2    0    0  0.68712854762E+02 -0.32496459771E+02 -0.14577046033E+03  0.16439739479E+03  0.00000000000E+00 0. -1.
         11    1    1    2    0    0 -0.13781372260E+02  0.14633904800E+02 -0.50552349259E+01  0.20727585273E+02  0.00000000000E+00 0.  1.
</event>
<event>
 7    1  0.2856214E-009  0.1073736E+03  0.7561462E-02  0.1265512E+00
         -2   -1    0    0    0  501 -0.00000000000E+00  0.00000000000E+00  0.39679630140E+02  0.39679630140E+02  0.00000000000E+00 0.  1.
          2   -1    0    0  501    0  0.00000000000E+00 -0.00000000000E+00 -0.38705945376E+03  0.38705945376E+03  0.00000000000E+00 0. -1.
         25    2    1    2    0    0 -0.30397885918E+02  0.46865561949E+02 -0.22570924815E+03  0.26403103637E+03  0.12508921257E+03 0.  0.
          5    1    3    3  502    0 -0.21300725207E+02 -0.39060464548E+02 -0.43666693831E+02  0.62479543334E+02  0.41800000000E+01 0.  1.
         -5    1    3    3    0  502 -0.90971607115E+01  0.85926026498E+02 -0.18204255432E+03  0.20155149304E+03  0.41800000000E+01 0.  1.
        -11    1    1    2    0    0 -0.43429500789E+01  0.13347699578E+02 -0.80918873423E+02  0.82127257201E+02  0.00000000000E+00 0. -1.
         11    1    1    2    0    0  0.34740835997E+02 -0.60213261527E+02 -0.40751702040E+02  0.80580790321E+02  0.00000000000E+00 0.  1.
</event>
<event>
 7    1  0.2856214E-009  0.8240797E+02  0.7561462E-02  0.1322354E+00
         -1   -1    0    0    0  501 -0.00000000000E+00  0.00000000000E+00  0.20291199992E+03  0.20291199992E+03  0.00000000000E+00 0.  1.
          1   -1    0    0  501    0  0.00000000000E+00 -0.00000000000E+00 -0.73254629221E+02  0.73254629221E+02  0.00000000000E+00 0. -1.
         25    2    1    2    0    0 -0.23799120813E+02  0.46996363456E+02  0.52000777684E+02  0.14534867520E+03  0.12508836946E+03 0.  0.
          5    1    3    3  502    0  0.23365506644E+02  0.17740861209E+02 -0.32615940146E+02  0.44067641289E+02  0.41800000000E+01 0. -1.
         -5    1    3    3    0  502 -0.47164627456E+02  0.29255502247E+02  0.84616717830E+02  0.10128103392E+03  0.41800000000E+01 0. -1.
        -11    1    1    2    0    0  0.43467067210E+02 -0.38623713319E+02  0.89234377719E+02  0.10650798716E+03  0.00000000000E+00 0.  1.
         11    1    1    2    0    0 -0.19667946397E+02 -0.83726501373E+01 -0.11577784706E+02  0.24309966773E+02  0.00000000000E+00 0. -1.
</event>
<event>
 7    1  0.2856214E-009  0.1283918E+03  0.7561462E-02  0.1229862E+00
         -3   -1    0    0    0  501 -0.00000000000E+00  0.00000000000E+00  0.14205487142E+03  0.14205487142E+03  0.00000000000E+00 0.  1.
          3   -1    0    0  501    0  0.00000000000E+00 -0.00000000000E+00 -0.15356639921E+03  0.15356639921E+03  0.00000000000E+00 0. -1.
         25    2    1    2    0    0  0.99877220666E+02  0.26952120061E+01  0.50792363432E+01  0.16017627321E+03  0.12509163235E+03 0.  0.
          5    1    3    3  502    0  0.26681954922E+01  0.43037998687E+02  0.29038751379E+02  0.52154674573E+02  0.41800000000E+01 0.  1.
         -5    1    3    3    0  502  0.97209025174E+02 -0.40342786681E+02 -0.23959515036E+02  0.10802159864E+03  0.41800000000E+01 0.  1.
        -11    1    1    2    0    0 -0.31887966069E+02 -0.20422941592E+02  0.32361146562E+02  0.49811471872E+02  0.00000000000E+00 0.  1.
         11    1    1    2    0    0 -0.67989254597E+02  0.17727729585E+02 -0.48951910694E+02  0.85633525547E+02  0.00000000000E+00 0. -1.
</event>
<event>
 7    1  0.2856214E-009  0.8614530E+02  0.7561462E-02  0.1312464E+00
         -3   -1    0    0    0  501 -0.00000000000E+00  0.00000000000E+00  0.21076904598E+03  0.21076904598E+03  0.00000000000E+00 0.  1.
          3   -1    0    0  501    0  0.00000000000E+00 -0.00000000000E+00 -0.82951654096E+02  0.82951654096E+02  0.00000000000E+00 0. -1.
         25    2    1    2    0    0 -0.19421325823E+02 -0.69655391159E+02  0.64820332876E+02  0.15836209041E+03  0.12509122555E+03 0.  0.
          5    1    3    3  502    0 -0.14630042808E+02 -0.64566804308E+02  0.10124338927E+03  0.12103969035E+03  0.41800000000E+01 0.  1.
         -5    1    3    3    0  502 -0.47912830150E+01 -0.50885868515E+01 -0.36423056390E+02  0.37322400055E+02  0.41800000000E+01 0.  1.
        -11    1    1    2    0    0 -0.24579951514E+02  0.27336680953E+02 -0.11985209092E+02  0.38666695992E+02  0.00000000000E+00 0. -1.
         11    1    1    2    0    0  0.44001277337E+02  0.42318710206E+02  0.74982268099E+02  0.96691913675E+02  0.00000000000E+00 0.  1.
</event>
<event>
 7    1  0.2856214E-009  0.1221058E+03  0.7561462E-02  0.1239663E+00
         -1   -1    0    0    0  501 -0.00000000000E+00  0.00000000000E+00  0.82122439172E+02  0.82122439172E+02  0.00000000000E+00 0.  1.
          1   -1    0    0  501    0  0.00000000000E+00 -0.00000000000E+00 -0.21385279892E+03  0.21385279892E+03  0.00000000000E+00 0. -1.
         25    2    1    2    0    0 -0.74846185632E+02  0.68466604739E+01 -0.89798421160E+02  0.17134389516E+03  0.12508455422E+03 0.  0.
          5    1    3    3  502    0 -0.66103726066E+00 -0.48086815193E+02 -0.10100958190E+02  0.49318156109E+02  0.41800000000E+01 0. -1.
         -5    1    3    3    0  502 -0.74185148371E+02  0.54933475667E+02 -0.79697462970E+02  0.12202573905E+03  0.41800000000E+01 0. -1.
        -11    1    1    2    0    0  0.55261156698E+00 -0.26642933305E+02 -0.39573118013E+02  0.47709359081E+02  0.00000000000E+00 0. -1.
         11    1    1    2    0    0  0.74293574065E+02  0.19796272831E+02 -0.23588205791E+01  0.76921983853E+02  0.00000000000E+00 0.  1.
</event>
<event>
 7    1  0.2856214E-009  0.1228471E+03  0.7561462E-02  0.1238473E+00
         -1   -1    0    0    0  501 -0.00000000000E+00  0.00000000000E+00  0.15500074463E+03  0.15500074463E+03  0.00000000000E+00 0.  1.
          1   -1    0    0  501    0  0.00000000000E+00 -0.00000000000E+00 -0.20773323804E+03  0.20773323804E+03  0.00000000000E+00 0. -1.
         25    2    1    2    0    0 -0.81043619062E+02  0.47633353105E+02 -0.13706345058E+03  0.20801655991E+03  0.12508994841E+03 0.  0.
          5    1    3    3  502    0  0.10407253482E+02  0.41108838819E+02  0.53916301924E+00  0.42614676473E+02  0.41800000000E+01 0.  1.
         -5    1    3    3    0  502 -0.91450872544E+02  0.65245142855E+01 -0.13760261360E+03  0.16540188344E+03  0.41800000000E+01 0.  1.
        -11    1    1    2    0    0 -0.56397638785E+00 -0.27162705220E+02 -0.94139572491E+01  0.28753316597E+02  0.00000000000E+00 0. -1.
         11    1    1    2    0    0  0.81607595450E+02 -0.20470647885E+02  0.93744914427E+02  0.12596410616E+03  0.00000000000E+00 0.  1.
</event>
<event>
 7    1  0.2856214E-009  0.8055934E+02  0.7561462E-02  0.1327472E+00
          3   -1    0    0  501    0  0.00000000000E+00  0.00000000000E+00  0.31378410570E+02  0.31378410570E+02  0.00000000000E+00 0. -1.
         -3   -1    0    0    0  501 -0.00000000000E+00 -0.00000000000E+00 -0.47178438616E+03  0.47178438616E+03  0.00000000000E+00 0.  1.
         25    2    1    2    0    0  0.19046658352E+02  0.38600372331E+02 -0.33803234416E+03  0.36299703184E+03  0.12509282749E+03 0.  0.
          5    1    3    3  502    0 -0.10151073739E+02  0.35152405673E+02 -0.16942902611E+02  0.40537270154E+02  0.41800000000E+01 0. -1.
         -5    1    3    3    0  502  0.29197732092E+02  0.34479666576E+01 -0.32108944155E+03  0.32245976169E+03  0.41800000000E+01 0. -1.
        -11    1    1    2    0    0 -0.29323996018E+02 -0.62249131950E+02 -0.83564488385E+02  0.10824913344E+03  0.00000000000E+00 0.  1.
         11    1    1    2    0    0  0.10277337666E+02  0.23648759619E+02 -0.18809143043E+02  0.31916631449E+02  0.00000000000E+00 0. -1.
</event>
<event>
 7    1  0.2856214E-009  0.1768108E+03  0.7561462E-02  0.1170926E+00
         -1   -1    0    0    0  501 -0.00000000000E+00  0.00000000000E+00  0.43645684298E+02  0.43645684298E+02  0.00000000000E+00 0.  1.
          1   -1    0    0  501    0  0.00000000000E+00 -0.00000000000E+00 -0.80534503263E+03  0.80534503263E+03  0.00000000000E+00 0. -1.
         25    2    1    2    0    0 -0.28464150897E+02 -0.13812725640E+03 -0.26803199018E+03  0.32768688545E+03  0.12509276675E+03 0.  0.
          5    1    3    3  502    0  0.42706930137E+02 -0.94157814756E+02 -0.16686881691E+03  0.19634726996E+03  0.41800000000E+01 0.  1.
         -5    1    3    3    0  502 -0.71171081035E+02 -0.43969441647E+02 -0.10116317326E+03  0.13133961550E+03  0.41800000000E+01 0.  1.
        -11    1    1    2    0    0  0.70127444347E+01  0.14397865673E+03 -0.40490593400E+03  0.42979977613E+03  0.00000000000E+00 0.  1.
         11    1    1    2    0    0  0.21451406463E+02 -0.58514003265E+01 -0.88761424164E+02  0.91504055345E+02  0.00000000000E+00 0. -1.
</event>
<event>
 7    1  0.2856214E-009  0.1166197E+03  0.7561462E-02  0.1248780E+00
          1   -1    0    0  501    0  0.00000000000E+00  0.00000000000E+00  0.31261349227E+03  0.31261349227E+03  0.00000000000E+00 0. -1.
         -1   -1    0    0    0  501 -0.00000000000E+00 -0.00000000000E+00 -0.51116454633E+02  0.51116454633E+02  0.00000000000E+00 0.  1.
         25    2    1    2    0    0 -0.22811420304E+02  0.43787037908E+02  0.18034955448E+03  0.22496976886E+03  0.12509104490E+03 0.  0.
          5    1    3    3  502    0 -0.67344293958E+02  0.36186500691E+02  0.15529027965E+03  0.17313942392E+03  0.41800000000E+01 0.  1.
         -5    1    3    3    0  502  0.44532873654E+02  0.76005372161E+01  0.25059274833E+02  0.51830344944E+02  0.41800000000E+01 0.  1.
        -11    1    1    2    0    0 -0.25738139318E+02 -0.55661476080E+02  0.54892035823E+02  0.82303021401E+02  0.00000000000E+00 0. -1.
         11    1    1    2    0    0  0.48549559621E+02  0.11874438172E+02  0.26255447333E+02  0.56457156641E+02  0.00000000000E+00 0.  1.
</event>
<event>
 7    1  0.2856214E-009  0.1916578E+03  0.7561462E-02  0.1156975E+00
          1   -1    0    0  501    0  0.00000000000E+00  0.00000000000E+00  0.79216102226E+02  0.79216102226E+02  0.00000000000E+00 0. -1.
         -1   -1    0    0    0  501 -0.00000000000E+00 -0.00000000000E+00 -0.54033565633E+03  0.54033565633E+03  0.00000000000E+00 0.  1.
         25    2    1    2    0    0 -0.14438556616E+03 -0.67315080687E+02 -0.13252679340E+03  0.24205328072E+03  0.12509167812E+03 0.  0.
          5    1    3    3  502    0 -0.67022628305E+02 -0.94655844528E+02 -0.52563856501E+02  0.12740562397E+03  0.41800000000E+01 0.  1.
         -5    1    3    3    0  502 -0.77362937853E+02  0.27340763841E+02 -0.79962936897E+02  0.11464765675E+03  0.41800000000E+01 0.  1.
        -11    1    1    2    0    0 -0.13978792104E+02  0.70552245324E+01 -0.19496784505E+02  0.25006147802E+02  0.00000000000E+00 0. -1.
         11    1    1    2    0    0  0.15836435826E+03  0.60259856154E+02 -0.30909597620E+03  0.35249233004E+03  0.00000000000E+00 0.  1.
</event>
<event>
 7    1  0.2856214E-009  0.9876593E+02  0.7561462E-02  0.1282913E+00
         -1   -1    0    0    0  501 -0.00000000000E+00  0.00000000000E+00  0.28061931862E+03  0.28061931862E+03  0.00000000000E+00 0.  1.
          1   -1    0    0  501    0  0.00000000000E+00 -0.00000000000E+00 -0.43160406063E+02  0.43160406063E+02  0.00000000000E+00 0. -1.
         25    2    1    2    0    0 -0.10042858750E+02  0.52622607024E+01  0.16368759464E+03  0.20632581998E+03  0.12509262549E+03 0.  0.
          5    1    3    3  502    0 -0.57077185697E+02  0.34973120331E+02  0.11040083791E+03  0.12917717168E+03  0.41800000000E+01 0.  1.
         -5    1    3    3    0  502  0.47034326948E+02 -0.29710859628E+02  0.53286756739E+02  0.77148648303E+02  0.41800000000E+01 0.  1.
        -11    1    1    2    0    0  0.22251461659E+02 -0.35593502386E+02  0.62584992068E+01  0.42440473258E+02  0.00000000000E+00 0. -1.
         11    1    1    2    0    0 -0.12208602910E+02  0.30331241683E+02  0.67512818703E+02  0.75013431440E+02  0.00000000000E+00 0.  1.
</event>
<event>
 7    1  0.2856214E-009  0.1949093E+03  0.7561462E-02  0.1154107E+00
         -1   -1    0    0    0  501 -0.00000000000E+00  0.00000000000E+00  0.75504901822E+02  0.75504901822E+02  0.00000000000E+00 0.  1.
          1   -1    0    0  501    0  0.00000000000E+00 -0.00000000000E+00 -0.52255879375E+03  0.52255879375E+03  0.00000000000E+00 0. -1.
         25    2    1    2    0    0 -0.26368459760E+02 -0.16122546201E+03 -0.28302704571E+03  0.34991558468E+03  0.12509061728E+03 0.  0.
          5    1    3    3  502    0 -0.74552592494E+02 -0.83016190985E+02 -0.18000862303E+03  0.21182623487E+03  0.41800000000E+01 0. -1.
         -5    1    3    3    0  502  0.48184132735E+02 -0.78209271023E+02 -0.10301842268E+03  0.13808934982E+03  0.41800000000E+01 0. -1.
        -11    1    1    2    0    0  0.58207847429E+02  0.12556118959E+03 -0.12196538663E+03  0.18447038074E+03  0.00000000000E+00 0. -1.
         11    1    1    2    0    0 -0.31839387670E+02  0.35664272416E+02 -0.42061459588E+02  0.63677730148E+02  0.00000000000E+00 0.  1.
</event>
<event>
 7    1  0.2856214E-009  0.8254238E+02  0.7561462E-02  0.1321988E+00
          2   -1    0    0  501    0  0.00000000000E+00  0.00000000000E+00  0.26918368581E+03  0.26918368581E+03  0.00000000000E+00 0. -1.
         -2   -1    0    0    0  501 -0.00000000000E+00 -0.00000000000E+00 -0.48749593495E+02  0.48749593495E+02  0.00000000000E+00 0.  1.
         25    2    1    2    0    0 -0.33472255590E+02  0.10962827082E+02  0.11644140201E+03  0.17448731738E+03  0.12508656344E+03 0.  0.
          5    1    3    3  502    0  0.23053414189E+02  0.40721922159E+01  0.11493578953E+03  0.11737014429E+03  0.41800000000E+01 0. -1.
         -5    1    3    3    0  502 -0.56525669779E+02  0.68906348660E+01  0.15056124770E+01  0.57117173089E+02  0.41800000000E+01 0. -1.
        -11    1    1    2    0    0 -0.22022739365E+01  0.29889483118E+02  0.47424772118E+01  0.30343406231E+02  0.00000000000E+00 0. -1.
         11    1    1    2    0    0  0.35674529526E+02 -0.40852310200E+02  0.99250213101E+02  0.11310255570E+03  0.00000000000E+00 0.  1.
</event>
<event>
 7    1  0.2856214E-009  0.9103920E+02  0.7561462E-02  0.1300354E+00
          1   -1    0    0  501    0  0.00000000000E+00  0.00000000000E+00  0.14572372371E+03  0.14572372371E+03  0.00000000000E+00 0. -1.
         -1   -1    0    0    0  501 -0.00000000000E+00 -0.00000000000E+00 -0.14995112014E+03  0.14995112014E+03  0.00000000000E+00 0.  1.
         25    2    1    2    0    0 -0.21224431546E+02 -0.58796209352E+02 -0.80004377316E+02  0.16110675149E+03  0.12508882548E+03 0.  0.
          5    1    3    3  502    0  0.35048613070E+02 -0.51691298817E+02  0.43244111509E+00  0.62594369210E+02  0.41800000000E+01 0.  1.
         -5    1    3    3    0  502 -0.56273044616E+02 -0.71049105344E+01 -0.80436818431E+02  0.98512382285E+02  0.41800000000E+01 0.  1.
        -11    1    1    2    0    0  0.11894928043E+02  0.27690705407E+02 -0.18153336497E+02  0.35182497141E+02  0.00000000000E+00 0.  1.
         11    1    1    2    0    0  0.93295035035E+01  0.31105503945E+02  0.93930317388E+02  0.99385595213E+02  0.00000000000E+00 0. -1.
</event>
<event>
 7    1  0.2856214E-009  0.1001981E+03  0.7561462E-02  0.1279880E+00
          2   -1    0    0  501    0  0.00000000000E+00  0.00000000000E+00  0.85651526306E+03  0.85651526306E+03  0.00000000000E+00 0.  1.
         -2   -1    0    0    0  501 -0.00000000000E+00 -0.00000000000E+00 -0.26448982795E+02  0.26448982795E+02  0.00000000000E+00 0. -1.
         25    2    1    2    0    0 -0.25647919371E+02  0.59319229791E+02  0.67082303301E+03  0.68543974981E+03  0.12509005640E+03 0.  0.
          5    1    3    3  502    0  0.14316456643E+02 -0.24090259129E+00  0.49870413455E+03  0.49892715419E+03  0.41800000000E+01 0. -1.
         -5    1    3    3    0  502 -0.39964376014E+02  0.59560132382E+02  0.17211889846E+03  0.18651259563E+03  0.41800000000E+01 0. -1.
        -11    1    1    2    0    0  0.64088129725E+01  0.25688114203E+02  0.59136746423E+02  0.64792799542E+02  0.00000000000E+00 0. -1.
         11    1    1    2    0    0  0.19239106399E+02 -0.85007343994E+02  0.10010650083E+03  0.13273169650E+03  0.00000000000E+00 0.  1.
</event>
<event>
 7    1  0.2856214E-009  0.9404100E+02  0.7561462E-02  0.1293351E+00
          1   -1    0    0  501    0  0.00000000000E+00  0.00000000000E+00  0.62639507243E+02  0.62639507243E+02  0.00000000000E+00 0. -1.
         -1   -1    0    0    0  501 -0.00000000000E+00 -0.00000000000E+00 -0.22489718320E+03  0.22489718320E+03  0.00000000000E+00 0.  1.
         25    2    1    2    0    0  0.16757163107E+02 -0.38796908548E+02 -0.63924107501E+02  0.14669964540E+03  0.12509393196E+03 0.  0.
          5    1    3    3  502    0 -0.33755716573E+02 -0.54415526529E+02 -0.69978746837E+00  0.64175229110E+02  0.41800000000E+01 0. -1.
         -5    1    3    3    0  502  0.50512879680E+02  0.15618617981E+02 -0.63224320033E+02  0.82524416294E+02  0.41800000000E+01 0. -1.
        -11    1    1    2    0    0  0.89697072337E+00  0.49971569870E+02 -0.10709305842E+03  0.11818157857E+03  0.00000000000E+00 0.  1.
         11    1    1    2    0    0 -0.17654133830E+02 -0.11174661322E+02  0.87594899561E+01  0.22655466476E+02  0.00000000000E+00 0. -1.
</event>
<event>
 7    1  0.2856214E-009  0.2559303E+03  0.7561462E-02  0.1109613E+00
          1   -1    0    0  501    0  0.00000000000E+00  0.00000000000E+00  0.15290200988E+04  0.15290200988E+04  0.00000000000E+00 0.  1.
         -1   -1    0    0    0  501 -0.00000000000E+00 -0.00000000000E+00 -0.69364611091E+02  0.69364611091E+02  0.00000000000E+00 0. -1.
         25    2    1    2    0    0  0.10947780583E+03  0.22277690822E+03  0.29963440005E+03  0.40871023654E+03  0.12509333697E+03 0.  0.
          5    1    3    3  502    0  0.52344782997E+02  0.11987626332E+03  0.64885320057E+02  0.14607488481E+03  0.41800000000E+01 0.  1.
         -5    1    3    3    0  502  0.57133022837E+02  0.10290064490E+03  0.23474908000E+03  0.26263535173E+03  0.41800000000E+01 0.  1.
        -11    1    1    2    0    0 -0.44903505874E+02 -0.17791349887E+02  0.18024829582E+03  0.18660735547E+03  0.00000000000E+00 0. -1.
         11    1    1    2    0    0 -0.64574299960E+02 -0.20498555833E+03  0.97977279186E+03  0.10030671179E+04  0.00000000000E+00 0.  1.
</event>
<event>
 7    1  0.2856214E-009  0.7971756E+02  0.7561462E-02  0.1329855E+00
         -2   -1    0    0    0  501 -0.00000000000E+00  0.00000000000E+00  0.10960172746E+03  0.10960172746E+03  0.00000000000E+00 0.  1.
          2   -1    0    0  501    0  0.00000000000E+00 -0.00000000000E+00 -0.14573270900E+03  0.14573270900E+03  0.00000000000E+00 0. -1.
         25    2    1    2    0    0 -0.39906866586E+02  0.72811481378E+01 -0.72224930767E+02  0.15003243452E+03  0.12509083766E+03 0.  0.
          5    1    3    3  502    0  0.44534473883E+01 -0.19171044628E+02 -0.92296071941E+02  0.94463746705E+02  0.41800000000E+01 0. -1.
         -5    1    3    3    0  502 -0.44360313974E+02  0.26452192766E+02  0.20071141174E+02  0.55568687820E+02  0.41800000000E+01 0. -1.
        -11    1    1    2    0    0  0.32406627248E+02  0.33160548189E+02  0.43420995919E+02  0.63523179489E+02  0.00000000000E+00 0.  1.
         11    1    1    2    0    0  0.75002393378E+01 -0.40441696327E+02 -0.73270466941E+01  0.41778822448E+02  0.00000000000E+00 0. -1.
</event>
<event>
 7    1  0.2856214E-009  0.1516849E+03  0.7561462E-02  0.1198418E+00
         -2   -1    0    0    0  501 -0.00000000000E+00  0.00000000000E+00  0.37758098211E+02  0.37758098211E+02  0.00000000000E+00 0. -1.
          2   -1    0    0  501    0  0.00000000000E+00 -0.00000000000E+00 -0.81407469918E+03  0.81407469918E+03  0.00000000000E+00 0.  1.
         25    2    1    2    0    0  0.54896864034E+02  0.10290262183E+03 -0.58504079432E+03  0.60952699506E+03  0.12509121242E+03 0.  0.
          5    1    3    3  502    0  0.66275135990E+02  0.15453638652E+02 -0.13886155809E+03  0.15469716647E+03  0.41800000000E+01 0.  1.
         -5    1    3    3    0  502 -0.11378271956E+02  0.87448983182E+02 -0.44617923623E+03  0.45482982859E+03  0.41800000000E+01 0.  1.
        -11    1    1    2    0    0  0.13454099353E+02 -0.69568020606E+02 -0.11134654546E+03  0.13198020861E+03  0.00000000000E+00 0.  1.
         11    1    1    2    0    0 -0.68350963387E+02 -0.33334601227E+02 -0.79929261190E+02  0.11032559372E+03  0.00000000000E+00 0. -1.
</event>
<event>
 7    1  0.2856214E-009  0.1241730E+03  0.7561462E-02  0.1236367E+00
         -2   -1    0    0    0  501 -0.00000000000E+00  0.00000000000E+00  0.47253309101E+02  0.47253309101E+02  0.00000000000E+00 0.  1.
          2   -1    0    0  501    0  0.00000000000E+00 -0.00000000000E+00 -0.40661718533E+03  0.40661718533E+03  0.00000000000E+00 0. -1.
         25    2    1    2    0    0 -0.38804694290E+02  0.70813730445E+02 -0.25798599197E+03  0.29786611199E+03  0.12508820848E+03 0.  0.
          5    1    3    3  502    0  0.30690101941E+02 -0.11546048131E+02 -0.10929225033E+03  0.11418170592E+03  0.41800000000E+01 0. -1.
         -5    1    3    3    0  502 -0.69494796230E+02  0.82359778577E+02 -0.14869374164E+03  0.18368440607E+03  0.41800000000E+01 0. -1.
        -11    1    1    2    0    0 -0.84370821087E+01 -0.57846037320E+02 -0.21472316650E+02  0.62276871875E+02  0.00000000000E+00 0.  1.
         11    1    1    2    0    0  0.47241776398E+02 -0.12967693125E+02 -0.79905567614E+02  0.93727510571E+02  0.00000000000E+00 0. -1.
</event>
<event>
 7    1  0.2856214E-009  0.1446691E+03  0.7561462E-02  0.1207181E+00
         -1   -1    0    0    0  501 -0.00000000000E+00  0.00000000000E+00  0.18168536516E+03  0.18168536516E+03  0.00000000000E+00 0.  1.
          1   -1    0    0  501    0  0.00000000000E+00 -0.00000000000E+00 -0.12307664251E+03  0.12307664251E+03  0.00000000000E+00 0. -1.
         25    2    1    2    0    0 -0.23717447861E+02 -0.95179468259E+02 -0.42542891010E+01  0.15901902745E+03  0.12508918260E+03 0.  0.
          5    1    3    3  502    0  0.38658535301E+02 -0.86719232931E+02  0.54372532105E+01  0.95193192163E+02  0.41800000000E+01 0. -1.
         -5    1    3    3    0  502 -0.62375983162E+02 -0.84602353285E+01 -0.96915423116E+01  0.63825835283E+02  0.41800000000E+01 0. -1.
        -11    1    1    2    0    0 -0.31574348002E+02  0.52916109362E+02  0.34222845407E+02  0.70485865459E+02  0.00000000000E+00 0.  1.
         11    1    1    2    0    0  0.55291795863E+02  0.42263358897E+02  0.28640166341E+02  0.75257114767E+02  0.00000000000E+00 0. -1.
</event>
<event>
 7    1  0.2856214E-009  0.1154560E+03  0.7561462E-02  0.1250787E+00
         -2   -1    0    0    0  501 -0.00000000000E+00  0.00000000000E+00  0.16465831397E+03  0.16465831397E+03  0.00000000000E+00 0. -1.
          2   -1    0    0  501    0  0.00000000000E+00 -0.00000000000E+00 -0.10270977310E+03  0.10270977310E+03  0.00000000000E+00 0.  1.
         25    2    1    2    0    0  0.62740274710E+02  0.25373861032E+02  0.64782192147E+02  0.15628148951E+03  0.12508795565E+03 0.  0.
          5    1    3    3  502    0 -0.23636798004E+02 -0.16143377399E+02 -0.14011653991E+02  0.32141961690E+02  0.41800000000E+01 0. -1.
         -5    1    3    3    0  502  0.86377072714E+02  0.41517238431E+02  0.78793846138E+02  0.12413952782E+03  0.41800000000E+01 0. -1.
        -11    1    1    2    0    0 -0.52999546153E+02  0.22225577583E+02  0.14890435292E+02  0.59368790240E+02  0.00000000000E+00 0.  1.
         11    1    1    2    0    0 -0.97407285564E+01 -0.47599438615E+02 -0.17724086577E+02  0.51717807323E+02  0.00000000000E+00 0. -1.
</event>
<event>
 7    1  0.2856214E-009  0.1400080E+03  0.7561462E-02  0.1213318E+00
          2   -1    0    0  501    0  0.00000000000E+00  0.00000000000E+00  0.53027623449E+03  0.53027623449E+03  0.00000000000E+00 0. -1.
         -2   -1    0    0    0  501 -0.00000000000E+00 -0.00000000000E+00 -0.51817265710E+02  0.51817265710E+02  0.00000000000E+00 0.  1.
         25    2    1    2    0    0  0.67421588748E+02 -0.10233701826E+03  0.30266032461E+03  0.34967099475E+03  0.12509195234E+03 0.  0.
          5    1    3    3  502    0 -0.21874408697E+02 -0.10498912598E+01  0.12235929419E+03  0.12437387709E+03  0.41800000000E+01 0. -1.
         -5    1    3    3    0  502  0.89295997444E+02 -0.10128712700E+03  0.18030103042E+03  0.22529711766E+03  0.41800000000E+01 0. -1.
        -11    1    1    2    0    0 -0.17917685708E+02  0.30786349603E+02  0.12859240059E+03  0.13343480907E+03  0.00000000000E+00 0. -1.
         11    1    1    2    0    0 -0.49503903040E+02  0.71550668655E+02  0.47206243583E+02  0.98987696379E+02  0.00000000000E+00 0.  1.
</event>
<event>
 7    1  0.2856214E-009  0.1960727E+03  0.7561462E-02  0.1153095E+00
         -2   -1    0    0    0  501 -0.00000000000E+00  0.00000000000E+00  0.12915806564E+03  0.12915806564E+03  0.00000000000E+00 0.  1.
          2   -1    0    0  501    0  0.00000000000E+00 -0.00000000000E+00 -0.41653649218E+03  0.41653649218E+03  0.00000000000E+00 0. -1.
         25    2    1    2    0    0 -0.84432735299E+02  0.14314790475E+03 -0.28840548186E+03  0.35559085921E+03  0.12508768030E+03 0.  0.
          5    1    3    3  502    0  0.10479950021E+02  0.95354140882E+02 -0.17830341547E+03  0.20251375732E+03  0.41800000000E+01 0. -1.
         -5    1    3    3    0  502 -0.94912685321E+02  0.47793763864E+02 -0.11010206640E+03  0.15307710189E+03  0.41800000000E+01 0. -1.
        -11    1    1    2    0    0 -0.19616012895E+02 -0.31945994193E+02 -0.42168912426E+01  0.37724218728E+02  0.00000000000E+00 0.  1.
         11    1    1    2    0    0  0.10404874819E+03 -0.11120191055E+03  0.52439465632E+01  0.15237947988E+03  0.00000000000E+00 0. -1.
</event>
<event>
 7    1  0.2856214E-009  0.1164640E+03  0.7561462E-02  0.1249047E+00
          1   -1    0    0  501    0  0.00000000000E+00  0.00000000000E+00  0.26013839228E+03  0.26013839228E+03  0.00000000000E+00 0. -1.
         -1   -1    0    0    0  501 -0.00000000000E+00 -0.00000000000E+00 -0.58996833190E+02  0.58996833190E+02  0.00000000000E+00 0.  1.
         25    2    1    2    0    0 -0.69606504250E+02  0.16656408518E+02  0.12820108617E+03  0.19289026288E+03  0.12509449883E+03 0.  0.
          5    1    3    3  502    0  0.16928948871E+02  0.38820482665E+02  0.83751882435E+01  0.43373210192E+02  0.41800000000E+01 0.  1.
         -5    1    3    3    0  502 -0.86535453120E+02 -0.22164074147E+02  0.11982589793E+03  0.14951705268E+03  0.41800000000E+01 0.  1.
        -11    1    1    2    0    0  0.29827783916E+01  0.23145586790E+02  0.68833424821E+01  0.24330958849E+02  0.00000000000E+00 0.  1.
         11    1    1    2    0    0  0.66623725858E+02 -0.39801995308E+02  0.66057130438E+02  0.10191400375E+03  0.00000000000E+00 0. -1.
</event>
<event>
 7    1  0.2856214E-009  0.1086086E+03  0.7561462E-02  0.1263168E+00
          2   -1    0    0  501    0  0.00000000000E+00  0.00000000000E+00  0.58447717791E+03  0.58447717791E+03  0.00000000000E+00 0. -1.
         -2   -1    0    0    0  501 -0.00000000000E+00 -0.00000000000E+00 -0.23949096495E+02  0.23949096495E+02  0.00000000000E+00 0.  1.
         25    2    1    2    0    0 -0.41371984543E+01  0.35468081693E+02  0.25954001443E+03  0.29031662126E+03  0.12509044833E+03 0.  0.
          5    1    3    3  502    0 -0.42517097897E+02  0.65505842056E+02  0.12829661148E+03  0.15025382482E+03  0.41800000000E+01 0. -1.
         -5    1    3    3    0  502  0.38379899443E+02 -0.30037760363E+02  0.13124340295E+03  0.14006279644E+03  0.41800000000E+01 0. -1.
        -11    1    1    2    0    0 -0.24499879975E+02 -0.51676084075E+02  0.25636219345E+03  0.26266373182E+03  0.00000000000E+00 0. -1.
         11    1    1    2    0    0  0.28637078429E+02  0.16208002382E+02  0.44625873536E+02  0.55445921320E+02  0.00000000000E+00 0.  1.
</event>
<event>
 7    1  0.2856214E-009  0.9309735E+02  0.7561462E-02  0.1295520E+00
         -1   -1    0    0    0  501 -0.00000000000E+00  0.00000000000E+00  0.33947347325E+02  0.33947347325E+02  0.00000000000E+00 0.  1.
          1   -1    0    0  501    0  0.00000000000E+00 -0.00000000000E+00 -0.44101333066E+03  0.44101333066E+03  0.00000000000E+00 0. -1.
         25    2    1    2    0    0 -0.23593913196E+02  0.47027566585E+02 -0.27847098790E+03  0.30977824310E+03  0.12509278171E+03 0.  0.
          5    1    3    3  502    0  0.34769102722E+02 -0.23135379412E+02 -0.62571162631E+02  0.75344270371E+02  0.41800000000E+01 0.  1.
         -5    1    3    3    0  502 -0.58363015918E+02  0.70162945997E+02 -0.21589982527E+03  0.23443397273E+03  0.41800000000E+01 0.  1.
        -11    1    1    2    0    0  0.90666548145E+01 -0.23786628589E+02 -0.13471561897E+03  0.13709962044E+03  0.00000000000E+00 0. -1.
         11    1    1    2    0    0  0.14527258381E+02 -0.23240937996E+02  0.61206235345E+01  0.28082814451E+02  0.00000000000E+00 0.  1.
</event>
<event>
 7    1  0.2856214E-009  0.7907486E+02  0.7561462E-02  0.1331698E+00
         -2   -1    0    0    0  501 -0.00000000000E+00  0.00000000000E+00  0.10397816287E+02  0.10397816287E+02  0.00000000000E+00 0. -1.
          2   -1    0    0  501    0  0.00000000000E+00 -0.00000000000E+00 -0.10891955877E+04  0.10891955877E+04  0.00000000000E+00 0.  1.
         25    2    1    2    0    0  0.61965875287E+01  0.56675829030E+01 -0.80255558783E+03  0.81228666388E+03  0.12507451208E+03 0.  0.
          5    1    3    3  502    0  0.38678411996E+02 -0.16953542069E+02 -0.10035472605E+03  0.10895864162E+03  0.41800000000E+01 0. -1.
         -5    1    3    3    0  502 -0.32481824467E+02  0.22621124972E+02 -0.70220086178E+03  0.70332802227E+03  0.41800000000E+01 0. -1.
        -11    1    1    2    0    0  0.23666992997E+02 -0.29415831967E+02 -0.17701746445E+03  0.18099889626E+03  0.00000000000E+00 0.  1.
         11    1    1    2    0    0 -0.29863580525E+02  0.23748249064E+02 -0.99224719161E+02  0.10630784387E+03  0.00000000000E+00 0. -1.
</event>
<event>
 7    1  0.2856214E-009  0.1165923E+03  0.7561462E-02  0.1248827E+00
         -1   -1    0    0    0  501 -0.00000000000E+00  0.00000000000E+00  0.15058070988E+03  0.15058070988E+03  0.00000000000E+00 0.  1.
          1   -1    0    0  501    0  0.00000000000E+00 -0.00000000000E+00 -0.11472691168E+03  0.11472691168E+03  0.00000000000E+00 0. -1.
         25    2    1    2    0    0 -0.39292479590E+02 -0.51710234912E+02  0.47638861073E+02  0.14877711200E+03  0.12508925064E+03 0.  0.
          5    1    3    3  502    0 -0.49080950576E+02 -0.77469846828E+02  0.68012532697E+02  0.11425276312E+03  0.41800000000E+01 0. -1.
         -5    1    3    3    0  502  0.97884709856E+01  0.25759611916E+02 -0.20373671624E+02  0.34524348882E+02  0.41800000000E+01 0. -1.
        -11    1    1    2    0    0  0.69711368014E+02  0.42840670927E+02 -0.19075281008E+02  0.84017047445E+02  0.00000000000E+00 0. -1.
         11    1    1    2    0    0 -0.30418888424E+02  0.88695639847E+01  0.72902181281E+01  0.32513462113E+02  0.00000000000E+00 0.  1.
</event>
<event>
 7    1  0.2856214E-009  0.1137212E+03  0.7561462E-02  0.1253830E+00
          2   -1    0    0  501    0  0.00000000000E+00  0.00000000000E+00  0.24861692389E+03  0.24861692389E+03  0.00000000000E+00 0.  1.
         -2   -1    0    0    0  501 -0.00000000000E+00 -0.00000000000E+00 -0.13566582796E+03  0.13566582796E+03  0.00000000000E+00 0. -1.
         25    2    1    2    0    0  0.22732129242E+00 -0.58844726885E+02  0.20155115239E+03  0.24440322283E+03  0.12508922713E+03 0.  0.
          5    1    3    3  502    0 -0.44722113185E+02  0.73003189830E+01  0.12732403174E+03  0.13521184683E+03  0.41800000000E+01 0.  1.
         -5    1    3    3    0  502  0.44949434477E+02 -0.66145045868E+02  0.74227120647E+02  0.10919137600E+03  0.41800000000E+01 0.  1.
        -11    1    1    2    0    0 -0.41614963847E+02  0.26619867034E+02 -0.19463065551E+02  0.53096454284E+02  0.00000000000E+00 0.  1.
         11    1    1    2    0    0  0.41387642554E+02  0.32224859851E+02 -0.69136990909E+02  0.86783074736E+02  0.00000000000E+00 0. -1.
</event>
<event>
 7    1  0.2856214E-009  0.1112580E+03  0.7561462E-02  0.1258258E+00
         -1   -1    0    0    0  501 -0.00000000000E+00  0.00000000000E+00  0.36292170075E+02  0.36292170075E+02  0.00000000000E+00 0.  1.
          1   -1    0    0  501    0  0.00000000000E+00 -0.00000000000E+00 -0.38339810270E+03  0.38339810270E+03  0.00000000000E+00 0. -1.
         25    2    1    2    0    0 -0.24968629709E+01  0.46183290728E+02 -0.19789870790E+03  0.23864723193E+03  0.12509784991E+03 0.  0.
          5    1    3    3  502    0 -0.10186799678E+02 -0.42386529943E+02 -0.55104054030E+02  0.70386916248E+02  0.41800000000E+01 0.  1.
         -5    1    3    3    0  502  0.76899367067E+01  0.88569820671E+02 -0.14279465387E+03  0.16826031569E+03  0.41800000000E+01 0.  1.
        -11    1    1    2    0    0 -0.31330589907E+02 -0.46287123610E+02 -0.45857628933E+02  0.72298172919E+02  0.00000000000E+00 0.  1.
         11    1    1    2    0    0  0.33827452878E+02  0.10383288172E+00 -0.10334959579E+03  0.10874486792E+03  0.00000000000E+00 0. -1.
</event>
<event>
 7    1  0.2856214E-009  0.1093800E+03  0.7561462E-02  0.1261722E+00
         -3   -1    0    0    0  501 -0.00000000000E+00  0.00000000000E+00  0.75253171517E+03  0.75253171517E+03  0.00000000000E+00 0. -1.
          3   -1    0    0  501    0  0.00000000000E+00 -0.00000000000E+00 -0.23197940155E+02  0.23197940155E+02  0.00000000000E+00 0.  1.
         25    2    1    2    0    0 -0.63119037892E+02 -0.53772465529E+02  0.34353800400E+03  0.37488819759E+03  0.12508920620E+03 0.  0.
          5    1    3    3  502    0 -0.83180240015E+02 -0.50711754293E+02  0.34020395033E+03  0.35390229523E+03  0.41800000000E+01 0. -1.
         -5    1    3    3    0  502  0.20061202123E+02 -0.30607112359E+01  0.33340536696E+01  0.20985902358E+02  0.41800000000E+01 0. -1.
        -11    1    1    2    0    0  0.78305662349E+01  0.43621093894E+02  0.97265176206E+02  0.10688607067E+03  0.00000000000E+00 0. -1.
         11    1    1    2    0    0  0.55288471657E+02  0.10151371635E+02  0.28853059481E+03  0.29395538707E+03  0.00000000000E+00 0.  1.
</event>
<event>
 7    1  0.2856214E-009  0.2402863E+03  0.7561462E-02  0.1119602E+00
         -2   -1    0    0    0  501 -0.00000000000E+00  0.00000000000E+00  0.61569215336E+02  0.61569215336E+02  0.00000000000E+00 0.  1.
          2   -1    0    0  501    0  0.00000000000E+00 -0.00000000000E+00 -0.10115954267E+04  0.10115954267E+04  0.00000000000E+00 0. -1.
         25    2    1    2    0    0 -0.18811584666E+03  0.11039736958E+03 -0.56550522126E+03  0.61888488937E+03  0.12508876863E+03 0.  0.
          5    1    3    3  502    0 -0.20620991152E+03  0.10248343916E+03 -0.53286650818E+03  0.58050802824E+03  0.41800000000E+01 0. -1.
         -5    1    3    3    0  502  0.18094064867E+02  0.79139304274E+01 -0.32638713079E+02  0.38376861123E+02  0.41800000000E+01 0. -1.
        -11    1    1    2    0    0  0.17880041627E+03 -0.75726844027E+02 -0.25887340336E+03  0.32360405241E+03  0.00000000000E+00 0.  1.
         11    1    1    2    0    0  0.93154303822E+01 -0.34670525557E+02 -0.12564758671E+03  0.13067570024E+03  0.00000000000E+00 0. -1.
</event>
<event>
 7    1  0.2856214E-009  0.7611807E+02  0.7561462E-02  0.1340443E+00
         -3   -1    0    0    0  501 -0.00000000000E+00  0.00000000000E+00  0.30724249492E+03  0.30724249492E+03  0.00000000000E+00 0.  1.
          3   -1    0    0  501    0  0.00000000000E+00 -0.00000000000E+00 -0.43267627689E+02  0.43267627689E+02  0.00000000000E+00 0. -1.
         25    2    1    2    0    0 -0.14792211594E+02  0.29684367593E+02  0.11859709388E+03  0.17553861523E+03  0.12509421872E+03 0.  0.
          5    1    3    3  502    0 -0.34207729018E+02  0.33015168563E+02  0.13894367194E+03  0.14691149190E+03  0.41800000000E+01 0.  1.
         -5    1    3    3    0  502  0.19415517425E+02 -0.33308009699E+01 -0.20346578053E+02  0.28627123335E+02  0.41800000000E+01 0.  1.
        -11    1    1    2    0    0 -0.17378469488E+02 -0.45368794380E+02  0.37680688951E+02  0.61483111705E+02  0.00000000000E+00 0. -1.
         11    1    1    2    0    0  0.32170681081E+02  0.15684426786E+02  0.10769708440E+03  0.11348839567E+03  0.00000000000E+00 0.  1.
</event>
<event>
 7    1  0.2856214E-009  0.1134438E+03  0.7561462E-02  0.1254322E+00
          1   -1    0    0  501    0  0.00000000000E+00  0.00000000000E+00  0.63349823985E+03  0.63349823985E+03  0.00000000000E+00 0. -1.
         -1   -1    0    0    0  501 -0.00000000000E+00 -0.00000000000E+00 -0.30589391565E+02  0.30589391565E+02  0.00000000000E+00 0.  1.
         25    2    1    2    0    0 -0.78693012462E+02 -0.20977024877E+02  0.40994399398E+03  0.43627327380E+03  0.12509062893E+03 0.  0.
          5    1    3    3  502    0 -0.10348593303E+01  0.43935269194E+02  0.83202517167E+02  0.94188693992E+02  0.41800000000E+01 0. -1.
         -5    1    3    3    0  502 -0.77658153131E+02 -0.64912294071E+02  0.32674147681E+03  0.34208457980E+03  0.41800000000E+01 0. -1.
        -11    1    1    2    0    0  0.34292236297E+02  0.91564627314E+01  0.17486453730E+03  0.17843039171E+03  0.00000000000E+00 0. -1.
         11    1    1    2    0    0  0.44400776164E+02  0.11820562145E+02  0.18100317004E+02  0.49383965911E+02  0.00000000000E+00 0.  1.
</event>
<event>
 7    1  0.2856214E-009  0.1157731E+03  0.7561462E-02  0.1250238E+00
         -3   -1    0    0    0  501 -0.00000000000E+00  0.00000000000E+00  0.35292413957E+03  0.35292413957E+03  0.00000000000E+00 0.  1.
          3   -1    0    0  501    0  0.00000000000E+00 -0.00000000000E+00 -0.43428255414E+02  0.43428255414E+02  0.00000000000E+00 0. -1.
         25    2    1    2    0    0  0.50518595674E+02  0.18816268350E+00  0.12267659922E+03  0.18234389425E+03  0.12509030282E+03 0.  0.
          5    1    3    3  502    0  0.76351511292E+02 -0.35220064134E+02  0.51622067174E+02  0.98753817209E+02  0.41800000000E+01 0. -1.
         -5    1    3    3    0  502 -0.25832915617E+02  0.35408226817E+02  0.71054532045E+02  0.83590077041E+02  0.41800000000E+01 0. -1.
        -11    1    1    2    0    0 -0.71090568530E+02  0.20669281468E+02  0.11926240194E+03  0.14037310514E+03  0.00000000000E+00 0. -1.
         11    1    1    2    0    0  0.20571972856E+02 -0.20857444151E+02  0.67556882997E+02  0.73635395592E+02  0.00000000000E+00 0.  1.
</event>
<event>
 7    1  0.2856214E-009  0.2391470E+03  0.7561462E-02  0.1120362E+00
         -2   -1    0    0    0  501 -0.00000000000E+00  0.00000000000E+00  0.13820716384E+03  0.13820716384E+03  0.00000000000E+00 0.  1.
          2   -1    0    0  501    0  0.00000000000E+00 -0.00000000000E+00 -0.47821459067E+03  0.47821459067E+03  0.00000000000E+00 0. -1.
         25    2    1    2    0    0  0.32142137912E+02 -0.22217368923E+03 -0.10183353157E+03  0.27642687915E+03  0.12508991226E+03 0.  0.
          5    1    3    3  502    0  0.57610951021E+02 -0.86277087666E+02  0.13809220735E+01  0.10383706891E+03  0.41800000000E+01 0.  1.
         -5    1    3    3    0  502 -0.25468813109E+02 -0.13589660156E+03 -0.10321445365E+03  0.17258981024E+03  0.41800000000E+01 0.  1.
        -11    1    1    2    0    0 -0.47603558393E+02  0.79729203728E+02 -0.13320518686E+03  0.16237754311E+03  0.00000000000E+00 0. -1.
         11    1    1    2    0    0  0.15461420481E+02  0.14244448550E+03 -0.10496870839E+03  0.17761733225E+03  0.00000000000E+00 0.  1.
</event>
<event>
 7    1  0.2856214E-009  0.1085892E+03  0.7561462E-02  0.1263205E+00
          1   -1    0    0  501    0  0.00000000000E+00  0.00000000000E+00  0.12519578934E+03  0.12519578934E+03  0.00000000000E+00 0. -1.
         -1   -1    0    0    0  501 -0.00000000000E+00 -0.00000000000E+00 -0.10799639188E+03  0.10799639188E+03  0.00000000000E+00 0.  1.
         25    2    1    2    0    0 -0.21691005907E+02  0.31754797190E+02  0.62621121368E+01  0.13101439739E+03  0.12508673548E+03 0.  0.
          5    1    3    3  502    0  0.11631955458E+02  0.71573964742E+02  0.23184273795E+02  0.76243804785E+02  0.41800000000E+01 0. -1.
         -5    1    3    3    0  502 -0.33322961366E+02 -0.39819167552E+02 -0.16922161658E+02  0.54770592601E+02  0.41800000000E+01 0. -1.
        -11    1    1    2    0    0  0.11845728057E+01  0.28644374316E+02 -0.16120938996E+02  0.32890546769E+02  0.00000000000E+00 0.  1.
         11    1    1    2    0    0  0.20506433102E+02 -0.60399171506E+02  0.27058224316E+02  0.69287237067E+02  0.00000000000E+00 0. -1.
</event>
<event>
 7    1  0.2856214E-009  0.1162259E+03  0.7561462E-02  0.1249456E+00
         -1   -1    0    0    0  501 -0.00000000000E+00  0.00000000000E+00  0.30573676765E+02  0.30573676765E+02  0.00000000000E+00 0.  1.
          1   -1    0    0  501    0  0.00000000000E+00 -0.00000000000E+00 -0.59984312913E+03  0.59984312913E+03  0.00000000000E+00 0. -1.
         25    2    1    2    0    0  0.66350764626E+02  0.46547126569E+02 -0.30998194447E+03  0.34395548609E+03  0.12509001382E+03 0.  0.
          5    1    3    3  502    0  0.10037968673E+03  0.19120774219E+02 -0.24545268923E+03  0.26590633795E+03  0.41800000000E+01 0.  1.
         -5    1    3    3    0  502 -0.34028922105E+02  0.27426352349E+02 -0.64529255241E+02  0.78049148136E+02  0.41800000000E+01 0.  1.
        -11    1    1    2    0    0 -0.20531443399E+02  0.59022798865E+00 -0.16911407879E+01  0.20609427315E+02  0.00000000000E+00 0.  1.
         11    1    1    2    0    0 -0.45819321228E+02 -0.47137354557E+02 -0.25759636711E+03  0.26585189249E+03  0.00000000000E+00 0. -1.
</event>
<event>
 7    1  0.2856214E-009  0.7758336E+02  0.7561462E-02  0.1336053E+00
          1   -1    0    0  501    0  0.00000000000E+00  0.00000000000E+00  0.70618409272E+03  0.70618409272E+03  0.00000000000E+00 0. -1.
         -1   -1    0    0    0  501 -0.00000000000E+00 -0.00000000000E+00 -0.17444749512E+02  0.17444749512E+02  0.00000000000E+00 0.  1.
         25    2    1    2    0    0  0.23789812007E+02  0.13650522640E+01  0.39414459226E+03  0.41420439079E+03  0.12508996449E+03 0.  0.
          5    1    3    3  502    0  0.35434924248E+02  0.20270600568E+02  0.33833594533E+02  0.53185671218E+02  0.41800000000E+01 0.  1.
         -5    1    3    3    0  502 -0.11645112241E+02 -0.18905548305E+02  0.36031099773E+03  0.36101871957E+03  0.41800000000E+01 0.  1.
        -11    1    1    2    0    0  0.23836043425E+02 -0.28156903567E+02  0.15919795722E+03  0.16341651620E+03  0.00000000000E+00 0. -1.
         11    1    1    2    0    0 -0.47625855432E+02  0.26791851303E+02  0.13539679373E+03  0.14600793524E+03  0.00000000000E+00 0.  1.
</event>
<event>
 7    1  0.2856214E-009  0.1080289E+03  0.7561462E-02  0.1264264E+00
          2   -1    0    0  501    0  0.00000000000E+00  0.00000000000E+00  0.12890032092E+03  0.12890032092E+03  0.00000000000E+00 0. -1.
         -2   -1    0    0    0  501 -0.00000000000E+00 -0.00000000000E+00 -0.13018082239E+03  0.13018082239E+03  0.00000000000E+00 0.  1.
         25    2    1    2    0    0 -0.61547315145E+02 -0.19319636814E+02 -0.16048555275E+02  0.14165695427E+03  0.12509123150E+03 0.  0.
          5    1    3    3  502    0 -0.10591995495E+02  0.37677838730E+02  0.32457822087E+02  0.51017570646E+02  0.41800000000E+01 0. -1.
         -5    1    3    3    0  502 -0.50955319650E+02 -0.56997475544E+02 -0.48506377362E+02  0.90639383625E+02  0.41800000000E+01 0. -1.
        -11    1    1    2    0    0  0.79781327191E+02  0.13015703877E+02  0.36214010566E+02  0.88577216467E+02  0.00000000000E+00 0. -1.
         11    1    1    2    0    0 -0.18234012045E+02  0.63039329366E+01 -0.21445956758E+02  0.28846972579E+02  0.00000000000E+00 0.  1.
</event>
<event>
 7    1  0.2856214E-009  0.1021672E+03  0.7561462E-02  0.1275804E+00
         -2   -1    0    0    0  501 -0.00000000000E+00  0.00000000000E+00  0.49890084926E+02  0.49890084926E+02  0.00000000000E+00 0.  1.
          2   -1    0    0  501    0  0.00000000000E+00 -0.00000000000E+00 -0.24910562530E+03  0.24910562530E+03  0.00000000000E+00 0. -1.
         25    2    1    2    0    0 -0.80902249202E+01 -0.14614429235E+02 -0.14836999071E+03  0.19478402661E+03  0.12509248417E+03 0.  0.
          5    1    3    3  502    0  0.50420292773E+02  0.23844659093E+02 -0.70214183861E+02  0.89767910223E+02  0.41800000000E+01 0.  1.
         -5    1    3    3    0  502 -0.58510517693E+02 -0.38459088328E+02 -0.78155806851E+02  0.10501611638E+03  0.41800000000E+01 0.  1.
        -11    1    1    2    0    0 -0.31063712057E+02 -0.92443364334E+01 -0.48460058514E+02  0.58299135791E+02  0.00000000000E+00 0. -1.
         11    1    1    2    0    0  0.39153936977E+02  0.23858765668E+02 -0.23854911491E+01  0.45912547828E+02  0.00000000000E+00 0.  1.
</event>
<event>
 7    1  0.3314125E-009  0.1653220E+03  0.7561462E-02  0.1182816E+00
         -1   -1    0    0    0  501 -0.00000000000E+00  0.00000000000E+00  0.59361760816E+02  0.59361760816E+02  0.00000000000E+00 0.  1.
          1   -1    0    0  501    0  0.00000000000E+00 -0.00000000000E+00 -0.57029368196E+03  0.57029368196E+03  0.00000000000E+00 0. -1.
         25    2    1    2    0    0  0.10577109758E+03  0.94949281093E+02 -0.34114264127E+03  0.39016245128E+03  0.12508215553E+03 0.  0.
          5    1    3    3  502    0  0.32855189913E+02  0.10628155457E+03 -0.24314969843E+03  0.26742191494E+03  0.41800000000E+01 0.  1.
         -5    1    3    3    0  502  0.72915907671E+02 -0.11332273479E+02 -0.97992942843E+02  0.12274053634E+03  0.41800000000E+01 0.  1.
        -11    1    1    2    0    0 -0.35535211838E+01 -0.15629928647E+02  0.93190803923E+01  0.18540966579E+02  0.00000000000E+00 0.  1.
         11    1    1    2    0    0 -0.10221757640E+03 -0.79319352446E+02 -0.17910836027E+03  0.22095202492E+03  0.00000000000E+00 0. -1.
</event>
<event>
 7    1  0.2856214E-009  0.1947371E+03  0.7561462E-02  0.1154257E+00
          1   -1    0    0  501    0  0.00000000000E+00  0.00000000000E+00  0.51187025887E+03  0.51187025887E+03  0.00000000000E+00 0. -1.
         -1   -1    0    0    0  501 -0.00000000000E+00 -0.00000000000E+00 -0.96187493522E+02  0.96187493522E+02  0.00000000000E+00 0.  1.
         25    2    1    2    0    0  0.16931240836E+03 -0.52487949530E+02  0.32088809703E+03  0.38734887770E+03  0.12509318834E+03 0.  0.
          5    1    3    3  502    0 -0.12652374964E+01  0.24065767675E+02  0.71919634019E+02  0.75964913987E+02  0.41800000000E+01 0.  1.
         -5    1    3    3    0  502  0.17057764586E+03 -0.76553717205E+02  0.24896846302E+03  0.31138396372E+03  0.41800000000E+01 0.  1.
        -11    1    1    2    0    0 -0.81652463792E+02  0.16850112610E+02  0.94580427757E+02  0.12608135648E+03  0.00000000000E+00 0.  1.
         11    1    1    2    0    0 -0.87659944569E+02  0.35637836920E+02  0.21424055622E+00  0.94627518203E+02  0.00000000000E+00 0. -1.
</event>
<event>
 7    1  0.2856214E-009  0.9110370E+02  0.7561462E-02  0.1300201E+00
         -2   -1    0    0    0  501 -0.00000000000E+00  0.00000000000E+00  0.21426170201E+03  0.21426170201E+03  0.00000000000E+00 0.  1.
          2   -1    0    0  501    0  0.00000000000E+00 -0.00000000000E+00 -0.71144413282E+02  0.71144413282E+02  0.00000000000E+00 0. -1.
         25    2    1    2    0    0 -0.12137381320E+02 -0.42354940729E+02  0.12558947695E+03  0.18265184251E+03  0.12509085427E+03 0.  0.
          5    1    3    3  502    0 -0.35957462778E+02  0.65716854116E+01 -0.86043936286E+01  0.37784046478E+02  0.41800000000E+01 0.  1.
         -5    1    3    3    0  502  0.23820081458E+02 -0.48926626141E+02  0.13419387057E+03  0.14486779603E+03  0.41800000000E+01 0.  1.
        -11    1    1    2    0    0  0.30604926728E+02  0.58685500380E+02  0.32682932904E+02  0.73816147272E+02  0.00000000000E+00 0.  1.
         11    1    1    2    0    0 -0.18467545408E+02 -0.16330559651E+02 -0.15155121123E+02  0.28938125512E+02  0.00000000000E+00 0. -1.
</event>
<event>
 7    1  0.2856214E-009  0.7082783E+02  0.7561462E-02  0.1357300E+00
          1   -1    0    0  501    0  0.00000000000E+00  0.00000000000E+00  0.10315351758E+03  0.10315351758E+03  0.00000000000E+00 0. -1.
         -1   -1    0    0    0  501 -0.00000000000E+00 -0.00000000000E+00 -0.13654178492E+03  0.13654178492E+03  0.00000000000E+00 0.  1.
         25    2    1    2    0    0 -0.31044733054E+02  0.34251057690E+02 -0.21818296008E+02  0.13513332837E+03  0.12509223794E+03 0.  0.
          5    1    3    3  502    0 -0.49583405002E+02  0.47039008923E+02  0.32786705237E+02  0.75918527727E+02  0.41800000000E+01 0. -1.
         -5    1    3    3    0  502  0.18538671947E+02 -0.12787951232E+02 -0.54605001245E+02  0.59214800644E+02  0.41800000000E+01 0. -1.
        -11    1    1    2    0    0  0.22293020130E+02 -0.98860155572E+01 -0.51495101558E+02  0.56977693307E+02  0.00000000000E+00 0.  1.
         11    1    1    2    0    0  0.87517129246E+01 -0.24365042133E+02  0.39925130226E+02  0.47584280816E+02  0.00000000000E+00 0. -1.
</event>
<event>
 7    1  0.2856214E-009  0.1570130E+03  0.7561462E-02  0.1192111E+00
          1   -1    0    0  501    0  0.00000000000E+00  0.00000000000E+00  0.41856765717E+03  0.41856765717E+03  0.00000000000E+00 0. -1.
         -1   -1    0    0    0  501 -0.00000000000E+00 -0.00000000000E+00 -0.68515637315E+02  0.68515637315E+02  0.00000000000E+00 0.  1.
         25    2    1    2    0    0  0.10498406143E+03  0.63478853409E+02  0.24301403166E+03  0.29958995067E+03  0.12508837265E+03 0.  0.
          5    1    3    3  502    0  0.24639047344E+01  0.57333974437E+02  0.15115488548E+03  0.16173598009E+03  0.41800000000E+01 0.  1.
         -5    1    3    3    0  502  0.10252015670E+03  0.61448789727E+01  0.91859146181E+02  0.13785397058E+03  0.41800000000E+01 0.  1.
        -11    1    1    2    0    0 -0.11693752991E+03 -0.33833991505E+02  0.80437142094E+02  0.14590839150E+03  0.00000000000E+00 0.  1.
         11    1    1    2    0    0  0.11953468476E+02 -0.29644861904E+02  0.26600846100E+02  0.41584952316E+02  0.00000000000E+00 0. -1.
</event>
<event>
 7    1  0.2856214E-009  0.1150254E+03  0.7561462E-02  0.1251537E+00
          1   -1    0    0  501    0  0.00000000000E+00  0.00000000000E+00  0.75048569049E+02  0.75048569049E+02  0.00000000000E+00 0. -1.
         -1   -1    0    0    0  501 -0.00000000000E+00 -0.00000000000E+00 -0.24963967449E+03  0.24963967449E+03  0.00000000000E+00 0.  1.
         25    2    1    2    0    0  0.75370434539E+02 -0.29126555685E+02 -0.12667482811E+03  0.19550799430E+03  0.12509118718E+03 0.  0.
          5    1    3    3  502    0  0.50317433971E+02 -0.73639211556E+02 -0.10986738656E+03  0.14157292350E+03  0.41800000000E+01 0.  1.
         -5    1    3    3    0  502  0.25053000568E+02  0.44512655871E+02 -0.16807441551E+02  0.53935070795E+02  0.41800000000E+01 0.  1.
        -11    1    1    2    0    0 -0.12943346729E+02  0.23507943124E+02 -0.59653158599E+02  0.65411412959E+02  0.00000000000E+00 0.  1.
         11    1    1    2    0    0 -0.62427087810E+02  0.56186125603E+01  0.11736881264E+02  0.63768836286E+02  0.00000000000E+00 0. -1.
</event>
<event>
 7    1  0.2856214E-009  0.9326232E+02  0.7561462E-02  0.1295138E+00
         -2   -1    0    0    0  501 -0.00000000000E+00  0.00000000000E+00  0.20031624665E+02  0.20031624665E+02  0.00000000000E+00 0. -1.
          2   -1    0    0  501    0  0.00000000000E+00 -0.00000000000E+00 -0.67063146260E+03  0.67063146260E+03  0.00000000000E+00 0.  1.
         25    2    1    2    0    0  0.56075624077E+02  0.94227387906E+01 -0.39011053937E+03  0.41360311418E+03  0.12509212410E+03 0.  0.
          5    1    3    3  502    0  0.14139275057E+02 -0.38946985232E+02 -0.30063055022E+03  0.30350121397E+03  0.41800000000E+01 0. -1.
         -5    1    3    3    0  502  0.41936349021E+02  0.48369724023E+02 -0.89479989150E+02  0.11010190021E+03  0.41800000000E+01 0. -1.
        -11    1    1    2    0    0 -0.34280641451E+02  0.23271278662E+02 -0.20452263731E+03  0.20867732019E+03  0.00000000000E+00 0.  1.
         11    1    1    2    0    0 -0.21794982627E+02 -0.32694017452E+02 -0.55966661252E+02  0.68382652893E+02  0.00000000000E+00 0. -1.
</event>
<event>
 7    1  0.4268034E-009  0.1216090E+03  0.7561462E-02  0.1240466E+00
         -2   -1    0    0    0  501 -0.00000000000E+00  0.00000000000E+00  0.18594674061E+02  0.18594674061E+02  0.00000000000E+00 0.  1.
          2   -1    0    0  501    0  0.00000000000E+00 -0.00000000000E+00 -0.11369453883E+04  0.11369453883E+04  0.00000000000E+00 0. -1.
         25    2    1    2    0    0  0.93865585048E+02 -0.14150306037E+02 -0.54117731298E+03  0.56350020368E+03  0.12509442935E+03 0.  0.
          5    1    3    3  502    0 -0.66200235818E+01  0.18419409879E+02 -0.10903801877E+02  0.22791767546E+02  0.41800000000E+01 0.  1.
         -5    1    3    3    0  502  0.10048560863E+03 -0.32569715915E+02 -0.53027351110E+03  0.54070843614E+03  0.41800000000E+01 0.  1.
        -11    1    1    2    0    0 -0.47660466411E+00  0.23616526196E+02 -0.37903408953E+02  0.44661346507E+02  0.00000000000E+00 0.  1.
         11    1    1    2    0    0 -0.93388980384E+02 -0.94662201589E+01 -0.53926999233E+03  0.54737851219E+03  0.00000000000E+00 0. -1.
</event>
<event>
 7    1  0.2856214E-009  0.1350183E+03  0.7561462E-02  0.1220194E+00
          1   -1    0    0  501    0  0.00000000000E+00  0.00000000000E+00  0.13280220214E+04  0.13280220214E+04  0.00000000000E+00 0. -1.
         -1   -1    0    0    0  501 -0.00000000000E+00 -0.00000000000E+00 -0.14695704007E+02  0.14695704007E+02  0.00000000000E+00 0.  1.
         25    2    1    2    0    0  0.12623447733E+02  0.79636561111E+02  0.88273270848E+03  0.89518952197E+03  0.12508362131E+03 0.  0.
          5    1    3    3  502    0 -0.42196156088E+02 -0.94505370903E+01  0.29982321356E+03  0.30295422101E+03  0.41800000000E+01 0.  1.
         -5    1    3    3    0  502  0.54819603821E+02  0.89087098201E+02  0.58290949493E+03  0.59223530096E+03  0.41800000000E+01 0.  1.
        -11    1    1    2    0    0  0.37063045187E+02 -0.14075714321E+02  0.14529686915E+03  0.15060868247E+03  0.00000000000E+00 0.  1.
         11    1    1    2    0    0 -0.49686492920E+02 -0.65560846790E+02  0.28529673978E+03  0.29691952098E+03  0.00000000000E+00 0. -1.
</event>
<event>
 7    1  0.2856214E-009  0.1217291E+03  0.7561462E-02  0.1240271E+00
         -2   -1    0    0    0  501 -0.00000000000E+00  0.00000000000E+00  0.68350457127E+02  0.68350457127E+02  0.00000000000E+00 0.  1.
          2   -1    0    0  501    0  0.00000000000E+00 -0.00000000000E+00 -0.47257565577E+03  0.47257565577E+03  0.00000000000E+00 0. -1.
         25    2    1    2    0    0  0.53627331581E+02  0.88019522534E+02 -0.32530672644E+03  0.36344929044E+03  0.12509034101E+03 0.  0.
          5    1    3    3  502    0  0.51122332586E+02  0.61858924411E+01 -0.36563039628E+02  0.63293652298E+02  0.41800000000E+01 0.  1.
         -5    1    3    3    0  502  0.25049989945E+01  0.81833630093E+02 -0.28874368682E+03  0.30015563814E+03  0.41800000000E+01 0.  1.
        -11    1    1    2    0    0 -0.33097437557E+01 -0.40404742493E+02 -0.97635777719E+02  0.10571775021E+03  0.00000000000E+00 0. -1.
         11    1    1    2    0    0 -0.50317587825E+02 -0.47614780041E+02  0.18717305520E+02  0.71759072241E+02  0.00000000000E+00 0.  1.
</event>
<event>
 7    1  0.2856214E-009  0.1477689E+03  0.7561462E-02  0.1203242E+00
         -1   -1    0    0    0  501 -0.00000000000E+00  0.00000000000E+00  0.73514812848E+02  0.73514812848E+02  0.00000000000E+00 0.  1.
          1   -1    0    0  501    0  0.00000000000E+00 -0.00000000000E+00 -0.33263629113E+03  0.33263629113E+03  0.00000000000E+00 0. -1.
         25    2    1    2    0    0  0.56939696998E+02  0.91405817978E+02 -0.95766348315E+02  0.19082777258E+03  0.12508754000E+03 0.  0.
          5    1    3    3  502    0  0.27166488311E+02  0.11441486448E+03 -0.41734026810E+02  0.12485183497E+03  0.41800000000E+01 0.  1.
         -5    1    3    3    0  502  0.29773208687E+02 -0.23009046501E+02 -0.54032321505E+02  0.65975937611E+02  0.41800000000E+01 0.  1.
        -11    1    1    2    0    0 -0.74930503878E+02 -0.38736435399E+02 -0.91762799781E+02  0.12464149896E+03  0.00000000000E+00 0.  1.
         11    1    1    2    0    0  0.17990806880E+02 -0.52669382579E+02 -0.71592330182E+02  0.90681832439E+02  0.00000000000E+00 0. -1.
</event>
<event>
 7    1  0.2856214E-009  0.8737551E+02  0.7561462E-02  0.1309335E+00
          2   -1    0    0  501    0  0.00000000000E+00  0.00000000000E+00  0.65276043399E+02  0.65276043399E+02  0.00000000000E+00 0. -1.
         -2   -1    0    0    0  501 -0.00000000000E+00 -0.00000000000E+00 -0.19066136866E+03  0.19066136866E+03  0.00000000000E+00 0.  1.
         25    2    1    2    0    0  0.97864155438E+01  0.19714661996E+02 -0.54509444855E+02  0.13821716453E+03  0.12509301806E+03 0.  0.
          5    1    3    3  502    0  0.39282372109E+02 -0.16322714786E+02  0.22364324886E+02  0.48240762889E+02  0.41800000000E+01 0. -1.
         -5    1    3    3    0  502 -0.29495956565E+02  0.36037376782E+02 -0.76873769741E+02  0.89976401646E+02  0.41800000000E+01 0. -1.
        -11    1    1    2    0    0  0.15960712740E+00 -0.51727955577E+02 -0.17344300470E+02  0.54558515572E+02  0.00000000000E+00 0. -1.
         11    1    1    2    0    0 -0.99460226712E+01  0.32013293580E+02 -0.53531579934E+02  0.63161731951E+02  0.00000000000E+00 0.  1.
</event>
<event>
 7    1  0.2856214E-009  0.1423638E+03  0.7561462E-02  0.1210183E+00
         -1   -1    0    0    0  501 -0.00000000000E+00  0.00000000000E+00  0.64061305240E+02  0.64061305240E+02  0.00000000000E+00 0.  1.
          1   -1    0    0  501    0  0.00000000000E+00 -0.00000000000E+00 -0.32688100215E+03  0.32688100215E+03  0.00000000000E+00 0. -1.
         25    2    1    2    0    0  0.87490263930E+02  0.35896751335E+02 -0.11833380803E+03  0.19645261090E+03  0.12509042796E+03 0.  0.
          5    1    3    3  502    0  0.55185787838E+02  0.82751429707E+02 -0.70443966549E+02  0.12195529968E+03  0.41800000000E+01 0. -1.
         -5    1    3    3    0  502  0.32304476092E+02 -0.46854678372E+02 -0.47889841485E+02  0.74497311216E+02  0.41800000000E+01 0. -1.
        -11    1    1    2    0    0 -0.65590661200E+02  0.19593382561E+02 -0.94331820124E+02  0.11655268236E+03  0.00000000000E+00 0.  1.
         11    1    1    2    0    0 -0.21899602730E+02 -0.55490133896E+02 -0.50154068750E+02  0.77937014131E+02  0.00000000000E+00 0. -1.
</event>
<event>
 7    1  0.2856214E-009  0.9461602E+02  0.7561462E-02  0.1292043E+00
         -3   -1    0    0    0  501 -0.00000000000E+00  0.00000000000E+00  0.57555363287E+02  0.57555363287E+02  0.00000000000E+00 0.  1.
          3   -1    0    0  501    0  0.00000000000E+00 -0.00000000000E+00 -0.22895464611E+03  0.22895464611E+03  0.00000000000E+00 0. -1.
         25    2    1    2    0    0 -0.26949484256E+02  0.30911821545E+02 -0.11009906922E+03  0.17161137779E+03  0.12508734761E+03 0.  0.
          5    1    3    3  502    0 -0.45972340567E+02 -0.13030056629E+02  0.36698631082E+01  0.48105911988E+02  0.41800000000E+01 0. -1.
         -5    1    3    3    0  502  0.19022856310E+02  0.43941878174E+02 -0.11376893233E+03  0.12350546581E+03  0.41800000000E+01 0. -1.
        -11    1    1    2    0    0  0.53762990528E+02 -0.20437249850E+01 -0.51096919330E+02  0.74199266353E+02  0.00000000000E+00 0.  1.
         11    1    1    2    0    0 -0.26813506272E+02 -0.28868096560E+02 -0.10203294264E+02  0.40699365246E+02  0.00000000000E+00 0. -1.
</event>
<event>
 7    1  0.2856214E-009  0.2704228E+03  0.7561462E-02  0.1101038E+00
         -1   -1    0    0    0  501 -0.00000000000E+00  0.00000000000E+00  0.46842005461E+02  0.46842005461E+02  0.00000000000E+00 0.  1.
          1   -1    0    0  501    0  0.00000000000E+00 -0.00000000000E+00 -0.17225308967E+04  0.17225308967E+04  0.00000000000E+00 0. -1.
         25    2    1    2    0    0 -0.25886354338E+03  0.67860544188E+01 -0.99614538655E+03  0.10368266044E+04  0.12508953563E+03 0.  0.
          5    1    3    3  502    0 -0.15883275172E+03 -0.48934643953E+02 -0.47561750443E+03  0.50383720121E+03  0.41800000000E+01 0.  1.
         -5    1    3    3    0  502 -0.10003079166E+03  0.55720698372E+02 -0.52052788212E+03  0.53298940324E+03  0.41800000000E+01 0.  1.
        -11    1    1    2    0    0  0.60038975513E+02 -0.11513275999E+02 -0.78768559706E+02  0.99708174705E+02  0.00000000000E+00 0.  1.
         11    1    1    2    0    0  0.19882456787E+03  0.47272215798E+01 -0.60077494501E+03  0.63283812303E+03  0.00000000000E+00 0. -1.
</event>
<event>
 7    1  0.2856214E-009  0.1480217E+03  0.7561462E-02  0.1202925E+00
         -2   -1    0    0    0  501 -0.00000000000E+00  0.00000000000E+00  0.14290305219E+03  0.14290305219E+03  0.00000000000E+00 0.  1.
          2   -1    0    0  501    0  0.00000000000E+00 -0.00000000000E+00 -0.22567165124E+03  0.22567165124E+03  0.00000000000E+00 0. -1.
         25    2    1    2    0    0 -0.10303111657E+03  0.18759950770E+02 -0.14307835132E+03  0.21699402081E+03  0.12509054208E+03 0.  0.
          5    1    3    3  502    0  0.26884680854E+02 -0.11713917964E+02 -0.25000501561E+02  0.38762087367E+02  0.41800000000E+01 0. -1.
         -5    1    3    3    0  502 -0.12991579742E+03  0.30473868735E+02 -0.11807784976E+03  0.17823193344E+03  0.41800000000E+01 0. -1.
        -11    1    1    2    0    0  0.55353719967E+02 -0.51074774206E+02  0.55939479670E+02  0.93818400435E+02  0.00000000000E+00 0.  1.
         11    1    1    2    0    0  0.47677396599E+02  0.32314823436E+02  0.43702726072E+01  0.57762282182E+02  0.00000000000E+00 0. -1.
</event>
<event>
 7    1  0.2856214E-009  0.1286692E+03  0.7561462E-02  0.1229444E+00
          1   -1    0    0  501    0  0.00000000000E+00  0.00000000000E+00  0.17664629839E+03  0.17664629839E+03  0.00000000000E+00 0. -1.
         -1   -1    0    0    0  501 -0.00000000000E+00 -0.00000000000E+00 -0.12216703393E+03  0.12216703393E+03  0.00000000000E+00 0.  1.
         25    2    1    2    0    0  0.44804542923E+02 -0.83395804342E+02  0.81997062235E+02  0.17701535278E+03  0.12509440297E+03 0.  0.
          5    1    3    3  502    0  0.47776769476E+01  0.25787108576E+02  0.49540750807E+02  0.56209959583E+02  0.41800000000E+01 0. -1.
         -5    1    3    3    0  502  0.40026865975E+02 -0.10918291292E+03  0.32456311428E+02  0.12080539319E+03  0.41800000000E+01 0. -1.
        -11    1    1    2    0    0  0.10833638137E+02 -0.33696378494E+01 -0.13724875453E+02  0.17807144092E+02  0.00000000000E+00 0.  1.
         11    1    1    2    0    0 -0.55638181059E+02  0.86765442192E+02 -0.13792922325E+02  0.10399083544E+03  0.00000000000E+00 0. -1.
</event>
<event>
 7    1  0.2856214E-009  0.8549510E+02  0.7561462E-02  0.1314143E+00
         -3   -1    0    0    0  501 -0.00000000000E+00  0.00000000000E+00  0.72152712297E+02  0.72152712297E+02  0.00000000000E+00 0.  1.
          3   -1    0    0  501    0  0.00000000000E+00 -0.00000000000E+00 -0.20184195180E+03  0.20184195180E+03  0.00000000000E+00 0. -1.
         25    2    1    2    0    0  0.29945665558E+02 -0.43632155507E+02 -0.81554144455E+02  0.15842666878E+03  0.12508965993E+03 0.  0.
          5    1    3    3  502    0  0.46749038143E+02 -0.51340707038E+01 -0.10134561306E+03  0.11180445848E+03  0.41800000000E+01 0.  1.
         -5    1    3    3    0  502 -0.16803372585E+02 -0.38498084803E+02  0.19791468604E+02  0.46622210300E+02  0.41800000000E+01 0.  1.
        -11    1    1    2    0    0 -0.46481530095E+02  0.15625087321E+02  0.89691407084E+01  0.49850992756E+02  0.00000000000E+00 0.  1.
         11    1    1    2    0    0  0.16535864537E+02  0.28007068186E+02 -0.57104235757E+02  0.65717002563E+02  0.00000000000E+00 0. -1.
</event>
<event>
 7    1  0.2856214E-009  0.7374643E+02  0.7561462E-02  0.1347797E+00
         -3   -1    0    0    0  501 -0.00000000000E+00  0.00000000000E+00  0.18409473799E+03  0.18409473799E+03  0.00000000000E+00 0.  1.
          3   -1    0    0  501    0  0.00000000000E+00 -0.00000000000E+00 -0.66089326764E+02  0.66089326764E+02  0.00000000000E+00 0. -1.
         25    2    1    2    0    0  0.37168527988E+02  0.19065940367E+02  0.79887418012E+02  0.15418855416E+03  0.12508837325E+03 0.  0.
          5    1    3    3  502    0  0.45681945358E+02  0.31653132254E+02  0.10824219457E+03  0.12174812524E+03  0.41800000000E+01 0.  1.
         -5    1    3    3    0  502 -0.85134173703E+01 -0.12587191888E+02 -0.28354776560E+02  0.32440428923E+02  0.41800000000E+01 0.  1.
        -11    1    1    2    0    0  0.28787831499E+01 -0.33354835808E+02 -0.67802668232E+01  0.34158519909E+02  0.00000000000E+00 0. -1.
         11    1    1    2    0    0 -0.40047311138E+02  0.14288895441E+02  0.44898260036E+02  0.61836990681E+02  0.00000000000E+00 0.  1.
</event>
<event>
 7    1  0.2856214E-009  0.1143687E+03  0.7561462E-02  0.1252687E+00
          1   -1    0    0  501    0  0.00000000000E+00  0.00000000000E+00  0.60885718457E+03  0.60885718457E+03  0.00000000000E+00 0. -1.
         -1   -1    0    0    0  501 -0.00000000000E+00 -0.00000000000E+00 -0.36966522121E+02  0.36966522121E+02  0.00000000000E+00 0.  1.
         25    2    1    2    0    0 -0.44555314044E+02 -0.71069169179E+02  0.44985537138E+03  0.47440168635E+03  0.12510436458E+03 0.  0.
          5    1    3    3  502    0  0.26132750251E+02 -0.90338789075E+01  0.20056036358E+02  0.34412913248E+02  0.41800000000E+01 0. -1.
         -5    1    3    3    0  502 -0.70688064295E+02 -0.62035290271E+02  0.42979933502E+03  0.43998877310E+03  0.41800000000E+01 0. -1.
        -11    1    1    2    0    0 -0.15863061864E+02  0.39962030112E+01  0.59238337913E+02  0.61455569714E+02  0.00000000000E+00 0. -1.
         11    1    1    2    0    0  0.60418375908E+02  0.67072966168E+02  0.62796953160E+02  0.10996645063E+03  0.00000000000E+00 0.  1.
</event>
<event>
 7    1  0.2856214E-009  0.1109253E+03  0.7561462E-02  0.1258866E+00
          1   -1    0    0  501    0  0.00000000000E+00  0.00000000000E+00  0.10824209051E+04  0.10824209051E+04  0.00000000000E+00 0. -1.
         -1   -1    0    0    0  501 -0.00000000000E+00 -0.00000000000E+00 -0.17283618752E+02  0.17283618752E+02  0.00000000000E+00 0.  1.
         25    2    1    2    0    0 -0.52008915331E+01 -0.78701915930E+02  0.67803370404E+03  0.69397297558E+03  0.12509095162E+03 0.  0.
          5    1    3    3  502    0 -0.10361940678E+02 -0.88270776756E+02  0.67638150018E+03  0.68220855025E+03  0.41800000000E+01 0. -1.
         -5    1    3    3    0  502  0.51610491452E+01  0.95688608263E+01  0.16522038573E+01  0.11764425331E+02  0.41800000000E+01 0. -1.
        -11    1    1    2    0    0  0.42884612158E+02  0.70721797750E+02  0.27701941424E+03  0.28910278190E+03  0.00000000000E+00 0. -1.
         11    1    1    2    0    0 -0.37683720625E+02  0.79801181798E+01  0.11008416810E+03  0.11662876641E+03  0.00000000000E+00 0.  1.
</event>
<event>
 7    1  0.2856214E-009  0.1014819E+03  0.7561462E-02  0.1277210E+00
         -1   -1    0    0    0  501 -0.00000000000E+00  0.00000000000E+00  0.31458845200E+02  0.31458845200E+02  0.00000000000E+00 0.  1.
          1   -1    0    0  501    0  0.00000000000E+00 -0.00000000000E+00 -0.41046802522E+03  0.41046802522E+03  0.00000000000E+00 0. -1.
         25    2    1    2    0    0  0.35407732059E+01 -0.27970566863E+01 -0.28478756412E+03  0.31108128543E+03  0.12508896381E+03 0.  0.
          5    1    3    3  502    0 -0.14366458918E+02  0.58560883751E+02 -0.12219319625E+03  0.13632469277E+03  0.41800000000E+01 0. -1.
         -5    1    3    3    0  502  0.17907232123E+02 -0.61357940437E+02 -0.16259436786E+03  0.17475659266E+03  0.41800000000E+01 0. -1.
        -11    1    1    2    0    0  0.28165247171E+02 -0.23961738429E+02 -0.77956786742E+02  0.86282713541E+02  0.00000000000E+00 0. -1.
         11    1    1    2    0    0 -0.31706020377E+02  0.26758795116E+02 -0.16264829157E+02  0.44562871448E+02  0.00000000000E+00 0.  1.
</event>
<event>
 7    1  0.2856214E-009  0.1218605E+03  0.7561462E-02  0.1240059E+00
          4   -1    0    0  501    0  0.00000000000E+00  0.00000000000E+00  0.52708327237E+03  0.52708327237E+03  0.00000000000E+00 0. -1.
         -4   -1    0    0    0  501 -0.00000000000E+00 -0.00000000000E+00 -0.34841918851E+02  0.34841918851E+02  0.00000000000E+00 0.  1.
         25    2    1    2    0    0 -0.77997523074E+02 -0.26297125846E+02  0.31515449251E+03  0.34891930622E+03  0.12508867121E+03 0.  0.
          5    1    3    3  502    0  0.28985698186E+02 -0.27049822547E+02  0.58140062037E+02  0.70495409871E+02  0.41800000000E+01 0. -1.
         -5    1    3    3    0  502 -0.10698322126E+03  0.75269670061E+00  0.25701443047E+03  0.27842389634E+03  0.41800000000E+01 0. -1.
        -11    1    1    2    0    0  0.12210653294E+02  0.28455448763E+02  0.86281658438E+01  0.32144328645E+02  0.00000000000E+00 0.  1.
         11    1    1    2    0    0  0.65786869781E+02 -0.21583229172E+01  0.16845869516E+03  0.18086155636E+03  0.00000000000E+00 0. -1.
</event>
<event>
 7    1  0.2856214E-009  0.1108173E+03  0.7561462E-02  0.1259064E+00
         -1   -1    0    0    0  501 -0.00000000000E+00  0.00000000000E+00  0.18248596240E+02  0.18248596240E+02  0.00000000000E+00 0.  1.
          1   -1    0    0  501    0  0.00000000000E+00 -0.00000000000E+00 -0.73032160559E+03  0.73032160559E+03  0.00000000000E+00 0. -1.
         25    2    1    2    0    0  0.35238636210E+02  0.30931480527E+00 -0.45370152220E+03  0.47194532199E+03  0.12508180743E+03 0.  0.
          5    1    3    3  502    0 -0.25722137438E+02  0.46369458278E+02 -0.17206248412E+03  0.18009643488E+03  0.41800000000E+01 0. -1.
         -5    1    3    3    0  502  0.60960773648E+02 -0.46060143472E+02 -0.28163903808E+03  0.29184888711E+03  0.41800000000E+01 0. -1.
        -11    1    1    2    0    0 -0.92238415257E+01  0.41593016068E+02 -0.70372459724E+02  0.82263851877E+02  0.00000000000E+00 0.  1.
         11    1    1    2    0    0 -0.26014794684E+02 -0.41902330873E+02 -0.18799902743E+03  0.19436102796E+03  0.00000000000E+00 0. -1.
</event>
<event>
 7    1  0.2856214E-009  0.9551158E+02  0.7561462E-02  0.1290028E+00
          1   -1    0    0  501    0  0.00000000000E+00  0.00000000000E+00  0.58519080849E+02  0.58519080849E+02  0.00000000000E+00 0. -1.
         -1   -1    0    0    0  501 -0.00000000000E+00 -0.00000000000E+00 -0.22315759062E+03  0.22315759062E+03  0.00000000000E+00 0.  1.
         25    2    1    2    0    0  0.44758152850E+02 -0.14813256968E+02 -0.11560695485E+03  0.17673514650E+03  0.12509044396E+03 0.  0.
          5    1    3    3  502    0  0.77190085254E+02 -0.34010187065E+02 -0.10956772040E+03  0.13833856960E+03  0.41800000000E+01 0. -1.
         -5    1    3    3    0  502 -0.32431932404E+02  0.19196930097E+02 -0.60392344518E+01  0.38396576897E+02  0.41800000000E+01 0. -1.
        -11    1    1    2    0    0 -0.31530588251E+02  0.33338729666E+02 -0.63220410979E+02  0.78118302948E+02  0.00000000000E+00 0.  1.
         11    1    1    2    0    0 -0.13227564599E+02 -0.18525472697E+02  0.14188856054E+02  0.26823222029E+02  0.00000000000E+00 0. -1.
</event>
<event>
 7    1  0.2856214E-009  0.1049091E+03  0.7561462E-02  0.1270299E+00
          4   -1    0    0  501    0  0.00000000000E+00  0.00000000000E+00  0.18631096319E+03  0.18631096319E+03  0.00000000000E+00 0. -1.
         -4   -1    0    0    0  501 -0.00000000000E+00 -0.00000000000E+00 -0.99463096103E+02  0.99463096103E+02  0.00000000000E+00 0.  1.
         25    2    1    2    0    0  0.38273825263E+02  0.22315823677E+02 -0.25971947706E+02  0.13522237601E+03  0.12509063601E+03 0.  0.
          5    1    3    3  502    0 -0.45727713445E+02  0.41164245837E+01 -0.14958046900E+02  0.48468384492E+02  0.41800000000E+01 0.  1.
         -5    1    3    3    0  502  0.84001538708E+02  0.18199399093E+02 -0.11013900807E+02  0.86753991514E+02  0.41800000000E+01 0.  1.
        -11    1    1    2    0    0 -0.10827530508E+02  0.22580665014E+02  0.89602440896E+02  0.93036118061E+02  0.00000000000E+00 0. -1.
         11    1    1    2    0    0 -0.27446294755E+02 -0.44896488691E+02  0.23217373899E+02  0.57515565227E+02  0.00000000000E+00 0.  1.
</event>
<event>
 7    1  0.2856214E-009  0.1011930E+03  0.7561462E-02  0.1277807E+00
          3   -1    0    0  501    0  0.00000000000E+00  0.00000000000E+00  0.52632932186E+02  0.52632932186E+02  0.00000000000E+00 0. -1.
         -3   -1    0    0    0  501 -0.00000000000E+00 -0.00000000000E+00 -0.34864722983E+03  0.34864722983E+03  0.00000000000E+00 0.  1.
         25    2    1    2    0    0 -0.12233981785E+02 -0.62322340734E+01 -0.28676086138E+03  0.31315858174E+03  0.12509194476E+03 0.  0.
          5    1    3    3  502    0 -0.56583206382E+02  0.33693428872E+02 -0.14667283352E+03  0.16083313989E+03  0.41800000000E+01 0.  1.
         -5    1    3    3    0  502  0.44349224597E+02 -0.39925662946E+02 -0.14008802786E+03  0.15232544185E+03  0.41800000000E+01 0.  1.
        -11    1    1    2    0    0 -0.13037943602E+02 -0.29823098149E+02 -0.25335072596E+02  0.41246467243E+02  0.00000000000E+00 0.  1.
         11    1    1    2    0    0  0.25271925386E+02  0.36055332223E+02  0.16081636339E+02  0.46875113032E+02  0.00000000000E+00 0. -1.
</event>
<event>
 7    1  0.2856214E-009  0.1138494E+03  0.7561462E-02  0.1253603E+00
         -2   -1    0    0    0  501 -0.00000000000E+00  0.00000000000E+00  0.11081100252E+03  0.11081100252E+03  0.00000000000E+00 0.  1.
          2   -1    0    0  501    0  0.00000000000E+00 -0.00000000000E+00 -0.17097352521E+03  0.17097352521E+03  0.00000000000E+00 0. -1.
         25    2    1    2    0    0 -0.74751309932E+02  0.38209726622E+02 -0.12471307487E+02  0.15116339772E+03  0.12508835979E+03 0.  0.
          5    1    3    3  502    0 -0.51741784943E+02 -0.37740108288E+02  0.17021607068E+02  0.66398310143E+02  0.41800000000E+01 0.  1.
         -5    1    3    3    0  502 -0.23009524990E+02  0.75949834910E+02 -0.29492914556E+02  0.84765087578E+02  0.41800000000E+01 0.  1.
        -11    1    1    2    0    0  0.17289157540E+02 -0.69290694044E+01  0.26060622165E+02  0.32032530323E+02  0.00000000000E+00 0.  1.
         11    1    1    2    0    0  0.57462152392E+02 -0.31280657218E+02 -0.73751837367E+02  0.98588599688E+02  0.00000000000E+00 0. -1.
</event>
<event>
 7    1  0.2856214E-009  0.1124468E+03  0.7561462E-02  0.1256105E+00
          2   -1    0    0  501    0  0.00000000000E+00  0.00000000000E+00  0.51765453088E+03  0.51765453088E+03  0.00000000000E+00 0. -1.
         -2   -1    0    0    0  501 -0.00000000000E+00 -0.00000000000E+00 -0.33522338066E+02  0.33522338066E+02  0.00000000000E+00 0.  1.
         25    2    1    2    0    0  0.53893261132E+02  0.48026425073E+02  0.31966107224E+03  0.35077365704E+03  0.12509171144E+03 0.  0.
          5    1    3    3  502    0  0.18041962801E+02  0.67280143686E+02  0.73936540740E+02  0.10166717569E+03  0.41800000000E+01 0.  1.
         -5    1    3    3    0  502  0.35851298331E+02 -0.19253718612E+02  0.24572453150E+03  0.24910648135E+03  0.41800000000E+01 0.  1.
        -11    1    1    2    0    0 -0.25686846160E+02 -0.72464326879E+02  0.10378137928E+03  0.12915675522E+03  0.00000000000E+00 0. -1.
         11    1    1    2    0    0 -0.28206414973E+02  0.24437901805E+02  0.60689741295E+02  0.71246456675E+02  0.00000000000E+00 0.  1.
</event>
<event>
 7    1  0.2856214E-009  0.2529024E+03  0.7561462E-02  0.1111484E+00
          1   -1    0    0  501    0  0.00000000000E+00  0.00000000000E+00  0.28226351533E+03  0.28226351533E+03  0.00000000000E+00 0. -1.
         -1   -1    0    0    0  501 -0.00000000000E+00 -0.00000000000E+00 -0.27266555458E+03  0.27266555458E+03  0.00000000000E+00 0.  1.
         25    2    1    2    0    0 -0.24567492918E+03 -0.39377273915E+02  0.59617047668E+02  0.28479732794E+03  0.12509430482E+03 0.  0.
          5    1    3    3  502    0 -0.18874307729E+03 -0.13876858569E+02 -0.12061680296E+02  0.18968255840E+03  0.41800000000E+01 0.  1.
         -5    1    3    3    0  502 -0.56931851895E+02 -0.25500415346E+02  0.71678727963E+02  0.95114769545E+02  0.41800000000E+01 0.  1.
        -11    1    1    2    0    0  0.29916971771E+02  0.22754288739E+02 -0.37926674486E+02  0.53396774187E+02  0.00000000000E+00 0.  1.
         11    1    1    2    0    0  0.21575795741E+03  0.16622985176E+02 -0.12092412434E+02  0.21673496779E+03  0.00000000000E+00 0. -1.
</event>
<event>
 7    1  0.2856214E-009  0.1177414E+03  0.7561462E-02  0.1246870E+00
          2   -1    0    0  501    0  0.00000000000E+00  0.00000000000E+00  0.12087875000E+03  0.12087875000E+03  0.00000000000E+00 0. -1.
         -2   -1    0    0    0  501 -0.00000000000E+00 -0.00000000000E+00 -0.12269977092E+03  0.12269977092E+03  0.00000000000E+00 0.  1.
         25    2    1    2    0    0  0.24649220444E+02  0.45876974861E+02 -0.22013857794E+02  0.13727634186E+03  0.12509157928E+03 0.  0.
          5    1    3    3  502    0  0.74451517465E+02  0.35271183853E+02 -0.24720842648E+02  0.86114327057E+02  0.41800000000E+01 0. -1.
         -5    1    3    3    0  502 -0.49802297021E+02  0.10605791008E+02  0.27069848545E+01  0.51162014801E+02  0.41800000000E+01 0. -1.
        -11    1    1    2    0    0 -0.48497269153E+02 -0.57626035730E+02  0.24852040656E+02  0.79311846744E+02  0.00000000000E+00 0. -1.
         11    1    1    2    0    0  0.23848048709E+02  0.11749060868E+02 -0.46592037815E+01  0.26990332313E+02  0.00000000000E+00 0.  1.
</event>
<event>
 7    1  0.2856214E-009  0.1100038E+03  0.7561462E-02  0.1260563E+00
         -1   -1    0    0    0  501 -0.00000000000E+00  0.00000000000E+00  0.79485372931E+02  0.79485372931E+02  0.00000000000E+00 0.  1.
          1   -1    0    0  501    0  0.00000000000E+00 -0.00000000000E+00 -0.49354409184E+03  0.49354409184E+03  0.00000000000E+00 0. -1.
         25    2    1    2    0    0 -0.45683886578E+02 -0.75340203269E+02 -0.41902594244E+03  0.44608714854E+03  0.12509132636E+03 0.  0.
          5    1    3    3  502    0 -0.30682605778E+02 -0.72396134093E+02 -0.42257294514E+03  0.42984647130E+03  0.41800000000E+01 0. -1.
         -5    1    3    3    0  502 -0.15001280800E+02 -0.29440691759E+01  0.35470026958E+01  0.16240677236E+02  0.41800000000E+01 0. -1.
        -11    1    1    2    0    0  0.49855943334E+01  0.83718251157E+02 -0.56466773485E+01  0.84056449442E+02  0.00000000000E+00 0.  1.
         11    1    1    2    0    0  0.40698292245E+02 -0.83780478882E+01  0.10613900884E+02  0.42885866787E+02  0.00000000000E+00 0. -1.
</event>
<event>
 7    1  0.2856214E-009  0.2027058E+03  0.7561462E-02  0.1147476E+00
          2   -1    0    0  501    0  0.00000000000E+00  0.00000000000E+00  0.59268578883E+02  0.59268578883E+02  0.00000000000E+00 0. -1.
         -2   -1    0    0    0  501 -0.00000000000E+00 -0.00000000000E+00 -0.71893622799E+03  0.71893622799E+03  0.00000000000E+00 0.  1.
         25    2    1    2    0    0 -0.12252168766E+03 -0.12589965526E+03 -0.35846027903E+03  0.41833311704E+03  0.12508612245E+03 0.  0.
          5    1    3    3  502    0 -0.13445766266E+03 -0.13680610575E+03 -0.28898090094E+03  0.34687491568E+03  0.41800000000E+01 0.  1.
         -5    1    3    3    0  502  0.11935975004E+02  0.10906450499E+02 -0.69479378090E+02  0.71458201360E+02  0.41800000000E+01 0.  1.
        -11    1    1    2    0    0  0.21021968267E+02  0.84756977717E+02 -0.12840023797E+03  0.15528132384E+03  0.00000000000E+00 0. -1.
         11    1    1    2    0    0  0.10149971939E+03  0.41142677538E+02 -0.17280713211E+03  0.20459036600E+03  0.00000000000E+00 0.  1.
</event>
<event>
 7    1  0.2856214E-009  0.1091012E+03  0.7561462E-02  0.1262243E+00
          4   -1    0    0  501    0  0.00000000000E+00  0.00000000000E+00  0.67796839973E+03  0.67796839973E+03  0.00000000000E+00 0. -1.
         -4   -1    0    0    0  501 -0.00000000000E+00 -0.00000000000E+00 -0.35849566855E+02  0.35849566855E+02  0.00000000000E+00 0.  1.
         25    2    1    2    0    0 -0.38709485526E+02 -0.76163223285E+02  0.18714351037E+03  0.24076734003E+03  0.12508779997E+03 0.  0.
          5    1    3    3  502    0 -0.33302238147E+02 -0.26026591496E+02 -0.43563921170E+01  0.42695117786E+02  0.41800000000E+01 0.  1.
         -5    1    3    3    0  502 -0.54072473791E+01 -0.50136631789E+02  0.19149990249E+03  0.19807222225E+03  0.41800000000E+01 0.  1.
        -11    1    1    2    0    0 -0.30274238712E+02  0.22007572907E+02  0.85928528511E+02  0.93726062580E+02  0.00000000000E+00 0.  1.
         11    1    1    2    0    0  0.68983724238E+02  0.54155650378E+02  0.36904679399E+03  0.37932456397E+03  0.00000000000E+00 0. -1.
</event>
<event>
 7    1  0.2856214E-009  0.7348711E+02  0.7561462E-02  0.1348621E+00
          1   -1    0    0  501    0  0.00000000000E+00  0.00000000000E+00  0.61660835522E+03  0.61660835522E+03  0.00000000000E+00 0. -1.
         -1   -1    0    0    0  501 -0.00000000000E+00 -0.00000000000E+00 -0.19800314999E+02  0.19800314999E+02  0.00000000000E+00 0.  1.
         25    2    1    2    0    0  0.36486012548E+01 -0.19154725122E+02  0.31297838855E+03  0.33761393233E+03  0.12508988694E+03 0.  0.
          5    1    3    3  502    0 -0.18957121845E+02 -0.23833417378E+02  0.80379684481E+01  0.31772402951E+02  0.41800000000E+01 0.  1.
         -5    1    3    3    0  502  0.22605723100E+02  0.46786922551E+01  0.30494042010E+03  0.30584152938E+03  0.41800000000E+01 0.  1.
        -11    1    1    2    0    0 -0.46093001770E+02  0.20183358710E+02  0.13692953386E+03  0.14588224711E+03  0.00000000000E+00 0.  1.
         11    1    1    2    0    0  0.42444400515E+02 -0.10286335879E+01  0.14690011781E+03  0.15291249077E+03  0.00000000000E+00 0. -1.
</event>
<event>
 7    1  0.2856214E-009  0.9078621E+02  0.7561462E-02  0.1300959E+00
         -2   -1    0    0    0  501 -0.00000000000E+00  0.00000000000E+00  0.26584393279E+03  0.26584393279E+03  0.00000000000E+00 0.  1.
          2   -1    0    0  501    0  0.00000000000E+00 -0.00000000000E+00 -0.48192056500E+02  0.48192056500E+02  0.00000000000E+00 0. -1.
         25    2    1    2    0    0 -0.14384620845E+02 -0.10858905337E+02  0.84979736697E+02  0.15229690650E+03  0.12509180204E+03 0.  0.
          5    1    3    3  502    0 -0.13315842179E+02 -0.56799011015E+02  0.88433635457E+02  0.10602556100E+03  0.41800000000E+01 0.  1.
         -5    1    3    3    0  502 -0.10687786657E+01  0.45940105678E+02 -0.34538987606E+01  0.46271345498E+02  0.41800000000E+01 0.  1.
        -11    1    1    2    0    0 -0.30560182968E+02  0.93997523477E+01  0.14133775109E+02  0.34957742005E+02  0.00000000000E+00 0. -1.
         11    1    1    2    0    0  0.44944803813E+02  0.14591529893E+01  0.11853836448E+03  0.12678134079E+03  0.00000000000E+00 0.  1.
</event>
<event>
 7    1  0.2856214E-009  0.1050142E+03  0.7561462E-02  0.1270092E+00
          3   -1    0    0  501    0  0.00000000000E+00  0.00000000000E+00  0.29489163322E+03  0.29489163322E+03  0.00000000000E+00 0. -1.
         -3   -1    0    0    0  501 -0.00000000000E+00 -0.00000000000E+00 -0.89498317865E+02  0.89498317865E+02  0.00000000000E+00 0.  1.
         25    2    1    2    0    0  0.94411412198E+02  0.33569467978E+01  0.21534037085E+02  0.15822887118E+03  0.12509147483E+03 0.  0.
          5    1    3    3  502    0  0.32599106230E+02  0.40883270476E+01  0.71392983668E+02  0.78700995305E+02  0.41800000000E+01 0. -1.
         -5    1    3    3    0  502  0.61812305968E+02 -0.73138024977E+00 -0.49858946583E+02  0.79527875871E+02  0.41800000000E+01 0. -1.
        -11    1    1    2    0    0 -0.67354760378E+02  0.28516323865E+02  0.16462075402E+03  0.18013838327E+03  0.00000000000E+00 0. -1.
         11    1    1    2    0    0 -0.27056651820E+02 -0.31873270663E+02  0.19238524246E+02  0.46022696636E+02  0.00000000000E+00 0.  1.
</event>
<event>
 7    1  0.2856214E-009  0.1298367E+03  0.7561462E-02  0.1227698E+00
         -1   -1    0    0    0  501 -0.00000000000E+00  0.00000000000E+00  0.32592481490E+02  0.32592481490E+02  0.00000000000E+00 0.  1.
          1   -1    0    0  501    0  0.00000000000E+00 -0.00000000000E+00 -0.86487830272E+03  0.86487830272E+03  0.00000000000E+00 0. -1.
         25    2    1    2    0    0  0.92674317060E+02  0.90390526020E+02 -0.52392181199E+03  0.55398584063E+03  0.12508904947E+03 0.  0.
          5    1    3    3  502    0  0.54331581487E+02  0.59978608252E+02 -0.48386950961E+03  0.49060832538E+03  0.41800000000E+01 0.  1.
         -5    1    3    3    0  502  0.38342735573E+02  0.30411917768E+02 -0.40052302378E+02  0.63377515250E+02  0.41800000000E+01 0.  1.
        -11    1    1    2    0    0 -0.30097716140E+02 -0.26734557919E+02 -0.27437312164E+02  0.48717709334E+02  0.00000000000E+00 0.  1.
         11    1    1    2    0    0 -0.62576600920E+02 -0.63655968100E+02 -0.28092669707E+03  0.29476723425E+03  0.00000000000E+00 0. -1.
</event>
<event>
 7    1  0.2856214E-009  0.1802877E+03  0.7561462E-02  0.1167525E+00
          1   -1    0    0  501    0  0.00000000000E+00  0.00000000000E+00  0.49678348869E+03  0.49678348869E+03  0.00000000000E+00 0. -1.
         -1   -1    0    0    0  501 -0.00000000000E+00 -0.00000000000E+00 -0.72795247623E+02  0.72795247623E+02  0.00000000000E+00 0.  1.
         25    2    1    2    0    0 -0.27098735045E+01 -0.15057351866E+03  0.27518871378E+03  0.33772162191E+03  0.12508931919E+03 0.  0.
          5    1    3    3  502    0  0.46229795191E+02 -0.28890374457E+02  0.37769338335E+02  0.66451809742E+02  0.41800000000E+01 0.  1.
         -5    1    3    3    0  502 -0.48939668696E+02 -0.12168314420E+03  0.23741937545E+03  0.27126981216E+03  0.41800000000E+01 0.  1.
        -11    1    1    2    0    0 -0.21334355769E+02  0.14906787881E+03  0.14162017352E+03  0.20671879638E+03  0.00000000000E+00 0. -1.
         11    1    1    2    0    0  0.24044229274E+02  0.15056398485E+01  0.71793537641E+01  0.25138318026E+02  0.00000000000E+00 0.  1.
</event>
<event>
 7    1  0.2856214E-009  0.1409641E+03  0.7561462E-02  0.1212038E+00
          1   -1    0    0  501    0  0.00000000000E+00  0.00000000000E+00  0.21607871407E+02  0.21607871407E+02  0.00000000000E+00 0. -1.
         -1   -1    0    0    0  501 -0.00000000000E+00 -0.00000000000E+00 -0.11102733055E+04  0.11102733055E+04  0.00000000000E+00 0.  1.
         25    2    1    2    0    0  0.14460399226E+02  0.10793221635E+03 -0.57332702975E+03  0.59683282203E+03  0.12508824061E+03 0.  0.
          5    1    3    3  502    0  0.44833532685E+02  0.94670357796E+02 -0.53836815288E+03  0.54847995655E+03  0.41800000000E+01 0. -1.
         -5    1    3    3    0  502 -0.30373133459E+02  0.13261858556E+02 -0.34958876869E+02  0.48352865483E+02  0.41800000000E+01 0. -1.
        -11    1    1    2    0    0 -0.40120591469E+02 -0.85141978556E+01 -0.15998876314E+03  0.16516221649E+03  0.00000000000E+00 0.  1.
         11    1    1    2    0    0  0.25660192243E+02 -0.99418018496E+02 -0.35534964124E+03  0.36988613842E+03  0.00000000000E+00 0. -1.
</event>
<event>
 7    1  0.2856214E-009  0.1012918E+03  0.7561462E-02  0.1277603E+00
          1   -1    0    0  501    0  0.00000000000E+00  0.00000000000E+00  0.18236606728E+03  0.18236606728E+03  0.00000000000E+00 0. -1.
         -1   -1    0    0    0  501 -0.00000000000E+00 -0.00000000000E+00 -0.12546271118E+03  0.12546271118E+03  0.00000000000E+00 0.  1.
         25    2    1    2    0    0 -0.35821612225E+02 -0.51095375641E+02 -0.55180724002E+02  0.15028616006E+03  0.12508833794E+03 0.  0.
          5    1    3    3  502    0 -0.59044555736E+01 -0.89590265515E+02 -0.44087434775E+02  0.10011219993E+03  0.41800000000E+01 0. -1.
         -5    1    3    3    0  502 -0.29917156652E+02  0.38494889874E+02 -0.11093289227E+02  0.50173960122E+02  0.41800000000E+01 0. -1.
        -11    1    1    2    0    0  0.24824816714E+02  0.24007540460E+02  0.12190496134E+03  0.12670222225E+03  0.00000000000E+00 0. -1.
         11    1    1    2    0    0  0.10996795512E+02  0.27087835181E+02 -0.98208812439E+01  0.30840396151E+02  0.00000000000E+00 0.  1.
</event>
<event>
 7    1  0.2856214E-009  0.1059304E+03  0.7561462E-02  0.1268297E+00
          2   -1    0    0  501    0  0.00000000000E+00  0.00000000000E+00  0.15478041128E+03  0.15478041128E+03  0.00000000000E+00 0. -1.
         -2   -1    0    0    0  501 -0.00000000000E+00 -0.00000000000E+00 -0.90276523825E+02  0.90276523825E+02  0.00000000000E+00 0.  1.
         25    2    1    2    0    0  0.55381903182E+02 -0.37830032454E+01  0.23937195754E+02  0.13892401621E+03  0.12508167982E+03 0.  0.
          5    1    3    3  502    0  0.22603015455E+02  0.60266716379E+02  0.15688685142E+02  0.66382080807E+02  0.41800000000E+01 0.  1.
         -5    1    3    3    0  502  0.32778887727E+02 -0.64049719625E+02  0.82485106118E+01  0.72541935402E+02  0.41800000000E+01 0.  1.
        -11    1    1    2    0    0 -0.51632089623E+02  0.22411063056E+02 -0.52516927655E+01  0.56530599705E+02  0.00000000000E+00 0.  1.
         11    1    1    2    0    0 -0.37498135590E+01 -0.18628059810E+02  0.45818384464E+02  0.49602319189E+02  0.00000000000E+00 0. -1.
</event>
<event>
 7    1  0.2856214E-009  0.1351660E+03  0.7561462E-02  0.1219986E+00
          2   -1    0    0  501    0  0.00000000000E+00  0.00000000000E+00  0.17214090863E+03  0.17214090863E+03  0.00000000000E+00 0. -1.
         -2   -1    0    0    0  501 -0.00000000000E+00 -0.00000000000E+00 -0.14842849574E+03  0.14842849574E+03  0.00000000000E+00 0.  1.
         25    2    1    2    0    0  0.61275675022E+02 -0.98891731891E+02  0.19886181041E+01  0.17083864715E+03  0.12509039041E+03 0.  0.
          5    1    3    3  502    0  0.45615921330E+02 -0.96447631232E+02 -0.48854331583E+02  0.11741880583E+03  0.41800000000E+01 0.  1.
         -5    1    3    3    0  502  0.15659753692E+02 -0.24441006590E+01  0.50842949687E+02  0.53419841319E+02  0.41800000000E+01 0.  1.
        -11    1    1    2    0    0  0.17573882996E+02  0.53219449028E+02  0.16653476952E+02  0.58467849397E+02  0.00000000000E+00 0.  1.
         11    1    1    2    0    0 -0.78849558018E+02  0.45672282862E+02  0.50703178369E+01  0.91262907824E+02  0.00000000000E+00 0. -1.
</event>
<event>
 7    1  0.2856214E-009  0.1980366E+03  0.7561462E-02  0.1151406E+00
          1   -1    0    0  501    0  0.00000000000E+00  0.00000000000E+00  0.17061637854E+03  0.17061637854E+03  0.00000000000E+00 0. -1.
         -1   -1    0    0    0  501 -0.00000000000E+00 -0.00000000000E+00 -0.27120138172E+03  0.27120138172E+03  0.00000000000E+00 0.  1.
         25    2    1    2    0    0 -0.12164116065E+03 -0.13438244178E+03 -0.17139143086E+02  0.22089779767E+03  0.12508746607E+03 0.  0.
          5    1    3    3  502    0  0.18646176822E+02 -0.10185947920E+02 -0.25309818769E+02  0.33309049390E+02  0.41800000000E+01 0.  1.
         -5    1    3    3    0  502 -0.14028733747E+03 -0.12419649386E+03  0.81706756831E+01  0.18758874828E+03  0.41800000000E+01 0.  1.
        -11    1    1    2    0    0  0.13936029728E+02  0.44799841577E+02  0.15498227124E+02  0.49410866961E+02  0.00000000000E+00 0. -1.
         11    1    1    2    0    0  0.10770513092E+03  0.89582600203E+02 -0.98944087225E+02  0.17150909563E+03  0.00000000000E+00 0.  1.
</event>
<event>
 7    1  0.2856214E-009  0.1166606E+03  0.7561462E-02  0.1248710E+00
         -3   -1    0    0    0  501 -0.00000000000E+00  0.00000000000E+00  0.48150278706E+03  0.48150278706E+03  0.00000000000E+00 0.  1.
          3   -1    0    0  501    0  0.00000000000E+00 -0.00000000000E+00 -0.75123508748E+02  0.75123508748E+02  0.00000000000E+00 0. -1.
         25    2    1    2    0    0 -0.64019597969E+02 -0.53435323108E+02  0.40894382637E+03  0.43570203682E+03  0.12508944433E+03 0.  0.
          5    1    3    3  502    0  0.17894331266E+02 -0.86360167862E+01  0.25360405869E+03  0.25441556332E+03  0.41800000000E+01 0. -1.
         -5    1    3    3    0  502 -0.81913929235E+02 -0.44799306322E+02  0.15533976769E+03  0.18128647350E+03  0.41800000000E+01 0. -1.
        -11    1    1    2    0    0  0.84362265307E+02  0.52142198632E+02  0.46942601019E+01  0.99286639402E+02  0.00000000000E+00 0.  1.
         11    1    1    2    0    0 -0.20342667338E+02  0.12931244765E+01 -0.72588081628E+01  0.21637619585E+02  0.00000000000E+00 0. -1.
</event>
<event>
 7    1  0.2856214E-009  0.1609278E+03  0.7561462E-02  0.1187653E+00
          1   -1    0    0  501    0  0.00000000000E+00  0.00000000000E+00  0.66365363172E+03  0.66365363172E+03  0.00000000000E+00 0. -1.
         -1   -1    0    0    0  501 -0.00000000000E+00 -0.00000000000E+00 -0.47923925012E+02  0.47923925012E+02  0.00000000000E+00 0.  1.
         25    2    1    2    0    0 -0.66013414279E+02 -0.12446318159E+03  0.34773291210E+03  0.39549196500E+03  0.12508741657E+03 0.  0.
          5    1    3    3  502    0 -0.11086332087E+02 -0.89944394657E+02  0.83225353711E+02  0.12311308943E+03  0.41800000000E+01 0.  1.
         -5    1    3    3    0  502 -0.54927082192E+02 -0.34518786930E+02  0.26450755839E+03  0.27237887557E+03  0.41800000000E+01 0.  1.
        -11    1    1    2    0    0  0.82122333686E+02  0.65623491843E+02  0.14882770540E+03  0.18220923760E+03  0.00000000000E+00 0.  1.
         11    1    1    2    0    0 -0.16108919407E+02  0.58839689744E+02  0.11916908920E+03  0.13387635413E+03  0.00000000000E+00 0. -1.
</event>
<event>
 7    1  0.2856214E-009  0.1218476E+03  0.7561462E-02  0.1240080E+00
         -1   -1    0    0    0  501 -0.00000000000E+00  0.00000000000E+00  0.21790452746E+02  0.21790452746E+02  0.00000000000E+00 0.  1.
          1   -1    0    0  501    0  0.00000000000E+00 -0.00000000000E+00 -0.90923724952E+03  0.90923724952E+03  0.00000000000E+00 0. -1.
         25    2    1    2    0    0 -0.27592395840E+01  0.70910404009E+02 -0.62855612983E+03  0.64479849445E+03  0.12508553593E+03 0.  0.
          5    1    3    3  502    0 -0.54255988533E+02  0.31067255312E+02 -0.45662046148E+03  0.46089977749E+03  0.41800000000E+01 0.  1.
         -5    1    3    3    0  502  0.51496748949E+02  0.39843148697E+02 -0.17193566834E+03  0.18389871696E+03  0.41800000000E+01 0.  1.
        -11    1    1    2    0    0 -0.16898370820E+02 -0.88082056690E+02 -0.15469755390E+03  0.17881648926E+03  0.00000000000E+00 0.  1.
         11    1    1    2    0    0  0.19657610404E+02  0.17171652682E+02 -0.10419311305E+03  0.10741271856E+03  0.00000000000E+00 0. -1.
</event>
<event>
 7    1  0.3008654E-009  0.1607555E+03  0.7561462E-02  0.1187846E+00
         -2   -1    0    0    0  501 -0.00000000000E+00  0.00000000000E+00  0.12652507230E+03  0.12652507230E+03  0.00000000000E+00 0. -1.
          2   -1    0    0  501    0  0.00000000000E+00 -0.00000000000E+00 -0.26100239107E+03  0.26100239107E+03  0.00000000000E+00 0.  1.
         25    2    1    2    0    0 -0.45933372849E+02 -0.13227577731E+03 -0.29593722845E+02  0.19007994361E+03  0.12509132874E+03 0.  0.
          5    1    3    3  502    0  0.76550745172E+01 -0.11983789154E+03 -0.51489398016E+02  0.13072241936E+03  0.41800000000E+01 0.  1.
         -5    1    3    3    0  502 -0.53588447366E+02 -0.12437885770E+02  0.21895675171E+02  0.59357524247E+02  0.41800000000E+01 0.  1.
        -11    1    1    2    0    0  0.38079968178E+02  0.46737390658E+02 -0.92857996639E+02  0.11071167600E+03  0.00000000000E+00 0.  1.
         11    1    1    2    0    0  0.78534046713E+01  0.85538386656E+02 -0.12025599284E+02  0.86735843772E+02  0.00000000000E+00 0. -1.
</event>
<event>
 7    1  0.2856214E-009  0.8607282E+02  0.7561462E-02  0.1312651E+00
         -2   -1    0    0    0  501 -0.00000000000E+00  0.00000000000E+00  0.40318640206E+02  0.40318640206E+02  0.00000000000E+00 0.  1.
          2   -1    0    0  501    0  0.00000000000E+00 -0.00000000000E+00 -0.36725930207E+03  0.36725930207E+03  0.00000000000E+00 0. -1.
         25    2    1    2    0    0  0.12256780067E+02  0.32799893724E+02 -0.11415246527E+03  0.17291920688E+03  0.12507679679E+03 0.  0.
          5    1    3    3  502    0  0.27155006928E+02  0.62808263424E+02 -0.12043222487E+03  0.13857729086E+03  0.41800000000E+01 0. -1.
         -5    1    3    3    0  502 -0.14898226861E+02 -0.30008369700E+02  0.62797595936E+01  0.34341916024E+02  0.41800000000E+01 0. -1.
        -11    1    1    2    0    0 -0.23136154986E+02 -0.46735471134E+02 -0.21046252167E+03  0.21682702543E+03  0.00000000000E+00 0. -1.
         11    1    1    2    0    0  0.10879374919E+02  0.13935577410E+02 -0.23256749234E+01  0.17831709964E+02  0.00000000000E+00 0.  1.
</event>
<event>
 7    1  0.2997659E-009  0.1409289E+03  0.7561462E-02  0.1212084E+00
         -2   -1    0    0    0  501 -0.00000000000E+00  0.00000000000E+00  0.45266629243E+02  0.45266629243E+02  0.00000000000E+00 0.  1.
          2   -1    0    0  501    0  0.00000000000E+00 -0.00000000000E+00 -0.50541114969E+03  0.50541114969E+03  0.00000000000E+00 0. -1.
         25    2    1    2    0    0  0.59466425238E+02  0.80527333564E+02 -0.30867010473E+03  0.34776908501E+03  0.12508075695E+03 0.  0.
          5    1    3    3  502    0 -0.22671739519E+02 -0.11189222231E+02 -0.15953721942E+02  0.30186091346E+02  0.41800000000E+01 0. -1.
         -5    1    3    3    0  502  0.82138164758E+02  0.91716555795E+02 -0.29271638279E+03  0.31758299367E+03  0.41800000000E+01 0. -1.
        -11    1    1    2    0    0 -0.32835749826E+01 -0.76654430462E+02 -0.69957345515E+02  0.10383021605E+03  0.00000000000E+00 0.  1.
         11    1    1    2    0    0 -0.56182850256E+02 -0.38729031017E+01 -0.81517070203E+02  0.99078477864E+02  0.00000000000E+00 0. -1.
</event>
<event>
 7    1  0.2856214E-009  0.1196196E+03  0.7561462E-02  0.1243726E+00
          2   -1    0    0  501    0  0.00000000000E+00  0.00000000000E+00  0.51394756660E+03  0.51394756660E+03  0.00000000000E+00 0.  1.
         -2   -1    0    0    0  501 -0.00000000000E+00 -0.00000000000E+00 -0.43580727424E+02  0.43580727424E+02  0.00000000000E+00 0. -1.
         25    2    1    2    0    0 -0.34731351928E+02  0.77907506420E+02  0.14778760632E+03  0.21157695488E+03  0.12509110636E+03 0.  0.
          5    1    3    3  502    0 -0.51851816662E+02  0.81749734205E+01  0.12578356498E+03  0.13636135340E+03  0.41800000000E+01 0. -1.
         -5    1    3    3    0  502  0.17120464734E+02  0.69732532999E+02  0.22004041343E+02  0.75215601484E+02  0.41800000000E+01 0. -1.
        -11    1    1    2    0    0 -0.22015387306E+02 -0.55570903554E+01  0.13669873828E+03  0.13857165503E+03  0.00000000000E+00 0.  1.
         11    1    1    2    0    0  0.56746739234E+02 -0.72350416064E+02  0.18588049458E+03  0.20737968412E+03  0.00000000000E+00 0. -1.
</event>
<event>
 7    1  0.2856214E-009  0.1203103E+03  0.7561462E-02  0.1242586E+00
         -1   -1    0    0    0  501 -0.00000000000E+00  0.00000000000E+00  0.12842924867E+03  0.12842924867E+03  0.00000000000E+00 0.  1.
          1   -1    0    0  501    0  0.00000000000E+00 -0.00000000000E+00 -0.15409078560E+03  0.15409078560E+03  0.00000000000E+00 0. -1.
         25    2    1    2    0    0 -0.40761548256E+02  0.60005334446E+02  0.40856205248E+02  0.15026742725E+03  0.12509566822E+03 0.  0.
          5    1    3    3  502    0 -0.25057364635E+02  0.89418755531E+02  0.60908972008E+02  0.11113487587E+03  0.41800000000E+01 0. -1.
         -5    1    3    3    0  502 -0.15704183622E+02 -0.29413421085E+02 -0.20052766761E+02  0.39132551385E+02  0.41800000000E+01 0. -1.
        -11    1    1    2    0    0  0.49369312108E+02 -0.79027029273E+02 -0.50877532428E+02  0.10616554827E+03  0.00000000000E+00 0. -1.
         11    1    1    2    0    0 -0.86077638513E+01  0.19021694827E+02 -0.15640209753E+02  0.26087058740E+02  0.00000000000E+00 0.  1.
</event>
<event>
 7    1  0.2856214E-009  0.9037010E+02  0.7561462E-02  0.1301958E+00
          2   -1    0    0  501    0  0.00000000000E+00  0.00000000000E+00  0.11519089351E+04  0.11519089351E+04  0.00000000000E+00 0. -1.
         -2   -1    0    0    0  501 -0.00000000000E+00 -0.00000000000E+00 -0.16712328847E+02  0.16712328847E+02  0.00000000000E+00 0.  1.
         25    2    1    2    0    0  0.36002223662E+02  0.71248342796E+02  0.75301009068E+03  0.76749245891E+03  0.12509193164E+03 0.  0.
          5    1    3    3  502    0  0.49065697781E+02  0.45784907874E+02  0.72186247917E+03  0.72498731832E+03  0.41800000000E+01 0.  1.
         -5    1    3    3    0  502 -0.13063474120E+02  0.25463434922E+02  0.31147611506E+02  0.42505140590E+02  0.41800000000E+01 0.  1.
        -11    1    1    2    0    0 -0.16862100092E+02 -0.60115570921E+02  0.37119346630E+03  0.37640775989E+03  0.00000000000E+00 0. -1.
         11    1    1    2    0    0 -0.19140123570E+02 -0.11132771875E+02  0.10993049256E+02  0.24721045120E+02  0.00000000000E+00 0.  1.
</event>
<event>
 7    1  0.2856214E-009  0.8994058E+02  0.7561462E-02  0.1302996E+00
         -3   -1    0    0    0  501 -0.00000000000E+00  0.00000000000E+00  0.84294880815E+02  0.84294880815E+02  0.00000000000E+00 0.  1.
          3   -1    0    0  501    0  0.00000000000E+00 -0.00000000000E+00 -0.16866543257E+03  0.16866543257E+03  0.00000000000E+00 0. -1.
         25    2    1    2    0    0 -0.36778372045E+02 -0.35637906027E+02 -0.54758274617E+02  0.14584611457E+03  0.12509960631E+03 0.  0.
          5    1    3    3  502    0 -0.42326139187E+00 -0.40177544468E+02 -0.87600410443E+02  0.96466152299E+02  0.41800000000E+01 0. -1.
         -5    1    3    3    0  502 -0.36355110653E+02  0.45396384415E+01  0.32842135826E+02  0.49379962266E+02  0.41800000000E+01 0. -1.
        -11    1    1    2    0    0  0.44399933967E+02 -0.18381870539E+02 -0.18151953586E+02  0.51368674498E+02  0.00000000000E+00 0.  1.
         11    1    1    2    0    0 -0.76215619219E+01  0.54019776565E+02 -0.11460323558E+02  0.55745524326E+02  0.00000000000E+00 0. -1.
</event>
<event>
 7    1  0.2856214E-009  0.1130877E+03  0.7561462E-02  0.1254956E+00
         -2   -1    0    0    0  501 -0.00000000000E+00  0.00000000000E+00  0.18886807871E+03  0.18886807871E+03  0.00000000000E+00 0.  1.
          2   -1    0    0  501    0  0.00000000000E+00 -0.00000000000E+00 -0.92340043437E+02  0.92340043437E+02  0.00000000000E+00 0. -1.
         25    2    1    2    0    0 -0.44838563172E+02 -0.23869963386E+02  0.11072033626E+03  0.17460723366E+03  0.12509365006E+03 0.  0.
          5    1    3    3  502    0  0.40228647258E+00 -0.61563056661E+02  0.95401806522E+02  0.11361843542E+03  0.41800000000E+01 0. -1.
         -5    1    3    3    0  502 -0.45240849645E+02  0.37693093275E+02  0.15318529741E+02  0.60988798239E+02  0.41800000000E+01 0. -1.
        -11    1    1    2    0    0  0.69151804661E+02  0.36331350829E+02 -0.75115430011E+01  0.78475234432E+02  0.00000000000E+00 0.  1.
         11    1    1    2    0    0 -0.24313241489E+02 -0.12461387443E+02 -0.66807579883E+01  0.28125654054E+02  0.00000000000E+00 0. -1.
</event>
<event>
 7    1  0.2856214E-009  0.4137359E+03  0.7561462E-02  0.1039125E+00
          1   -1    0    0  501    0  0.00000000000E+00  0.00000000000E+00  0.59635909420E+03  0.59635909420E+03  0.00000000000E+00 0. -1.
         -1   -1    0    0    0  501 -0.00000000000E+00 -0.00000000000E+00 -0.31126374950E+03  0.31126374950E+03  0.00000000000E+00 0.  1.
         25    2    1    2    0    0 -0.96222206630E+02 -0.39094612773E+03  0.25837612160E+03  0.49447138061E+03  0.12508452420E+03 0.  0.
          5    1    3    3  502    0 -0.19770595799E+02 -0.29533086845E+03  0.20916787882E+03  0.36246361507E+03  0.41800000000E+01 0. -1.
         -5    1    3    3    0  502 -0.76451610831E+02 -0.95615259284E+02  0.49208242775E+02  0.13200776554E+03  0.41800000000E+01 0. -1.
        -11    1    1    2    0    0  0.78020930708E+02  0.37954202467E+03  0.13062002372E+02  0.38769837506E+03  0.00000000000E+00 0. -1.
         11    1    1    2    0    0  0.18201275922E+02  0.11404103057E+02  0.13657220733E+02  0.25453088022E+02  0.00000000000E+00 0.  1.
</event>
<event>
 7    1  0.2856214E-009  0.1510842E+03  0.7561462E-02  0.1199147E+00
         -3   -1    0    0    0  501 -0.00000000000E+00  0.00000000000E+00  0.58526107980E+02  0.58526107980E+02  0.00000000000E+00 0.  1.
          3   -1    0    0  501    0  0.00000000000E+00 -0.00000000000E+00 -0.40675250992E+03  0.40675250992E+03  0.00000000000E+00 0. -1.
         25    2    1    2    0    0 -0.10700034895E+03 -0.18109216075E+02 -0.19561241104E+03  0.25629889334E+03  0.12509152247E+03 0.  0.
          5    1    3    3  502    0 -0.12185277241E+03  0.15478311220E+02 -0.17539349992E+03  0.21416822471E+03  0.41800000000E+01 0.  1.
         -5    1    3    3    0  502  0.14852423460E+02 -0.33587527295E+02 -0.20218911121E+02  0.42130668632E+02  0.41800000000E+01 0.  1.
        -11    1    1    2    0    0 -0.10389485125E+02  0.22551475002E+02 -0.20569627005E+02  0.32243138511E+02  0.00000000000E+00 0. -1.
         11    1    1    2    0    0  0.11738983408E+03 -0.44422589271E+01 -0.13204436390E+03  0.17673658604E+03  0.00000000000E+00 0.  1.
</event>
<event>
 7    1  0.2856214E-009  0.3431153E+03  0.7561462E-02  0.1065477E+00
          1   -1    0    0  501    0  0.00000000000E+00  0.00000000000E+00  0.69784961412E+03  0.69784961412E+03  0.00000000000E+00 0. -1.
         -1   -1    0    0    0  501 -0.00000000000E+00 -0.00000000000E+00 -0.18018208364E+03  0.18018208364E+03  0.00000000000E+00 0.  1.
         25    2    1    2    0    0  0.14636338815E+03 -0.29429629846E+03  0.17027770641E+03  0.39073855808E+03  0.12509824457E+03 0.  0.
          5    1    3    3  502    0  0.35324367111E+02 -0.20663997898E+03  0.91652136759E+02  0.22883504626E+03  0.41800000000E+01 0. -1.
         -5    1    3    3    0  502  0.11103902103E+03 -0.87656319479E+02  0.78625569653E+02  0.16190351182E+03  0.41800000000E+01 0. -1.
        -11    1    1    2    0    0 -0.43121523576E+02  0.15952448287E+03  0.12342778955E+03  0.20625698936E+03  0.00000000000E+00 0.  1.
         11    1    1    2    0    0 -0.10324186457E+03  0.13477181559E+03  0.22396203452E+03  0.28103615031E+03  0.00000000000E+00 0. -1.
</event>
<event>
 7    1  0.3116874E-009  0.9881278E+02  0.7561462E-02  0.1282812E+00
          1   -1    0    0  501    0  0.00000000000E+00  0.00000000000E+00  0.82630226056E+03  0.82630226056E+03  0.00000000000E+00 0. -1.
         -1   -1    0    0    0  501 -0.00000000000E+00 -0.00000000000E+00 -0.24786978614E+02  0.24786978614E+02  0.00000000000E+00 0.  1.
         25    2    1    2    0    0 -0.25787546272E+02  0.66146813100E+02  0.61542965063E+03  0.63201581447E+03  0.12509970598E+03 0.  0.
          5    1    3    3  502    0 -0.34383591121E+02  0.33051079386E+02  0.66151131223E+02  0.81658127269E+02  0.41800000000E+01 0.  1.
         -5    1    3    3    0  502  0.85960448482E+01  0.33095733714E+02  0.54927851941E+03  0.55035768720E+03  0.41800000000E+01 0.  1.
        -11    1    1    2    0    0  0.59959205694E+02 -0.46563083074E+02  0.11479740922E+03  0.13762874778E+03  0.00000000000E+00 0. -1.
         11    1    1    2    0    0 -0.34171659421E+02 -0.19583730025E+02  0.71288222091E+02  0.81444676918E+02  0.00000000000E+00 0.  1.
</event>
<event>
 7    1  0.2856214E-009  0.1276964E+03  0.7561462E-02  0.1230914E+00
         -1   -1    0    0    0  501 -0.00000000000E+00  0.00000000000E+00  0.62390663086E+03  0.62390663086E+03  0.00000000000E+00 0.  1.
          1   -1    0    0  501    0  0.00000000000E+00 -0.00000000000E+00 -0.70485083885E+02  0.70485083885E+02  0.00000000000E+00 0. -1.
         25    2    1    2    0    0 -0.28548597733E+02 -0.85264485040E+02  0.31483769461E+02  0.15723847224E+03  0.12509058547E+03 0.  0.
          5    1    3    3  502    0 -0.41239775036E+02 -0.10065414493E+03 -0.11704655064E+02  0.10948263463E+03  0.41800000000E+01 0. -1.
         -5    1    3    3    0  502  0.12691177303E+02  0.15389659889E+02  0.43188424524E+02  0.47755837609E+02  0.41800000000E+01 0. -1.
        -11    1    1    2    0    0 -0.32203515026E+02  0.28141918993E+02  0.14969510578E+03  0.15568448439E+03  0.00000000000E+00 0. -1.
         11    1    1    2    0    0  0.60752112759E+02  0.57122566047E+02  0.37224267173E+03  0.38146875811E+03  0.00000000000E+00 0.  1.
</event>
<event>
 7    1  0.2856214E-009  0.8274786E+02  0.7561462E-02  0.1321429E+00
         -4   -1    0    0    0  501 -0.00000000000E+00  0.00000000000E+00  0.10519599444E+03  0.10519599444E+03  0.00000000000E+00 0.  1.
          4   -1    0    0  501    0  0.00000000000E+00 -0.00000000000E+00 -0.14232704867E+03  0.14232704867E+03  0.00000000000E+00 0. -1.
         25    2    1    2    0    0  0.23570677126E+02 -0.73905419702E+01  0.29747096114E+02  0.13092411100E+03  0.12508411643E+03 0.  0.
          5    1    3    3  502    0 -0.15999111943E+02 -0.53091089296E+02  0.41263303308E+02  0.69244262907E+02  0.41800000000E+01 0.  1.
         -5    1    3    3    0  502  0.39569789069E+02  0.45700547326E+02 -0.11516207194E+02  0.61679848095E+02  0.41800000000E+01 0.  1.
        -11    1    1    2    0    0 -0.16984511473E+01 -0.16682252504E+02  0.18658993326E+02  0.25086656151E+02  0.00000000000E+00 0.  1.
         11    1    1    2    0    0 -0.21872225979E+02  0.24072794474E+02 -0.85537143668E+02  0.91512275952E+02  0.00000000000E+00 0. -1.
</event>
<event>
 7    1  0.2856214E-009  0.3243929E+03  0.7561462E-02  0.1073645E+00
         -2   -1    0    0    0  501 -0.00000000000E+00  0.00000000000E+00  0.96694211110E+03  0.96694211110E+03  0.00000000000E+00 0.  1.
          2   -1    0    0  501    0  0.00000000000E+00 -0.00000000000E+00 -0.12818516036E+03  0.12818516036E+03  0.00000000000E+00 0. -1.
         25    2    1    2    0    0 -0.22633830790E+03  0.21385746382E+03  0.24011799241E+03  0.41263642664E+03  0.12509246922E+03 0.  0.
          5    1    3    3  502    0 -0.10781783894E+03  0.18025741044E+03  0.17386291687E+03  0.27269618016E+03  0.41800000000E+01 0. -1.
         -5    1    3    3    0  502 -0.11852046896E+03  0.33600053387E+02  0.66255075534E+02  0.13994024648E+03  0.41800000000E+01 0. -1.
        -11    1    1    2    0    0  0.63358894233E+02 -0.31139658450E+02  0.67682941859E+02  0.97800861067E+02  0.00000000000E+00 0.  1.
         11    1    1    2    0    0  0.16297941366E+03 -0.18271780537E+03  0.53095601647E+03  0.58468998376E+03  0.00000000000E+00 0. -1.
</event>
<event>
 7    1  0.2856214E-009  0.8905211E+02  0.7561462E-02  0.1305164E+00
          1   -1    0    0  501    0  0.00000000000E+00  0.00000000000E+00  0.52982934200E+03  0.52982934200E+03  0.00000000000E+00 0. -1.
         -1   -1    0    0    0  501 -0.00000000000E+00 -0.00000000000E+00 -0.22321705337E+02  0.22321705337E+02  0.00000000000E+00 0.  1.
         25    2    1    2    0    0 -0.12620085292E+01  0.10478096703E+02  0.27779092982E+03  0.30484213146E+03  0.12509812646E+03 0.  0.
          5    1    3    3  502    0 -0.25631074170E+02  0.43569800113E+02  0.43151675534E+02  0.66594436302E+02  0.41800000000E+01 0.  1.
         -5    1    3    3    0  502  0.24369065641E+02 -0.33091703410E+02  0.23463925429E+03  0.23824769516E+03  0.41800000000E+01 0.  1.
        -11    1    1    2    0    0  0.91098990524E+01  0.36921420138E+02  0.14513206827E+03  0.15003165921E+03  0.00000000000E+00 0. -1.
         11    1    1    2    0    0 -0.78478905231E+01 -0.47399516840E+02  0.84584638567E+02  0.97277256663E+02  0.00000000000E+00 0.  1.
</event>
<event>
 7    1  0.2856214E-009  0.2585196E+03  0.7561462E-02  0.1108036E+00
          2   -1    0    0  501    0  0.00000000000E+00  0.00000000000E+00  0.22611002555E+04  0.22611002555E+04  0.00000000000E+00 0. -1.
         -2   -1    0    0    0  501 -0.00000000000E+00 -0.00000000000E+00 -0.76930237476E+02  0.76930237476E+02  0.00000000000E+00 0.  1.
         25    2    1    2    0    0  0.39691218885E+02 -0.24095557943E+03  0.20003723015E+04  0.20191015848E+04  0.12508749257E+03 0.  0.
          5    1    3    3  502    0  0.79043222606E+02 -0.10662970671E+03  0.10808666153E+04  0.10889939568E+04  0.41800000000E+01 0. -1.
         -5    1    3    3    0  502 -0.39352003721E+02 -0.13432587272E+03  0.91950568618E+03  0.93010762797E+03  0.41800000000E+01 0. -1.
        -11    1    1    2    0    0 -0.83137315202E+01  0.54464976785E+02 -0.17090924597E+00  0.55096107285E+02  0.00000000000E+00 0.  1.
         11    1    1    2    0    0 -0.31377487365E+02  0.18649060264E+03  0.18396862576E+03  0.26383280094E+03  0.00000000000E+00 0. -1.
</event>
<event>
 7    1  0.2856214E-009  0.1092070E+03  0.7561462E-02  0.1262045E+00
         -2   -1    0    0    0  501 -0.00000000000E+00  0.00000000000E+00  0.30888737204E+03  0.30888737204E+03  0.00000000000E+00 0.  1.
          2   -1    0    0  501    0  0.00000000000E+00 -0.00000000000E+00 -0.39024616327E+02  0.39024616327E+02  0.00000000000E+00 0. -1.
         25    2    1    2    0    0 -0.25464908134E+02 -0.83955807603E+01  0.14524984127E+03  0.19355792499E+03  0.12509279202E+03 0.  0.
          5    1    3    3  502    0  0.48649998103E+02  0.12783985430E+02  0.51408622744E+02  0.72045620904E+02  0.41800000000E+01 0. -1.
         -5    1    3    3    0  502 -0.74114906237E+02 -0.21179566190E+02  0.93841218522E+02  0.12151230409E+03  0.41800000000E+01 0. -1.
        -11    1    1    2    0    0 -0.43164929570E+01  0.44065330427E+02  0.67498978987E+02  0.80724826549E+02  0.00000000000E+00 0. -1.
         11    1    1    2    0    0  0.29781401091E+02 -0.35669749667E+02  0.57113935457E+02  0.73629236826E+02  0.00000000000E+00 0.  1.
</event>
<event>
 7    1  0.2856214E-009  0.1021762E+03  0.7561462E-02  0.1275785E+00
          4   -1    0    0  501    0  0.00000000000E+00  0.00000000000E+00  0.97133429849E+02  0.97133429849E+02  0.00000000000E+00 0.  1.
         -4   -1    0    0    0  501 -0.00000000000E+00 -0.00000000000E+00 -0.14119241312E+03  0.14119241312E+03  0.00000000000E+00 0. -1.
         25    2    1    2    0    0  0.36949848967E+02 -0.84309862069E+01 -0.43645114403E+02  0.13780015697E+03  0.12509042482E+03 0.  0.
          5    1    3    3  502    0 -0.26266104710E+02 -0.32535587849E+02  0.18429803355E+02  0.45886847625E+02  0.41800000000E+01 0. -1.
         -5    1    3    3    0  502  0.63215953676E+02  0.24104601642E+02 -0.62074917758E+02  0.91913309342E+02  0.41800000000E+01 0. -1.
        -11    1    1    2    0    0 -0.44666265850E+02 -0.30997302120E+02  0.16672248339E+02  0.56867142608E+02  0.00000000000E+00 0.  1.
         11    1    1    2    0    0  0.77164168835E+01  0.39428288327E+02 -0.17086117203E+02  0.43658543391E+02  0.00000000000E+00 0. -1.
</event>
<event>
 7    1  0.2856214E-009  0.6704416E+02  0.7561462E-02  0.1370443E+00
          2   -1    0    0  501    0  0.00000000000E+00  0.00000000000E+00  0.13316522929E+03  0.13316522929E+03  0.00000000000E+00 0.  1.
         -2   -1    0    0    0  501 -0.00000000000E+00 -0.00000000000E+00 -0.10290800258E+03  0.10290800258E+03  0.00000000000E+00 0. -1.
         25    2    1    2    0    0 -0.15966352689E+01 -0.11832421594E+02 -0.29009321926E+02  0.12897832647E+03  0.12510520571E+03 0.  0.
          5    1    3    3  502    0  0.12285085390E+02 -0.23763529687E+02  0.45058522835E+02  0.52567780496E+02  0.41800000000E+01 0.  1.
         -5    1    3    3    0  502 -0.13881720659E+02  0.11931108093E+02 -0.74067844761E+02  0.76410545976E+02  0.41800000000E+01 0.  1.
        -11    1    1    2    0    0  0.26785653176E+02 -0.29492182574E+02  0.34636780259E+02  0.52791728479E+02  0.00000000000E+00 0. -1.
         11    1    1    2    0    0 -0.25189017907E+02  0.41324604168E+02  0.24629768384E+02  0.54303176918E+02  0.00000000000E+00 0.  1.
</event>
<event>
 7    1  0.2856214E-009  0.9658999E+02  0.7561462E-02  0.1287635E+00
          1   -1    0    0  501    0  0.00000000000E+00  0.00000000000E+00  0.32594581724E+03  0.32594581724E+03  0.00000000000E+00 0. -1.
         -1   -1    0    0    0  501 -0.00000000000E+00 -0.00000000000E+00 -0.60285798755E+02  0.60285798755E+02  0.00000000000E+00 0.  1.
         25    2    1    2    0    0  0.21804597558E+02  0.58301843272E+02  0.59955426463E+02  0.15203980711E+03  0.12508758684E+03 0.  0.
          5    1    3    3  502    0  0.10538073147E+02  0.71382902612E+02 -0.16006476246E+02  0.74028706950E+02  0.41800000000E+01 0. -1.
         -5    1    3    3    0  502  0.11266524411E+02 -0.13081059340E+02  0.75961902709E+02  0.78011100165E+02  0.41800000000E+01 0. -1.
        -11    1    1    2    0    0 -0.15184136453E+02  0.19691383111E+02  0.17636836525E+02  0.30485514121E+02  0.00000000000E+00 0.  1.
         11    1    1    2    0    0 -0.66204611050E+01 -0.77993226382E+02  0.18806775549E+03  0.20370629476E+03  0.00000000000E+00 0. -1.
</event>
<event>
 7    1  0.2856214E-009  0.8312461E+02  0.7561462E-02  0.1320411E+00
          3   -1    0    0  501    0  0.00000000000E+00  0.00000000000E+00  0.17329745437E+03  0.17329745437E+03  0.00000000000E+00 0. -1.
         -3   -1    0    0    0  501 -0.00000000000E+00 -0.00000000000E+00 -0.75529783075E+02  0.75529783075E+02  0.00000000000E+00 0.  1.
         25    2    1    2    0    0  0.30787105816E+02 -0.16758782036E+02  0.40188307861E+02  0.13599957124E+03  0.12510827562E+03 0.  0.
          5    1    3    3  502    0  0.18614749796E+02 -0.52102343374E+02  0.69055676925E+02  0.88585111675E+02  0.41800000000E+01 0. -1.
         -5    1    3    3    0  502  0.12172356020E+02  0.35343561337E+02 -0.28867369064E+02  0.47414459564E+02  0.41800000000E+01 0. -1.
        -11    1    1    2    0    0  0.19726608432E+01  0.35401878874E+02 -0.87643667243E+01  0.36523944785E+02  0.00000000000E+00 0.  1.
         11    1    1    2    0    0 -0.32759766659E+02 -0.18643096838E+02  0.66343730158E+02  0.76303721420E+02  0.00000000000E+00 0. -1.
</event>
<event>
 7    1  0.2856214E-009  0.1461968E+03  0.7561462E-02  0.1205226E+00
          1   -1    0    0  501    0  0.00000000000E+00  0.00000000000E+00  0.26389419593E+03  0.26389419593E+03  0.00000000000E+00 0. -1.
         -1   -1    0    0    0  501 -0.00000000000E+00 -0.00000000000E+00 -0.11759685727E+03  0.11759685727E+03  0.00000000000E+00 0.  1.
         25    2    1    2    0    0  0.76692708313E+02  0.90977620362E+02  0.15600684112E+03  0.23268878363E+03  0.12508891491E+03 0.  0.
          5    1    3    3  502    0 -0.27616040767E+02  0.44696873452E+02  0.78963437174E+02  0.94937626968E+02  0.41800000000E+01 0. -1.
         -5    1    3    3    0  502  0.10430874908E+03  0.46280746910E+02  0.77043403944E+02  0.13775115666E+03  0.41800000000E+01 0. -1.
        -11    1    1    2    0    0 -0.42171120560E+01 -0.31383456434E+02  0.32976720682E+02  0.45718371349E+02  0.00000000000E+00 0. -1.
         11    1    1    2    0    0 -0.72475596257E+02 -0.59594163928E+02 -0.42686223138E+02  0.10308389822E+03  0.00000000000E+00 0.  1.
</event>
<event>
 7    1  0.2856214E-009  0.1383569E+03  0.7561462E-02  0.1215557E+00
         -2   -1    0    0    0  501 -0.00000000000E+00  0.00000000000E+00  0.24005572971E+02  0.24005572971E+02  0.00000000000E+00 0.  1.
          2   -1    0    0  501    0  0.00000000000E+00 -0.00000000000E+00 -0.93861266923E+03  0.93861266923E+03  0.00000000000E+00 0. -1.
         25    2    1    2    0    0 -0.10171010209E+03 -0.13175609909E+01 -0.55016370795E+03  0.57330082892E+03  0.12508818510E+03 0.  0.
          5    1    3    3  502    0 -0.12280536402E+03 -0.12119547975E+02 -0.52128761636E+03  0.53571101561E+03  0.41800000000E+01 0.  1.
         -5    1    3    3    0  502  0.21095261930E+02  0.10801986984E+02 -0.28876091595E+02  0.37589813307E+02  0.41800000000E+01 0.  1.
        -11    1    1    2    0    0  0.96058791241E+01 -0.30307007502E+02 -0.15655606745E+03  0.15975165061E+03  0.00000000000E+00 0. -1.
         11    1    1    2    0    0  0.92104222962E+02  0.31624568493E+02 -0.20788732085E+03  0.22956576267E+03  0.00000000000E+00 0.  1.
</event>
<event>
 7    1  0.2856214E-009  0.1049468E+03  0.7561462E-02  0.1270225E+00
          2   -1    0    0  501    0  0.00000000000E+00  0.00000000000E+00  0.33143226484E+02  0.33143226484E+02  0.00000000000E+00 0. -1.
         -2   -1    0    0    0  501 -0.00000000000E+00 -0.00000000000E+00 -0.78179736802E+03  0.78179736802E+03  0.00000000000E+00 0.  1.
         25    2    1    2    0    0 -0.47472979925E+02  0.57105636272E+02 -0.62214992959E+03  0.63892803666E+03  0.12507503198E+03 0.  0.
          5    1    3    3  502    0 -0.22756472957E+02 -0.33988030794E+02 -0.31226661102E+03  0.31496182635E+03  0.41800000000E+01 0. -1.
         -5    1    3    3    0  502 -0.24716506967E+02  0.91093667066E+02 -0.30988331857E+03  0.32396621032E+03  0.41800000000E+01 0. -1.
        -11    1    1    2    0    0  0.38440484867E+02 -0.44766090589E+02 -0.14228696397E+03  0.15403653417E+03  0.00000000000E+00 0.  1.
         11    1    1    2    0    0  0.90324950577E+01 -0.12339545683E+02  0.15782752029E+02  0.21976023668E+02  0.00000000000E+00 0. -1.
</event>
<event>
 7    1  0.2856214E-009  0.1143431E+03  0.7561462E-02  0.1252732E+00
          4   -1    0    0  501    0  0.00000000000E+00  0.00000000000E+00  0.25673554072E+03  0.25673554072E+03  0.00000000000E+00 0. -1.
         -4   -1    0    0    0  501 -0.00000000000E+00 -0.00000000000E+00 -0.71576777462E+02  0.71576777462E+02  0.00000000000E+00 0.  1.
         25    2    1    2    0    0  0.40749861231E+02  0.69741618654E+02  0.91402025451E+02  0.17471655151E+03  0.12508836298E+03 0.  0.
          5    1    3    3  502    0 -0.98490289588E+01  0.91590339367E+02  0.45291416605E+02  0.10273547807E+03  0.41800000000E+01 0. -1.
         -5    1    3    3    0  502  0.50598890189E+02 -0.21848720713E+02  0.46110608846E+02  0.71981073438E+02  0.41800000000E+01 0. -1.
        -11    1    1    2    0    0 -0.11379126715E+02 -0.12776911115E+02  0.87548962110E+02  0.89205127369E+02  0.00000000000E+00 0. -1.
         11    1    1    2    0    0 -0.29370734516E+02 -0.56964707539E+02  0.62077757014E+01  0.64390639305E+02  0.00000000000E+00 0.  1.
</event>
<event>
 7    1  0.2856214E-009  0.1766979E+03  0.7561462E-02  0.1171038E+00
          2   -1    0    0  501    0  0.00000000000E+00  0.00000000000E+00  0.36589439856E+03  0.36589439856E+03  0.00000000000E+00 0. -1.
         -2   -1    0    0    0  501 -0.00000000000E+00 -0.00000000000E+00 -0.11642313796E+03  0.11642313796E+03  0.00000000000E+00 0.  1.
         25    2    1    2    0    0 -0.62308879379E+02  0.15918629332E+03  0.93361071174E+02  0.23148742054E+03  0.12508982303E+03 0.  0.
          5    1    3    3  502    0 -0.61573212849E+02  0.10042788183E+03  0.11876598525E+03  0.16733156200E+03  0.41800000000E+01 0.  1.
         -5    1    3    3    0  502 -0.73566652978E+00  0.58758411484E+02 -0.25404914071E+02  0.64155858535E+02  0.41800000000E+01 0.  1.
        -11    1    1    2    0    0  0.60471628084E+02 -0.96405566254E+02  0.14919455820E+03  0.18764292474E+03  0.00000000000E+00 0. -1.
         11    1    1    2    0    0  0.18372512950E+01 -0.62780727063E+02  0.69156312297E+01  0.63187191251E+02  0.00000000000E+00 0.  1.
</event>
<event>
 7    1  0.2856214E-009  0.1017511E+03  0.7561462E-02  0.1276656E+00
          4   -1    0    0  501    0  0.00000000000E+00  0.00000000000E+00  0.44387309515E+02  0.44387309515E+02  0.00000000000E+00 0. -1.
         -4   -1    0    0    0  501 -0.00000000000E+00 -0.00000000000E+00 -0.39451484452E+03  0.39451484452E+03  0.00000000000E+00 0.  1.
         25    2    1    2    0    0  0.67161039481E+02  0.27169847981E+02 -0.21300350331E+03  0.25742305258E+03  0.12508928695E+03 0.  0.
          5    1    3    3  502    0  0.16341689846E+02  0.59407024455E+02 -0.38469376341E+02  0.72757203751E+02  0.41800000000E+01 0.  1.
         -5    1    3    3    0  502  0.50819349635E+02 -0.32237176475E+02 -0.17453412697E+03  0.18466584882E+03  0.41800000000E+01 0.  1.
        -11    1    1    2    0    0 -0.18878503454E+02 -0.27234175542E+02 -0.12815575608E+03  0.13237067661E+03  0.00000000000E+00 0.  1.
         11    1    1    2    0    0 -0.48282536027E+02  0.64327561126E-01 -0.89682756082E+01  0.49108424844E+02  0.00000000000E+00 0. -1.
</event>
<event>
 7    1  0.2856214E-009  0.7015198E+02  0.7561462E-02  0.1359577E+00
          1   -1    0    0  501    0  0.00000000000E+00  0.00000000000E+00  0.10830472610E+03  0.10830472610E+03  0.00000000000E+00 0. -1.
         -1   -1    0    0    0  501 -0.00000000000E+00 -0.00000000000E+00 -0.16785781104E+03  0.16785781104E+03  0.00000000000E+00 0.  1.
         25    2    1    2    0    0  0.25037265800E+02  0.15933009805E+02 -0.10892114012E+03  0.16849974366E+03  0.12509046074E+03 0.  0.
          5    1    3    3  502    0 -0.91657440658E+01 -0.26953364736E+02  0.15337797868E+02  0.32606980516E+02  0.41800000000E+01 0.  1.
         -5    1    3    3    0  502  0.34203009866E+02  0.42886374541E+02 -0.12425893799E+03  0.13589276315E+03  0.41800000000E+01 0.  1.
        -11    1    1    2    0    0  0.86529647831E+01 -0.20750569469E+02 -0.20195000412E+02  0.30220820215E+02  0.00000000000E+00 0.  1.
         11    1    1    2    0    0 -0.33690230583E+02  0.48175596642E+01  0.69563055599E+02  0.77441973259E+02  0.00000000000E+00 0. -1.
</event>
<event>
 7    1  0.2856214E-009  0.1248438E+03  0.7561462E-02  0.1235314E+00
          2   -1    0    0  501    0  0.00000000000E+00  0.00000000000E+00  0.71541826527E+02  0.71541826527E+02  0.00000000000E+00 0.  1.
         -2   -1    0    0    0  501 -0.00000000000E+00 -0.00000000000E+00 -0.39129544309E+03  0.39129544309E+03  0.00000000000E+00 0. -1.
         25    2    1    2    0    0 -0.69332059034E+02 -0.10302570109E+03 -0.13149752809E+03  0.21991028388E+03  0.12509078131E+03 0.  0.
          5    1    3    3  502    0 -0.26079358220E+02 -0.52431243458E+02 -0.14082030125E+03  0.15256801061E+03  0.41800000000E+01 0.  1.
         -5    1    3    3    0  502 -0.43252700814E+02 -0.50594457634E+02  0.93227731575E+01  0.67342273278E+02  0.41800000000E+01 0.  1.
        -11    1    1    2    0    0  0.38780426573E+02  0.62093388030E+02 -0.17568179721E+03  0.19032499624E+03  0.00000000000E+00 0. -1.
         11    1    1    2    0    0  0.30551632461E+02  0.40932313062E+02 -0.12574291265E+02  0.52601989501E+02  0.00000000000E+00 0.  1.
</event>
<event>
 7    1  0.2856214E-009  0.1253125E+03  0.7561462E-02  0.1234582E+00
         -2   -1    0    0    0  501 -0.00000000000E+00  0.00000000000E+00  0.85402640999E+01  0.85402640999E+01  0.00000000000E+00 0.  1.
          2   -1    0    0  501    0  0.00000000000E+00 -0.00000000000E+00 -0.21924163583E+04  0.21924163583E+04  0.00000000000E+00 0. -1.
         25    2    1    2    0    0  0.56141353108E+02  0.28956022861E+02 -0.16226977125E+04  0.16287375978E+04  0.12509194106E+03 0.  0.
          5    1    3    3  502    0 -0.38946174259E+02  0.21417503475E+02 -0.50545621124E+03  0.50742385421E+03  0.41800000000E+01 0.  1.
         -5    1    3    3    0  502  0.95087527367E+02  0.75385193864E+01 -0.11172415012E+04  0.11213137436E+04  0.41800000000E+01 0.  1.
        -11    1    1    2    0    0 -0.77596290665E+02 -0.38965001550E+02 -0.47377254592E+03  0.48166365956E+03  0.00000000000E+00 0.  1.
         11    1    1    2    0    0  0.21454937557E+02  0.10008978689E+02 -0.87405835779E+02  0.90555364989E+02  0.00000000000E+00 0. -1.
</event>
<event>
 7    1  0.2856214E-009  0.1071893E+03  0.7561462E-02  0.1265865E+00
          1   -1    0    0  501    0  0.00000000000E+00  0.00000000000E+00  0.19259052062E+03  0.19259052062E+03  0.00000000000E+00 0. -1.
         -1   -1    0    0    0  501 -0.00000000000E+00 -0.00000000000E+00 -0.94855452179E+02  0.94855452179E+02  0.00000000000E+00 0.  1.
         25    2    1    2    0    0  0.47724073207E+02  0.39538981315E+02  0.11061413333E+03  0.17811356432E+03  0.12509211445E+03 0.  0.
          5    1    3    3  502    0 -0.18466234826E+02 -0.13890784576E+02 -0.13878127729E+02  0.27276923470E+02  0.41800000000E+01 0. -1.
         -5    1    3    3    0  502  0.66190308032E+02  0.53429765891E+02  0.12449226106E+03  0.15083664085E+03  0.41800000000E+01 0. -1.
        -11    1    1    2    0    0 -0.18374281741E+02 -0.64583558081E+02  0.38984154637E+01  0.67259555805E+02  0.00000000000E+00 0.  1.
         11    1    1    2    0    0 -0.29349791466E+02  0.25044576766E+02 -0.16777480354E+02  0.42072852667E+02  0.00000000000E+00 0. -1.
</event>
<event>
 7    1  0.2856214E-009  0.8978594E+02  0.7561462E-02  0.1303371E+00
         -1   -1    0    0    0  501 -0.00000000000E+00  0.00000000000E+00  0.10420267311E+02  0.10420267311E+02  0.00000000000E+00 0.  1.
          1   -1    0    0  501    0  0.00000000000E+00 -0.00000000000E+00 -0.16202817053E+04  0.16202817053E+04  0.00000000000E+00 0. -1.
         25    2    1    2    0    0  0.59121643596E+02  0.25231430949E+02 -0.10721848463E+04  0.10813697460E+04  0.12509272170E+03 0.  0.
          5    1    3    3  502    0  0.41890387180E+02  0.81692055031E+01 -0.99183534883E+02  0.10805732945E+03  0.41800000000E+01 0. -1.
         -5    1    3    3    0  502  0.17231256416E+02  0.17062225446E+02 -0.97300131139E+03  0.97331241650E+03  0.41800000000E+01 0. -1.
        -11    1    1    2    0    0  0.10823558543E+00 -0.48459330336E+02 -0.20769708985E+03  0.21327540774E+03  0.00000000000E+00 0.  1.
         11    1    1    2    0    0 -0.59229879181E+02  0.23227899387E+02 -0.32997950186E+03  0.33605681893E+03  0.00000000000E+00 0. -1.
</event>
<event>
 7    1  0.2856214E-009  0.1197215E+03  0.7561462E-02  0.1243557E+00
          2   -1    0    0  501    0  0.00000000000E+00  0.00000000000E+00  0.81556220587E+03  0.81556220587E+03  0.00000000000E+00 0. -1.
         -2   -1    0    0    0  501 -0.00000000000E+00 -0.00000000000E+00 -0.19987643428E+02  0.19987643428E+02  0.00000000000E+00 0.  1.
         25    2    1    2    0    0 -0.11530424978E+02  0.58644303841E+02  0.50660404493E+03  0.52522871768E+03  0.12508174312E+03 0.  0.
          5    1    3    3  502    0 -0.59879804157E+02  0.48914163693E+02  0.19661056492E+03  0.21130871490E+03  0.41800000000E+01 0. -1.
         -5    1    3    3    0  502  0.48349379179E+02  0.97301401488E+01  0.30999348002E+03  0.31392000278E+03  0.41800000000E+01 0. -1.
        -11    1    1    2    0    0  0.13515770600E+02  0.25227762374E+02  0.88183915746E+02  0.92712022120E+02  0.00000000000E+00 0.  1.
         11    1    1    2    0    0 -0.19853456220E+01 -0.83872066216E+02  0.20078660176E+03  0.21760910950E+03  0.00000000000E+00 0. -1.
</event>
<event>
 7    1  0.2856214E-009  0.1358418E+03  0.7561462E-02  0.1219036E+00
          1   -1    0    0  501    0  0.00000000000E+00  0.00000000000E+00  0.10983065084E+04  0.10983065084E+04  0.00000000000E+00 0. -1.
         -1   -1    0    0    0  501 -0.00000000000E+00 -0.00000000000E+00 -0.17123610623E+02  0.17123610623E+02  0.00000000000E+00 0.  1.
         25    2    1    2    0    0  0.24953888776E+02  0.78254765689E+02  0.53034690032E+03  0.55105571383E+03  0.12509220657E+03 0.  0.
          5    1    3    3  502    0  0.63902802305E+01 -0.34075710136E+02  0.10180311754E+03  0.10762591158E+03  0.41800000000E+01 0.  1.
         -5    1    3    3    0  502  0.18563608545E+02  0.11233047583E+03  0.42854378278E+03  0.44342980225E+03  0.41800000000E+01 0.  1.
        -11    1    1    2    0    0 -0.26496639484E+02 -0.98768212166E+02  0.46401006970E+03  0.47514479522E+03  0.00000000000E+00 0.  1.
         11    1    1    2    0    0  0.15427507082E+01  0.20513446476E+02  0.86825927767E+02  0.89229609988E+02  0.00000000000E+00 0. -1.
</event>
<event>
 7    1  0.2856214E-009  0.1353345E+03  0.7561462E-02  0.1219748E+00
         -2   -1    0    0    0  501 -0.00000000000E+00  0.00000000000E+00  0.85770823784E+02  0.85770823784E+02  0.00000000000E+00 0.  1.
          2   -1    0    0  501    0  0.00000000000E+00 -0.00000000000E+00 -0.26426981963E+03  0.26426981963E+03  0.00000000000E+00 0. -1.
         25    2    1    2    0    0 -0.48428074509E+02 -0.90834662970E+02 -0.12463683325E+03  0.20439414060E+03  0.12508561112E+03 0.  0.
          5    1    3    3  502    0  0.37239758027E+02 -0.58665262926E+00 -0.27713436962E+02  0.46611701615E+02  0.41800000000E+01 0.  1.
         -5    1    3    3    0  502 -0.85667832536E+02 -0.90248010341E+02 -0.96923396293E+02  0.15778243898E+03  0.41800000000E+01 0.  1.
        -11    1    1    2    0    0  0.20957280943E+02  0.98241570655E+01 -0.55453687495E+02  0.60090208382E+02  0.00000000000E+00 0. -1.
         11    1    1    2    0    0  0.27470793566E+02  0.81010505905E+02  0.15915249030E+01  0.85556294436E+02  0.00000000000E+00 0.  1.
</event>
<event>
 7    1  0.2856214E-009  0.1117624E+03  0.7561462E-02  0.1257341E+00
         -2   -1    0    0    0  501 -0.00000000000E+00  0.00000000000E+00  0.11260166066E+03  0.11260166066E+03  0.00000000000E+00 0.  1.
          2   -1    0    0  501    0  0.00000000000E+00 -0.00000000000E+00 -0.17951539254E+03  0.17951539254E+03  0.00000000000E+00 0. -1.
         25    2    1    2    0    0  0.44131328137E+02  0.86487638715E+01 -0.11835086435E+03  0.17798699278E+03  0.12510022889E+03 0.  0.
          5    1    3    3  502    0  0.75992504734E+01 -0.50984657021E+02 -0.87050122759E+02  0.10125403761E+03  0.41800000000E+01 0. -1.
         -5    1    3    3    0  502  0.36532077663E+02  0.59633420893E+02 -0.31300741594E+02  0.76732955176E+02  0.41800000000E+01 0. -1.
        -11    1    1    2    0    0 -0.44934421938E+02  0.35701953164E+02  0.31892236088E+02  0.65657036617E+02  0.00000000000E+00 0.  1.
         11    1    1    2    0    0  0.80309380087E+00 -0.44350717035E+02  0.19544896391E+02  0.48473023798E+02  0.00000000000E+00 0. -1.
</event>
<event>
 7    1  0.2856214E-009  0.1543849E+03  0.7561462E-02  0.1195186E+00
          2   -1    0    0  501    0  0.00000000000E+00  0.00000000000E+00  0.14757483124E+04  0.14757483124E+04  0.00000000000E+00 0. -1.
         -2   -1    0    0    0  501 -0.00000000000E+00 -0.00000000000E+00 -0.26014977861E+02  0.26014977861E+02  0.00000000000E+00 0.  1.
         25    2    1    2    0    0 -0.12214471971E+03 -0.29787295390E+02  0.11557632803E+04  0.11692916715E+04  0.12509051702E+03 0.  0.
          5    1    3    3  502    0 -0.92855731918E+02 -0.77003366620E+02  0.73284290167E+03  0.74271656529E+03  0.41800000000E+01 0.  1.
         -5    1    3    3    0  502 -0.29288987797E+02  0.47216071230E+02  0.42292037867E+03  0.42657510626E+03  0.41800000000E+01 0.  1.
        -11    1    1    2    0    0  0.38536384918E+02 -0.99147058331E+01  0.22621637453E+02  0.45772184079E+02  0.00000000000E+00 0.  1.
         11    1    1    2    0    0  0.83608334796E+02  0.39702001223E+02  0.27134841671E+03  0.28669943460E+03  0.00000000000E+00 0. -1.
</event>
<event>
 7    1  0.2856214E-009  0.1012338E+03  0.7561462E-02  0.1277723E+00
         -2   -1    0    0    0  501 -0.00000000000E+00  0.00000000000E+00  0.31910555771E+03  0.31910555771E+03  0.00000000000E+00 0.  1.
          2   -1    0    0  501    0  0.00000000000E+00 -0.00000000000E+00 -0.43599100335E+02  0.43599100335E+02  0.00000000000E+00 0. -1.
         25    2    1    2    0    0 -0.11382631157E+02  0.42025497398E+02  0.12537197657E+03  0.18238149681E+03  0.12509664722E+03 0.  0.
          5    1    3    3  502    0 -0.21480648720E+02  0.70175666021E+02  0.13234529585E+03  0.15138953763E+03  0.41800000000E+01 0.  1.
         -5    1    3    3    0  502  0.10098017564E+02 -0.28150168624E+02 -0.69733192742E+01  0.30991959182E+02  0.41800000000E+01 0.  1.
        -11    1    1    2    0    0  0.46428343237E+02 -0.33189055670E+01  0.57420954021E+02  0.73917333221E+02  0.00000000000E+00 0.  1.
         11    1    1    2    0    0 -0.35045712080E+02 -0.38706591831E+02  0.92713526779E+02  0.10640582801E+03  0.00000000000E+00 0. -1.
</event>
<event>
 7    1  0.2856214E-009  0.1268410E+03  0.7561462E-02  0.1232220E+00
         -2   -1    0    0    0  501 -0.00000000000E+00  0.00000000000E+00  0.12568883268E+02  0.12568883268E+02  0.00000000000E+00 0.  1.
          2   -1    0    0  501    0  0.00000000000E+00 -0.00000000000E+00 -0.26331161210E+04  0.26331161210E+04  0.00000000000E+00 0. -1.
         25    2    1    2    0    0 -0.87267371733E+02  0.47828328859E+02 -0.21634552403E+04  0.21693520861E+04  0.12508698374E+03 0.  0.
          5    1    3    3  502    0 -0.76678344361E+02  0.72608224134E+02 -0.99842297294E+03  0.10040007112E+04  0.41800000000E+01 0.  1.
         -5    1    3    3    0  502 -0.10589027372E+02 -0.24779895276E+02 -0.11650322673E+04  0.11653513749E+04  0.41800000000E+01 0.  1.
        -11    1    1    2    0    0  0.85195818104E+02 -0.62657341394E+02 -0.44407062309E+03  0.45648985547E+03  0.00000000000E+00 0. -1.
         11    1    1    2    0    0  0.20715536286E+01  0.14829012535E+02 -0.13021374330E+02  0.19843062683E+02  0.00000000000E+00 0.  1.
</event>
<event>
 7    1  0.2856214E-009  0.1070862E+03  0.7561462E-02  0.1266063E+00
         -4   -1    0    0    0  501 -0.00000000000E+00  0.00000000000E+00  0.29478953296E+02  0.29478953296E+02  0.00000000000E+00 0. -1.
          4   -1    0    0  501    0  0.00000000000E+00 -0.00000000000E+00 -0.63434387486E+03  0.63434387486E+03  0.00000000000E+00 0.  1.
         25    2    1    2    0    0  0.57026503446E+02 -0.70086023123E+01 -0.48273010539E+03  0.50197283667E+03  0.12508889441E+03 0.  0.
          5    1    3    3  502    0 -0.88594935295E+00  0.50509884220E+02 -0.25579190930E+03  0.26076619139E+03  0.41800000000E+01 0.  1.
         -5    1    3    3    0  502  0.57912452799E+02 -0.57518486533E+02 -0.22693819609E+03  0.24120664528E+03  0.41800000000E+01 0.  1.
        -11    1    1    2    0    0 -0.84735653120E+01  0.27705652062E+02 -0.19010639168E+00  0.28973101417E+02  0.00000000000E+00 0. -1.
         11    1    1    2    0    0 -0.48552938134E+02 -0.20697049750E+02 -0.12194470979E+03  0.13287689007E+03  0.00000000000E+00 0.  1.
</event>
<event>
 7    1  0.2856214E-009  0.1174083E+03  0.7561462E-02  0.1247435E+00
          2   -1    0    0  501    0  0.00000000000E+00  0.00000000000E+00  0.10931927567E+04  0.10931927567E+04  0.00000000000E+00 0. -1.
         -2   -1    0    0    0  501 -0.00000000000E+00 -0.00000000000E+00 -0.13861447145E+02  0.13861447145E+02  0.00000000000E+00 0.  1.
         25    2    1    2    0    0  0.43191639624E+02  0.37413731338E+02  0.68771990760E+03  0.70133622421E+03  0.12509405682E+03 0.  0.
          5    1    3    3  502    0 -0.11987679741E+02 -0.35291850640E+02  0.10502012369E+03  0.11151644707E+03  0.41800000000E+01 0. -1.
         -5    1    3    3    0  502  0.55179319365E+02  0.72705581978E+02  0.58269978391E+03  0.58981977714E+03  0.41800000000E+01 0. -1.
        -11    1    1    2    0    0 -0.66277066178E+02 -0.54333582752E+01  0.23665050007E+03  0.24581625265E+03  0.00000000000E+00 0.  1.
         11    1    1    2    0    0  0.23085426554E+02 -0.31980373063E+02  0.15496090189E+03  0.15990172699E+03  0.00000000000E+00 0. -1.
</event>
<event>
 7    1  0.2856214E-009  0.1335253E+03  0.7561462E-02  0.1222317E+00
         -2   -1    0    0    0  501 -0.00000000000E+00  0.00000000000E+00  0.39261110354E+03  0.39261110354E+03  0.00000000000E+00 0.  1.
          2   -1    0    0  501    0  0.00000000000E+00 -0.00000000000E+00 -0.59266160195E+02  0.59266160195E+02  0.00000000000E+00 0. -1.
         25    2    1    2    0    0  0.10109467423E+03 -0.82655483409E+00  0.12344225209E+03  0.20275201095E+03  0.12509824936E+03 0.  0.
          5    1    3    3  502    0  0.66914329257E+02  0.55919320085E+02  0.99054332412E+02  0.13203685466E+03  0.41800000000E+01 0.  1.
         -5    1    3    3    0  502  0.34180344975E+02 -0.56745874919E+02  0.24387919675E+02  0.70715156289E+02  0.41800000000E+01 0.  1.
        -11    1    1    2    0    0 -0.53596128089E+02 -0.25181804027E+02  0.17487994473E+03  0.18463386274E+03  0.00000000000E+00 0.  1.
         11    1    1    2    0    0 -0.47498546143E+02  0.26008358861E+02  0.35022746530E+02  0.64491390052E+02  0.00000000000E+00 0. -1.
</event>
<event>
 7    1  0.2856214E-009  0.1488754E+03  0.7561462E-02  0.1201862E+00
         -4   -1    0    0    0  501 -0.00000000000E+00  0.00000000000E+00  0.58804130766E+02  0.58804130766E+02  0.00000000000E+00 0.  1.
          4   -1    0    0  501    0  0.00000000000E+00 -0.00000000000E+00 -0.50585370751E+03  0.50585370751E+03  0.00000000000E+00 0. -1.
         25    2    1    2    0    0 -0.10066718730E+03 -0.23183565743E+02 -0.10077060517E+03  0.19098145474E+03  0.12509133012E+03 0.  0.
          5    1    3    3  502    0  0.23802766265E+02  0.13371132983E+02 -0.16517201177E+01  0.27668745155E+02  0.41800000000E+01 0. -1.
         -5    1    3    3    0  502 -0.12446995356E+03 -0.36554698726E+02 -0.99118885049E+02  0.16331270959E+03  0.41800000000E+01 0. -1.
        -11    1    1    2    0    0  0.86407813582E+02  0.57083400165E+02 -0.26184957932E+03  0.28158484869E+03  0.00000000000E+00 0.  1.
         11    1    1    2    0    0  0.14259373718E+02 -0.33899834422E+02 -0.84429392253E+02  0.92091534838E+02  0.00000000000E+00 0. -1.
</event>
<event>
 7    1  0.2856214E-009  0.2251523E+03  0.7561462E-02  0.1130099E+00
         -1   -1    0    0    0  501 -0.00000000000E+00  0.00000000000E+00  0.10646156344E+03  0.10646156344E+03  0.00000000000E+00 0.  1.
          1   -1    0    0  501    0  0.00000000000E+00 -0.00000000000E+00 -0.53647076391E+03  0.53647076391E+03  0.00000000000E+00 0. -1.
         25    2    1    2    0    0 -0.17190150648E+03  0.11404508755E+03 -0.29023345686E+03  0.37741058634E+03  0.12508749450E+03 0.  0.
          5    1    3    3  502    0  0.15633575922E+02 -0.54054953496E+01 -0.10434927491E+02  0.19999704694E+02  0.41800000000E+01 0.  1.
         -5    1    3    3    0  502 -0.18753508240E+03  0.11945058289E+03 -0.27979852937E+03  0.35741088165E+03  0.41800000000E+01 0.  1.
        -11    1    1    2    0    0  0.82147773565E+02 -0.80570324934E+02 -0.28207452873E+02  0.11847149176E+03  0.00000000000E+00 0.  1.
         11    1    1    2    0    0  0.89753732914E+02 -0.33474762611E+02 -0.11156829074E+03  0.14705024924E+03  0.00000000000E+00 0. -1.
</event>
<event>
 7    1  0.2856214E-009  0.1263743E+03  0.7561462E-02  0.1232937E+00
          1   -1    0    0  501    0  0.00000000000E+00  0.00000000000E+00  0.47013612016E+03  0.47013612016E+03  0.00000000000E+00 0. -1.
         -1   -1    0    0    0  501 -0.00000000000E+00 -0.00000000000E+00 -0.42198263070E+02  0.42198263070E+02  0.00000000000E+00 0.  1.
         25    2    1    2    0    0  0.53980806614E+02  0.49129130066E+02  0.14119413084E+03  0.20226150020E+03  0.12508530280E+03 0.  0.
          5    1    3    3  502    0  0.93064737507E+02  0.44051956212E+02  0.85475649686E+02  0.13388494801E+03  0.41800000000E+01 0.  1.
         -5    1    3    3    0  502 -0.39083930893E+02  0.50771738540E+01  0.55718481152E+02  0.68376552196E+02  0.41800000000E+01 0.  1.
        -11    1    1    2    0    0 -0.49141587489E+02 -0.71732451174E+02  0.16872721299E+03  0.18981388931E+03  0.00000000000E+00 0.  1.
         11    1    1    2    0    0 -0.48392191245E+01  0.22603321109E+02  0.11801651326E+03  0.12025899371E+03  0.00000000000E+00 0. -1.
</event>
<event>
 7    1  0.2856214E-009  0.1494326E+03  0.7561462E-02  0.1201172E+00
          2   -1    0    0  501    0  0.00000000000E+00  0.00000000000E+00  0.17376269325E+03  0.17376269325E+03  0.00000000000E+00 0. -1.
         -2   -1    0    0    0  501 -0.00000000000E+00 -0.00000000000E+00 -0.16471567529E+03  0.16471567529E+03  0.00000000000E+00 0.  1.
         25    2    1    2    0    0 -0.60430416925E+02 -0.10489558679E+03  0.37147450259E+02  0.17799660300E+03  0.12509171915E+03 0.  0.
          5    1    3    3  502    0 -0.49453532873E+02  0.11991200021E+02  0.32308624076E+02  0.60421522500E+02  0.41800000000E+01 0.  1.
         -5    1    3    3    0  502 -0.10976884051E+02 -0.11688678681E+03  0.48388261833E+01  0.11757508049E+03  0.41800000000E+01 0.  1.
        -11    1    1    2    0    0  0.44032541909E+02  0.29092606059E+02 -0.57032891799E+02  0.77704537971E+02  0.00000000000E+00 0.  1.
         11    1    1    2    0    0  0.16397875016E+02  0.75802980731E+02  0.28932459499E+02  0.82777227578E+02  0.00000000000E+00 0. -1.
</event>
<event>
 7    1  0.2856214E-009  0.1021609E+03  0.7561462E-02  0.1275816E+00
          3   -1    0    0  501    0  0.00000000000E+00  0.00000000000E+00  0.47892630827E+02  0.47892630827E+02  0.00000000000E+00 0. -1.
         -3   -1    0    0    0  501 -0.00000000000E+00 -0.00000000000E+00 -0.34249344009E+03  0.34249344009E+03  0.00000000000E+00 0.  1.
         25    2    1    2    0    0 -0.49898894550E+02 -0.29667877254E+02 -0.10438527675E+03  0.17295705874E+03  0.12509106902E+03 0.  0.
          5    1    3    3  502    0 -0.82299008294E+02 -0.40444963997E+02 -0.10377900432E+03  0.13855134794E+03  0.41800000000E+01 0. -1.
         -5    1    3    3    0  502  0.32400113744E+02  0.10777086743E+02 -0.60627243236E+00  0.34405710799E+02  0.41800000000E+01 0. -1.
        -11    1    1    2    0    0  0.51521163792E+02  0.32128410422E+01 -0.41123025269E+02  0.65998908122E+02  0.00000000000E+00 0. -1.
         11    1    1    2    0    0 -0.16222692425E+01  0.26455036212E+02 -0.14909250724E+03  0.15143010406E+03  0.00000000000E+00 0.  1.
</event>
<event>
 7    1  0.2856214E-009  0.1081576E+03  0.7561462E-02  0.1264020E+00
         -2   -1    0    0    0  501 -0.00000000000E+00  0.00000000000E+00  0.53269987736E+02  0.53269987736E+02  0.00000000000E+00 0.  1.
          2   -1    0    0  501    0  0.00000000000E+00 -0.00000000000E+00 -0.34920533074E+03  0.34920533074E+03  0.00000000000E+00 0. -1.
         25    2    1    2    0    0 -0.35254582099E+02 -0.67934172846E+02 -0.22037987473E+03  0.26471100764E+03  0.12508673384E+03 0.  0.
          5    1    3    3  502    0  0.36137383326E+01  0.11438378062E+02  0.11118104912E+02  0.16881358188E+02  0.41800000000E+01 0. -1.
         -5    1    3    3    0  502 -0.38868320431E+02 -0.79372550908E+02 -0.23149797964E+03  0.24782964946E+03  0.41800000000E+01 0. -1.
        -11    1    1    2    0    0 -0.28822400892E+02  0.22966637508E+02 -0.22086839703E+02  0.42965401426E+02  0.00000000000E+00 0. -1.
         11    1    1    2    0    0  0.64076982991E+02  0.44967535338E+02 -0.53468628569E+02  0.94798909406E+02  0.00000000000E+00 0.  1.
</event>
<event>
 7    1  0.2856214E-009  0.1116394E+03  0.7561462E-02  0.1257564E+00
         -2   -1    0    0    0  501 -0.00000000000E+00  0.00000000000E+00  0.18317266682E+03  0.18317266682E+03  0.00000000000E+00 0.  1.
          2   -1    0    0  501    0  0.00000000000E+00 -0.00000000000E+00 -0.82273304378E+02  0.82273304378E+02  0.00000000000E+00 0. -1.
         25    2    1    2    0    0 -0.33783263540E+02 -0.19014050870E+02  0.10010406117E+02  0.13134324150E+03  0.12509194951E+03 0.  0.
          5    1    3    3  502    0  0.45755491428E+02 -0.17040147887E+02  0.15725709653E+02  0.51465541675E+02  0.41800000000E+01 0.  1.
         -5    1    3    3    0  502 -0.79538754968E+02 -0.19739029836E+01 -0.57153035360E+01  0.79877699825E+02  0.41800000000E+01 0.  1.
        -11    1    1    2    0    0  0.40530142746E+02 -0.26607759911E+02  0.65394456152E+02  0.81407003715E+02  0.00000000000E+00 0.  1.
         11    1    1    2    0    0 -0.67468792058E+01  0.45621810781E+02  0.25494500175E+02  0.52695725985E+02  0.00000000000E+00 0. -1.
</event>
<event>
 7    1  0.2856214E-009  0.1563250E+03  0.7561462E-02  0.1192909E+00
         -2   -1    0    0    0  501 -0.00000000000E+00  0.00000000000E+00  0.23847132851E+02  0.23847132851E+02  0.00000000000E+00 0.  1.
          2   -1    0    0  501    0  0.00000000000E+00 -0.00000000000E+00 -0.10327728936E+04  0.10327728936E+04  0.00000000000E+00 0. -1.
         25    2    1    2    0    0 -0.95587760126E+02  0.31317660495E+02 -0.50446169396E+03  0.52938311933E+03  0.12508825130E+03 0.  0.
          5    1    3    3  502    0 -0.11931732791E+03  0.50577491601E+02 -0.40567431951E+03  0.42589180939E+03  0.41800000000E+01 0. -1.
         -5    1    3    3    0  502  0.23729567788E+02 -0.19259831107E+02 -0.98787374453E+02  0.10349130994E+03  0.41800000000E+01 0. -1.
        -11    1    1    2    0    0 -0.25373408515E+00  0.35377028002E+02 -0.14647541733E+03  0.15068724689E+03  0.00000000000E+00 0. -1.
         11    1    1    2    0    0  0.95841494211E+02 -0.66694688497E+02 -0.35798864950E+03  0.37654966028E+03  0.00000000000E+00 0.  1.
</event>
<event>
 7    1  0.2856214E-009  0.1103752E+03  0.7561462E-02  0.1259877E+00
         -2   -1    0    0    0  501 -0.00000000000E+00  0.00000000000E+00  0.21381993904E+03  0.21381993904E+03  0.00000000000E+00 0.  1.
          2   -1    0    0  501    0  0.00000000000E+00 -0.00000000000E+00 -0.10246890257E+03  0.10246890257E+03  0.00000000000E+00 0. -1.
         25    2    1    2    0    0 -0.56800188413E+02 -0.41912785280E+01  0.14909572841E+03  0.20278303513E+03  0.12509034689E+03 0.  0.
          5    1    3    3  502    0 -0.91717815323E+02  0.18846538933E+02  0.11687304383E+03  0.14981365242E+03  0.41800000000E+01 0.  1.
         -5    1    3    3    0  502  0.34917626910E+02 -0.23037817461E+02  0.32222684582E+02  0.52969382704E+02  0.41800000000E+01 0.  1.
        -11    1    1    2    0    0  0.26678648247E+02 -0.29509701798E+02  0.16351867417E+02  0.43011118801E+02  0.00000000000E+00 0.  1.
         11    1    1    2    0    0  0.30121540166E+02  0.33700980326E+02 -0.54096559367E+02  0.70494687688E+02  0.00000000000E+00 0. -1.
</event>
<event>
 7    1  0.2856214E-009  0.8605130E+02  0.7561462E-02  0.1312706E+00
          1   -1    0    0  501    0  0.00000000000E+00  0.00000000000E+00  0.26168742807E+03  0.26168742807E+03  0.00000000000E+00 0. -1.
         -1   -1    0    0    0  501 -0.00000000000E+00 -0.00000000000E+00 -0.45487422337E+02  0.45487422337E+02  0.00000000000E+00 0.  1.
         25    2    1    2    0    0 -0.23773353349E+02 -0.92361645744E+01  0.13676659542E+03  0.18708786862E+03  0.12508513059E+03 0.  0.
          5    1    3    3  502    0  0.39365681209E+02  0.30305306556E+02  0.75830017475E+02  0.90750936154E+02  0.41800000000E+01 0.  1.
         -5    1    3    3    0  502 -0.63139034558E+02 -0.39541471131E+02  0.60936577948E+02  0.96336932462E+02  0.41800000000E+01 0.  1.
        -11    1    1    2    0    0  0.26421893371E+02 -0.99723733065E+01 -0.89313238196E+01  0.29619811340E+02  0.00000000000E+00 0.  1.
         11    1    1    2    0    0 -0.26485400219E+01  0.19208537881E+02  0.88364734133E+02  0.90467170455E+02  0.00000000000E+00 0. -1.
</event>
<event>
 7    1  0.2856214E-009  0.1333209E+03  0.7561462E-02  0.1222610E+00
         -1   -1    0    0    0  501 -0.00000000000E+00  0.00000000000E+00  0.26410679084E+02  0.26410679084E+02  0.00000000000E+00 0.  1.
          1   -1    0    0  501    0  0.00000000000E+00 -0.00000000000E+00 -0.10434892796E+04  0.10434892796E+04  0.00000000000E+00 0. -1.
         25    2    1    2    0    0 -0.32890232130E+02  0.11834697814E+03 -0.65704142656E+03  0.68002861885E+03  0.12509081360E+03 0.  0.
          5    1    3    3  502    0  0.10326962021E+02  0.81246507789E+02 -0.57035401475E+03  0.57621941630E+03  0.41800000000E+01 0. -1.
         -5    1    3    3    0  502 -0.43217194152E+02  0.37100470351E+02 -0.86687411800E+02  0.10380920256E+03  0.41800000000E+01 0. -1.
        -11    1    1    2    0    0  0.63078049995E+01 -0.83290417440E+02 -0.12233171270E+03  0.14812876147E+03  0.00000000000E+00 0.  1.
         11    1    1    2    0    0  0.26582427131E+02 -0.35056560700E+02 -0.23770546123E+03  0.24174257833E+03  0.00000000000E+00 0. -1.
</event>
<event>
 7    1  0.2856214E-009  0.1227578E+03  0.7561462E-02  0.1238616E+00
         -1   -1    0    0    0  501 -0.00000000000E+00  0.00000000000E+00  0.49026344603E+02  0.49026344603E+02  0.00000000000E+00 0.  1.
          1   -1    0    0  501    0  0.00000000000E+00 -0.00000000000E+00 -0.32647964025E+03  0.32647964025E+03  0.00000000000E+00 0. -1.
         25    2    1    2    0    0 -0.61853991521E+02 -0.53436533868E-01 -0.13697839784E+03  0.19554039662E+03  0.12508815337E+03 0.  0.
          5    1    3    3  502    0 -0.69180103109E+02 -0.50853471913E+02 -0.68823391857E+02  0.11011854493E+03  0.41800000000E+01 0.  1.
         -5    1    3    3    0  502  0.73261115886E+01  0.50800035380E+02 -0.68155005980E+02  0.85421851688E+02  0.41800000000E+01 0.  1.
        -11    1    1    2    0    0  0.22765483775E+02  0.43818005363E+02 -0.89587242961E+02  0.10229447173E+03  0.00000000000E+00 0.  1.
         11    1    1    2    0    0  0.39088507746E+02 -0.43764568829E+02 -0.50887654853E+02  0.77671116504E+02  0.00000000000E+00 0. -1.
</event>
<event>
 7    1  0.2856214E-009  0.1130935E+03  0.7561462E-02  0.1254946E+00
          2   -1    0    0  501    0  0.00000000000E+00  0.00000000000E+00  0.57972683425E+03  0.57972683425E+03  0.00000000000E+00 0. -1.
         -2   -1    0    0    0  501 -0.00000000000E+00 -0.00000000000E+00 -0.25830189800E+02  0.25830189800E+02  0.00000000000E+00 0.  1.
         25    2    1    2    0    0 -0.42048900832E+02 -0.37328526077E+02  0.26748976972E+03  0.30059896546E+03  0.12508969666E+03 0.  0.
          5    1    3    3  502    0  0.25902211771E+02 -0.50367637160E+02  0.18133947945E+03  0.19002447909E+03  0.41800000000E+01 0. -1.
         -5    1    3    3    0  502 -0.67951112604E+02  0.13039111083E+02  0.86150290276E+02  0.11057448637E+03  0.41800000000E+01 0. -1.
        -11    1    1    2    0    0  0.45967327677E+02  0.60834269665E+02  0.17273554225E+03  0.18881570680E+03  0.00000000000E+00 0.  1.
         11    1    1    2    0    0 -0.39184268449E+01 -0.23505743588E+02  0.11367133248E+03  0.11614235178E+03  0.00000000000E+00 0. -1.
</event>
<event>
 7    1  0.2856214E-009  0.8694071E+02  0.7561462E-02  0.1310434E+00
         -1   -1    0    0    0  501 -0.00000000000E+00  0.00000000000E+00  0.27170197803E+03  0.27170197803E+03  0.00000000000E+00 0.  1.
          1   -1    0    0  501    0  0.00000000000E+00 -0.00000000000E+00 -0.54526818023E+02  0.54526818023E+02  0.00000000000E+00 0. -1.
         25    2    1    2    0    0 -0.65122192082E+01 -0.34780792287E+02  0.64992704619E+02  0.14534108042E+03  0.12509142853E+03 0.  0.
          5    1    3    3  502    0 -0.27364371184E+02  0.79098699615E+01 -0.28421626275E+02  0.40455359264E+02  0.41800000000E+01 0. -1.
         -5    1    3    3    0  502  0.20852151976E+02 -0.42690662248E+02  0.93414330893E+02  0.10488572115E+03  0.41800000000E+01 0. -1.
        -11    1    1    2    0    0  0.31993769052E+01  0.65962425754E+02  0.95502204023E+02  0.11611179353E+03  0.00000000000E+00 0.  1.
         11    1    1    2    0    0  0.33128423030E+01 -0.31181633467E+02  0.56680251367E+02  0.64775922107E+02  0.00000000000E+00 0. -1.
</event>
<event>
 7    1  0.2856214E-009  0.2821316E+03  0.7561462E-02  0.1094530E+00
          2   -1    0    0  501    0  0.00000000000E+00  0.00000000000E+00  0.18705625005E+04  0.18705625005E+04  0.00000000000E+00 0. -1.
         -2   -1    0    0    0  501 -0.00000000000E+00 -0.00000000000E+00 -0.49687062491E+02  0.49687062491E+02  0.00000000000E+00 0.  1.
         25    2    1    2    0    0  0.59533738011E+01 -0.26872082448E+03  0.63357451231E+03  0.69950749302E+03  0.12509095077E+03 0.  0.
          5    1    3    3  502    0 -0.57836233149E+02 -0.14610601829E+03  0.36554842803E+03  0.39791346306E+03  0.41800000000E+01 0. -1.
         -5    1    3    3    0  502  0.63789606950E+02 -0.12261480620E+03  0.26802608428E+03  0.30159402996E+03  0.41800000000E+01 0. -1.
        -11    1    1    2    0    0 -0.39837512730E+01  0.14164258967E+03  0.81803468576E+03  0.83021638179E+03  0.00000000000E+00 0.  1.
         11    1    1    2    0    0 -0.19696225281E+01  0.12707823482E+03  0.36926623995E+03  0.39052568820E+03  0.00000000000E+00 0. -1.
</event>
<event>
 7    1  0.2856214E-009  0.1458095E+03  0.7561462E-02  0.1205719E+00
         -1   -1    0    0    0  501 -0.00000000000E+00  0.00000000000E+00  0.74701713386E+02  0.74701713386E+02  0.00000000000E+00 0.  1.
          1   -1    0    0  501    0  0.00000000000E+00 -0.00000000000E+00 -0.33381697175E+03  0.33381697175E+03  0.00000000000E+00 0. -1.
         25    2    1    2    0    0 -0.26356522318E+02  0.10430808843E+03 -0.16799629233E+03  0.23546759953E+03  0.12508953837E+03 0.  0.
          5    1    3    3  502    0 -0.69013947813E+00 -0.27371572296E+02 -0.13508539886E+02  0.30816104756E+02  0.41800000000E+01 0.  1.
         -5    1    3    3    0  502 -0.25666382840E+02  0.13167966072E+03 -0.15448775245E+03  0.20465149477E+03  0.41800000000E+01 0.  1.
        -11    1    1    2    0    0  0.51250852358E+02 -0.60299747868E+02 -0.13297407247E+02  0.80246685289E+02  0.00000000000E+00 0.  1.
         11    1    1    2    0    0 -0.24894330040E+02 -0.44008340560E+02 -0.77821558788E+02  0.92804400323E+02  0.00000000000E+00 0. -1.
</event>
<event>
 7    1  0.2856214E-009  0.9875187E+02  0.7561462E-02  0.1282943E+00
         -2   -1    0    0    0  501 -0.00000000000E+00  0.00000000000E+00  0.71728509606E+02  0.71728509606E+02  0.00000000000E+00 0.  1.
          2   -1    0    0  501    0  0.00000000000E+00 -0.00000000000E+00 -0.19135573277E+03  0.19135573277E+03  0.00000000000E+00 0. -1.
         25    2    1    2    0    0 -0.38455388832E+01 -0.40449535069E+02 -0.57356229333E+02  0.14348080692E+03  0.12508417907E+03 0.  0.
          5    1    3    3  502    0 -0.55397415140E+02  0.96622258843E+01 -0.99435130055E+01  0.57258868868E+02  0.41800000000E+01 0.  1.
         -5    1    3    3    0  502  0.51551876256E+02 -0.50111760953E+02 -0.47412716327E+02  0.86221938049E+02  0.41800000000E+01 0.  1.
        -11    1    1    2    0    0 -0.47552144998E+01  0.53368065970E+02 -0.79845980529E+02  0.96156867342E+02  0.00000000000E+00 0. -1.
         11    1    1    2    0    0  0.86007533830E+01 -0.12918530901E+02  0.17574986694E+02  0.23446568122E+02  0.00000000000E+00 0.  1.
</event>
<event>
 7    1  0.2856214E-009  0.1133115E+03  0.7561462E-02  0.1254558E+00
          2   -1    0    0  501    0  0.00000000000E+00  0.00000000000E+00  0.10302472862E+04  0.10302472862E+04  0.00000000000E+00 0. -1.
         -2   -1    0    0    0  501 -0.00000000000E+00 -0.00000000000E+00 -0.17133363747E+02  0.17133363747E+02  0.00000000000E+00 0.  1.
         25    2    1    2    0    0 -0.14117771808E+02  0.69208516175E+02  0.67412090709E+03  0.68925734056E+03  0.12509018328E+03 0.  0.
          5    1    3    3  502    0 -0.42078637018E+02  0.78726463963E+02  0.62802420836E+03  0.63435033421E+03  0.41800000000E+01 0.  1.
         -5    1    3    3    0  502  0.27960865209E+02 -0.95179477878E+01  0.46096698725E+02  0.54907006353E+02  0.41800000000E+01 0.  1.
        -11    1    1    2    0    0 -0.11685059123E+02 -0.78978026632E+02  0.18224466961E+03  0.19896529571E+03  0.00000000000E+00 0.  1.
         11    1    1    2    0    0  0.25802830931E+02  0.97695104566E+01  0.15674834577E+03  0.15915801368E+03  0.00000000000E+00 0. -1.
</event>
<event>
 7    1  0.2856214E-009  0.1736318E+03  0.7561462E-02  0.1174113E+00
          1   -1    0    0  501    0  0.00000000000E+00  0.00000000000E+00  0.59611456009E+03  0.59611456009E+03  0.00000000000E+00 0. -1.
         -1   -1    0    0    0  501 -0.00000000000E+00 -0.00000000000E+00 -0.82102828602E+02  0.82102828602E+02  0.00000000000E+00 0.  1.
         25    2    1    2    0    0  0.42053411977E+02 -0.13273954543E+03  0.47834652327E+03  0.51366426660E+03  0.12508919251E+03 0.  0.
          5    1    3    3  502    0  0.86136315879E+02 -0.99036447437E+02  0.32465146059E+03  0.35020526281E+03  0.41800000000E+01 0.  1.
         -5    1    3    3    0  502 -0.44082903902E+02 -0.33703097990E+02  0.15369506267E+03  0.16345900379E+03  0.41800000000E+01 0.  1.
        -11    1    1    2    0    0 -0.58850591925E+02  0.54290388384E+02  0.23216864674E+02  0.83365827808E+02  0.00000000000E+00 0. -1.
         11    1    1    2    0    0  0.16797179948E+02  0.78449157043E+02  0.12448343541E+02  0.81187294276E+02  0.00000000000E+00 0.  1.
</event>
<event>
 7    1  0.2856214E-009  0.1450599E+03  0.7561462E-02  0.1206678E+00
          1   -1    0    0  501    0  0.00000000000E+00  0.00000000000E+00  0.75493075734E+03  0.75493075734E+03  0.00000000000E+00 0. -1.
         -1   -1    0    0    0  501 -0.00000000000E+00 -0.00000000000E+00 -0.28582791406E+02  0.28582791406E+02  0.00000000000E+00 0.  1.
         25    2    1    2    0    0  0.19147465553E+02 -0.96091067706E+02  0.36804605968E+03  0.40088084795E+03  0.12508970172E+03 0.  0.
          5    1    3    3  502    0  0.40137824996E+02  0.16758565489E+02  0.11344843140E+03  0.12157266756E+03  0.41800000000E+01 0.  1.
         -5    1    3    3    0  502 -0.20990359443E+02 -0.11284963319E+03  0.25459762828E+03  0.27930818038E+03  0.41800000000E+01 0.  1.
        -11    1    1    2    0    0  0.16823214488E+02  0.94040144752E+02  0.22269886652E+03  0.24232489456E+03  0.00000000000E+00 0.  1.
         11    1    1    2    0    0 -0.35970680042E+02  0.20509229539E+01  0.13560303973E+03  0.14030780624E+03  0.00000000000E+00 0. -1.
</event>
<event>
 7    1  0.2856214E-009  0.1132073E+03  0.7561462E-02  0.1254743E+00
          2   -1    0    0  501    0  0.00000000000E+00  0.00000000000E+00  0.38208324044E+03  0.38208324044E+03  0.00000000000E+00 0. -1.
         -2   -1    0    0    0  501 -0.00000000000E+00 -0.00000000000E+00 -0.40125108047E+02  0.40125108047E+02  0.00000000000E+00 0.  1.
         25    2    1    2    0    0  0.31992293756E+01 -0.59649325188E+02  0.17818046594E+03  0.22574682966E+03  0.12508027661E+03 0.  0.
          5    1    3    3  502    0  0.24393761952E+02 -0.88040602220E+02  0.80788944841E+02  0.12202675637E+03  0.41800000000E+01 0. -1.
         -5    1    3    3    0  502 -0.21194532577E+02  0.28391277031E+02  0.97391521097E+02  0.10372007329E+03  0.41800000000E+01 0. -1.
        -11    1    1    2    0    0 -0.30464192104E+01  0.79438125044E+02  0.90028424653E+02  0.12010334561E+03  0.00000000000E+00 0.  1.
         11    1    1    2    0    0 -0.15281016525E+00 -0.19788799856E+02  0.73749241801E+02  0.76358173216E+02  0.00000000000E+00 0. -1.
</event>
<event>
 7    1  0.5557186E-009  0.1630802E+03  0.7561462E-02  0.1185262E+00
         -1   -1    0    0    0  501 -0.00000000000E+00  0.00000000000E+00  0.26339791267E+02  0.26339791267E+02  0.00000000000E+00 0.  1.
          1   -1    0    0  501    0  0.00000000000E+00 -0.00000000000E+00 -0.12085824899E+04  0.12085824899E+04  0.00000000000E+00 0. -1.
         25    2    1    2    0    0 -0.31838147281E+02 -0.12860218627E+03 -0.79559297231E+03  0.81619220037E+03  0.12509732379E+03 0.  0.
          5    1    3    3  502    0 -0.32200269354E+02  0.16513222128E+02 -0.13443734525E+03  0.13928537630E+03  0.41800000000E+01 0. -1.
         -5    1    3    3    0  502  0.36212207332E+00 -0.14511540840E+03 -0.66115562706E+03  0.67690682407E+03  0.41800000000E+01 0. -1.
        -11    1    1    2    0    0  0.35113324762E+02  0.30824407942E+02 -0.51242965060E+02  0.69346457508E+02  0.00000000000E+00 0. -1.
         11    1    1    2    0    0 -0.32751774808E+01  0.97777778328E+02 -0.33540676126E+03  0.34938362329E+03  0.00000000000E+00 0.  1.
</event>
<event>
 7    1  0.2856214E-009  0.1008890E+03  0.7561462E-02  0.1278437E+00
         -1   -1    0    0    0  501 -0.00000000000E+00  0.00000000000E+00  0.19100237512E+03  0.19100237512E+03  0.00000000000E+00 0.  1.
          1   -1    0    0  501    0  0.00000000000E+00 -0.00000000000E+00 -0.85593855080E+02  0.85593855080E+02  0.00000000000E+00 0. -1.
         25    2    1    2    0    0 -0.40917540144E+02  0.52475532652E+02  0.47902320789E+02  0.14956624182E+03  0.12508997457E+03 0.  0.
          5    1    3    3  502    0 -0.84785193866E+01  0.54953078467E+02  0.83980434983E+02  0.10080630925E+03  0.41800000000E+01 0. -1.
         -5    1    3    3    0  502 -0.32439020758E+02 -0.24775458144E+01 -0.36078114194E+02  0.48759932576E+02  0.41800000000E+01 0. -1.
        -11    1    1    2    0    0 -0.16557866152E+02 -0.53220459887E+02  0.26402748338E+02  0.61674025342E+02  0.00000000000E+00 0. -1.
         11    1    1    2    0    0  0.57475406296E+02  0.74492723461E+00  0.31103450911E+02  0.65355963034E+02  0.00000000000E+00 0.  1.
</event>
<event>
 7    1  0.2856214E-009  0.1658209E+03  0.7561462E-02  0.1182277E+00
          1   -1    0    0  501    0  0.00000000000E+00  0.00000000000E+00  0.29416442752E+02  0.29416442752E+02  0.00000000000E+00 0. -1.
         -1   -1    0    0    0  501 -0.00000000000E+00 -0.00000000000E+00 -0.10614238991E+04  0.10614238991E+04  0.00000000000E+00 0.  1.
         25    2    1    2    0    0  0.78378196774E+02 -0.11511865012E+03 -0.55081939081E+03  0.58176202878E+03  0.12509840730E+03 0.  0.
          5    1    3    3  502    0  0.62266574613E+01 -0.11180766157E+03 -0.28401231830E+03  0.30531982214E+03  0.41800000000E+01 0.  1.
         -5    1    3    3    0  502  0.72151539313E+02 -0.33109885548E+01 -0.26680707251E+03  0.27644220664E+03  0.41800000000E+01 0.  1.
        -11    1    1    2    0    0 -0.19402609448E+02  0.70943730205E+02 -0.35847115760E+03  0.36593858083E+03  0.00000000000E+00 0.  1.
         11    1    1    2    0    0 -0.58975587327E+02  0.44174919919E+02 -0.12271690791E+03  0.14313973221E+03  0.00000000000E+00 0. -1.
</event>
<event>
 7    1  0.2856214E-009  0.1653535E+03  0.7561462E-02  0.1182782E+00
          2   -1    0    0  501    0  0.00000000000E+00  0.00000000000E+00  0.22301135072E+03  0.22301135072E+03  0.00000000000E+00 0.  1.
         -2   -1    0    0    0  501 -0.00000000000E+00 -0.00000000000E+00 -0.17311202883E+03  0.17311202883E+03  0.00000000000E+00 0. -1.
         25    2    1    2    0    0  0.26390779811E+02 -0.16142906296E+03  0.32050458351E+02  0.20839663362E+03  0.12508440909E+03 0.  0.
          5    1    3    3  502    0 -0.61196372872E+01 -0.60439850745E+02 -0.46255258615E+02  0.76468600537E+02  0.41800000000E+01 0. -1.
         -5    1    3    3    0  502  0.32510417098E+02 -0.10098921222E+03  0.78305716966E+02  0.13192803309E+03  0.41800000000E+01 0. -1.
        -11    1    1    2    0    0 -0.27917029469E+01  0.28024526386E+02 -0.32674286071E+02  0.43136720492E+02  0.00000000000E+00 0. -1.
         11    1    1    2    0    0 -0.23599076864E+02  0.13340453658E+03  0.50523149618E+02  0.14459002544E+03  0.00000000000E+00 0.  1.
</event>
<event>
 7    1  0.2856214E-009  0.6803932E+02  0.7561462E-02  0.1366890E+00
         -1   -1    0    0    0  501 -0.00000000000E+00  0.00000000000E+00  0.25090256864E+02  0.25090256864E+02  0.00000000000E+00 0.  1.
          1   -1    0    0  501    0  0.00000000000E+00 -0.00000000000E+00 -0.61643867062E+03  0.61643867062E+03  0.00000000000E+00 0. -1.
         25    2    1    2    0    0 -0.35642747405E+02 -0.47692155752E+02 -0.28847114719E+03  0.32001302201E+03  0.12509110411E+03 0.  0.
          5    1    3    3  502    0 -0.29043905633E+02 -0.92016468592E+01 -0.19513906404E+01  0.30813943025E+02  0.41800000000E+01 0.  1.
         -5    1    3    3    0  502 -0.65988417721E+01 -0.38490508893E+02 -0.28651975655E+03  0.28919907898E+03  0.41800000000E+01 0.  1.
        -11    1    1    2    0    0  0.24852747925E+02  0.49234672076E+02 -0.30539019291E+03  0.31033027880E+03  0.00000000000E+00 0. -1.
         11    1    1    2    0    0  0.10789999480E+02 -0.15425163235E+01  0.25129263476E+01  0.11185626679E+02  0.00000000000E+00 0.  1.
</event>
<event>
 7    1  0.2856214E-009  0.1246338E+03  0.7561462E-02  0.1235643E+00
          2   -1    0    0  501    0  0.00000000000E+00  0.00000000000E+00  0.88439652882E+03  0.88439652882E+03  0.00000000000E+00 0. -1.
         -2   -1    0    0    0  501 -0.00000000000E+00 -0.00000000000E+00 -0.29033867168E+02  0.29033867168E+02  0.00000000000E+00 0.  1.
         25    2    1    2    0    0 -0.93700605861E+02 -0.47271581371E+02  0.30909709878E+03  0.34957519144E+03  0.12508953615E+03 0.  0.
          5    1    3    3  502    0 -0.42511298104E+02 -0.48786036523E+01  0.11343756023E+02  0.44465317280E+02  0.41800000000E+01 0. -1.
         -5    1    3    3    0  502 -0.51189307756E+02 -0.42392977718E+02  0.29775334275E+03  0.30510987416E+03  0.41800000000E+01 0. -1.
        -11    1    1    2    0    0  0.10978889749E+03  0.25681045240E+02  0.43431612127E+03  0.44871328406E+03  0.00000000000E+00 0.  1.
         11    1    1    2    0    0 -0.16088291633E+02  0.21590536131E+02  0.11194944161E+03  0.11514192049E+03  0.00000000000E+00 0. -1.
</event>
<event>
 7    1  0.2856214E-009  0.6570539E+02  0.7561462E-02  0.1375338E+00
         -1   -1    0    0    0  501 -0.00000000000E+00  0.00000000000E+00  0.15110099750E+02  0.15110099750E+02  0.00000000000E+00 0.  1.
          1   -1    0    0  501    0  0.00000000000E+00 -0.00000000000E+00 -0.10393950842E+04  0.10393950842E+04  0.00000000000E+00 0. -1.
         25    2    1    2    0    0 -0.91126888664E+01  0.29589251462E+02 -0.75227932446E+03  0.76323625966E+03  0.12508733409E+03 0.  0.
          5    1    3    3  502    0 -0.36989098953E+01  0.33253987275E+01 -0.72404144870E+03  0.72407059880E+03  0.41800000000E+01 0. -1.
         -5    1    3    3    0  502 -0.54137789711E+01  0.26263852734E+02 -0.28237875761E+02  0.39165660861E+02  0.41800000000E+01 0. -1.
        -11    1    1    2    0    0  0.48727126836E+02 -0.67887518269E+00 -0.18585298138E+03  0.19213569280E+03  0.00000000000E+00 0. -1.
         11    1    1    2    0    0 -0.39614437969E+02 -0.28910376279E+02 -0.86152678563E+02  0.99133231440E+02  0.00000000000E+00 0.  1.
</event>
<event>
 7    1  0.2856214E-009  0.1068353E+03  0.7561462E-02  0.1266545E+00
         -2   -1    0    0    0  501 -0.00000000000E+00  0.00000000000E+00  0.13108224648E+03  0.13108224648E+03  0.00000000000E+00 0.  1.
          2   -1    0    0  501    0  0.00000000000E+00 -0.00000000000E+00 -0.11078356335E+03  0.11078356335E+03  0.00000000000E+00 0. -1.
         25    2    1    2    0    0 -0.32384733955E+02  0.16250816989E+02  0.48198515173E+02  0.13886475981E+03  0.12508982615E+03 0.  0.
          5    1    3    3  502    0  0.28946885940E+02 -0.31760154576E+02 -0.64096787303E+01  0.43648436464E+02  0.41800000000E+01 0.  1.
         -5    1    3    3    0  502 -0.61331619895E+02  0.48010971565E+02  0.54608193904E+02  0.95216323343E+02  0.41800000000E+01 0.  1.
        -11    1    1    2    0    0  0.28092642661E+02  0.32840112854E+02 -0.31670458412E+02  0.53578797299E+02  0.00000000000E+00 0. -1.
         11    1    1    2    0    0  0.42920912939E+01 -0.49090929843E+02  0.37706263711E+01  0.49422252719E+02  0.00000000000E+00 0.  1.
</event>
<event>
 7    1  0.2856214E-009  0.1279411E+03  0.7561462E-02  0.1230543E+00
          2   -1    0    0  501    0  0.00000000000E+00  0.00000000000E+00  0.12126008319E+03  0.12126008319E+03  0.00000000000E+00 0. -1.
         -2   -1    0    0    0  501 -0.00000000000E+00 -0.00000000000E+00 -0.24537830187E+03  0.24537830187E+03  0.00000000000E+00 0.  1.
         25    2    1    2    0    0  0.28477402267E+02 -0.89013792275E+02 -0.16699905827E+03  0.22862658949E+03  0.12508802624E+03 0.  0.
          5    1    3    3  502    0  0.32412508462E+02  0.24437087226E+02 -0.29943205147E+02  0.50614324764E+02  0.41800000000E+01 0. -1.
         -5    1    3    3    0  502 -0.39351061951E+01 -0.11345087950E+03 -0.13705585312E+03  0.17801226473E+03  0.41800000000E+01 0. -1.
        -11    1    1    2    0    0 -0.62586007565E+01  0.74890352673E+02 -0.12973941302E+02  0.76263085171E+02  0.00000000000E+00 0.  1.
         11    1    1    2    0    0 -0.22218801510E+02  0.14123439602E+02  0.55854780893E+02  0.61748710394E+02  0.00000000000E+00 0. -1.
</event>
<event>
 7    1  0.2856214E-009  0.2449754E+03  0.7561462E-02  0.1116522E+00
         -1   -1    0    0    0  501 -0.00000000000E+00  0.00000000000E+00  0.22447455941E+03  0.22447455941E+03  0.00000000000E+00 0.  1.
          1   -1    0    0  501    0  0.00000000000E+00 -0.00000000000E+00 -0.28167522841E+03  0.28167522841E+03  0.00000000000E+00 0. -1.
         25    2    1    2    0    0 -0.15537829482E+03  0.16032628823E+03  0.59133448612E+01  0.25598483852E+03  0.12508531771E+03 0.  0.
          5    1    3    3  502    0 -0.16342245469E+03  0.10874694265E+03 -0.20357943772E+02  0.19739481885E+03  0.41800000000E+01 0. -1.
         -5    1    3    3    0  502  0.80441598748E+01  0.51579345578E+02  0.26271288633E+02  0.58590019669E+02  0.41800000000E+01 0. -1.
        -11    1    1    2    0    0 -0.18956841876E+01 -0.47841571505E+02 -0.43661888359E+01  0.48077782682E+02  0.00000000000E+00 0.  1.
         11    1    1    2    0    0  0.15727397901E+03 -0.11248471672E+03 -0.58747825022E+02  0.20208716662E+03  0.00000000000E+00 0. -1.
</event>
<event>
 7    1  0.2856214E-009  0.1671270E+03  0.7561462E-02  0.1180877E+00
          2   -1    0    0  501    0  0.00000000000E+00  0.00000000000E+00  0.14629212243E+04  0.14629212243E+04  0.00000000000E+00 0. -1.
         -2   -1    0    0    0  501 -0.00000000000E+00 -0.00000000000E+00 -0.20566074392E+02  0.20566074392E+02  0.00000000000E+00 0.  1.
         25    2    1    2    0    0  0.11112360848E+03 -0.61988259999E+02  0.56998555715E+03  0.59726228311E+03  0.12509076194E+03 0.  0.
          5    1    3    3  502    0 -0.22274828188E+01 -0.64527596928E+02  0.19126256895E+03  0.20190991834E+03  0.41800000000E+01 0. -1.
         -5    1    3    3    0  502  0.11335109130E+03  0.25393369290E+01  0.37872298821E+03  0.39535236477E+03  0.41800000000E+01 0. -1.
        -11    1    1    2    0    0 -0.22254402346E+02  0.63424464815E+02  0.37603229721E+03  0.38199242101E+03  0.00000000000E+00 0.  1.
         11    1    1    2    0    0 -0.88869206138E+02 -0.14362048160E+01  0.49633729559E+03  0.50423259462E+03  0.00000000000E+00 0. -1.
</event>
<event>
 7    1  0.2856214E-009  0.1667306E+03  0.7561462E-02  0.1181301E+00
          2   -1    0    0  501    0  0.00000000000E+00  0.00000000000E+00  0.36436254630E+03  0.36436254630E+03  0.00000000000E+00 0. -1.
         -2   -1    0    0    0  501 -0.00000000000E+00 -0.00000000000E+00 -0.11207238059E+03  0.11207238059E+03  0.00000000000E+00 0.  1.
         25    2    1    2    0    0 -0.85351886263E+02 -0.14148688546E+03  0.86396291118E+02  0.22453320079E+03  0.12508939161E+03 0.  0.
          5    1    3    3  502    0 -0.43383660432E+02 -0.43879797054E+02  0.99751115216E+02  0.11736837721E+03  0.41800000000E+01 0. -1.
         -5    1    3    3    0  502 -0.41968225830E+02 -0.97607088404E+02 -0.13354824098E+02  0.10716482358E+03  0.41800000000E+01 0. -1.
        -11    1    1    2    0    0  0.33561164377E+02  0.51937486547E+02  0.12723656967E+03  0.14146730691E+03  0.00000000000E+00 0. -1.
         11    1    1    2    0    0  0.51790721886E+02  0.89549398911E+02  0.38657304924E+02  0.11043441919E+03  0.00000000000E+00 0.  1.
</event>
<event>
 7    1  0.2856214E-009  0.1046518E+03  0.7561462E-02  0.1270807E+00
          1   -1    0    0  501    0  0.00000000000E+00  0.00000000000E+00  0.24910277224E+03  0.24910277224E+03  0.00000000000E+00 0. -1.
         -1   -1    0    0    0  501 -0.00000000000E+00 -0.00000000000E+00 -0.66011481601E+02  0.66011481601E+02  0.00000000000E+00 0.  1.
         25    2    1    2    0    0  0.31979155691E+02 -0.36415092147E+02  0.43629939251E+02  0.14107006806E+03  0.12509383345E+03 0.  0.
          5    1    3    3  502    0  0.62922890559E+02 -0.87653166847E+01  0.67684235779E+02  0.92923350703E+02  0.41800000000E+01 0.  1.
         -5    1    3    3    0  502 -0.30943734868E+02 -0.27649775462E+02 -0.24054296527E+02  0.48146717355E+02  0.41800000000E+01 0.  1.
        -11    1    1    2    0    0 -0.32166938129E+02  0.66485163743E+02  0.94157848631E+02  0.11966908275E+03  0.00000000000E+00 0.  1.
         11    1    1    2    0    0  0.18778243817E+00 -0.30070071597E+02  0.45303502752E+02  0.54375103032E+02  0.00000000000E+00 0. -1.
</event>
<event>
 7    1  0.2856214E-009  0.7706062E+02  0.7561462E-02  0.1337606E+00
          1   -1    0    0  501    0  0.00000000000E+00  0.00000000000E+00  0.60992883617E+03  0.60992883617E+03  0.00000000000E+00 0. -1.
         -1   -1    0    0    0  501 -0.00000000000E+00 -0.00000000000E+00 -0.25289592953E+02  0.25289592953E+02  0.00000000000E+00 0.  1.
         25    2    1    2    0    0 -0.55578226969E+02 -0.11868735628E+02  0.29154359648E+03  0.32229672549E+03  0.12509078468E+03 0.  0.
          5    1    3    3  502    0 -0.32999771500E+02 -0.10309253431E+02  0.54136608632E+01  0.35242669440E+02  0.41800000000E+01 0.  1.
         -5    1    3    3    0  502 -0.22578455469E+02 -0.15594821976E+01  0.28612993562E+03  0.28705405605E+03  0.41800000000E+01 0.  1.
        -11    1    1    2    0    0  0.60718495233E+02 -0.20056610698E+02  0.11206298562E+03  0.12902370341E+03  0.00000000000E+00 0.  1.
         11    1    1    2    0    0 -0.51402682638E+01  0.31925346326E+02  0.18103266112E+03  0.18389800023E+03  0.00000000000E+00 0. -1.
</event>
<event>
 7    1  0.2856214E-009  0.1286875E+03  0.7561462E-02  0.1229416E+00
          1   -1    0    0  501    0  0.00000000000E+00  0.00000000000E+00  0.45061170633E+03  0.45061170633E+03  0.00000000000E+00 0. -1.
         -1   -1    0    0    0  501 -0.00000000000E+00 -0.00000000000E+00 -0.43063153798E+02  0.43063153798E+02  0.00000000000E+00 0.  1.
         25    2    1    2    0    0  0.37236482214E+02 -0.77500342972E+02  0.22749719517E+03  0.27348652739E+03  0.12508816126E+03 0.  0.
          5    1    3    3  502    0  0.81254887386E+02 -0.56847357833E+02  0.17905175611E+03  0.20472171986E+03  0.41800000000E+01 0.  1.
         -5    1    3    3    0  502 -0.44018405173E+02 -0.20652985139E+02  0.48445439060E+02  0.68764807531E+02  0.41800000000E+01 0.  1.
        -11    1    1    2    0    0  0.17049628914E+02  0.39590479277E+02  0.21090160992E+02  0.47988444298E+02  0.00000000000E+00 0.  1.
         11    1    1    2    0    0 -0.54286111128E+02  0.37909863695E+02  0.15896119637E+03  0.17219988844E+03  0.00000000000E+00 0. -1.
</event>
<event>
 7    1  0.2856214E-009  0.1134003E+03  0.7561462E-02  0.1254400E+00
          1   -1    0    0  501    0  0.00000000000E+00  0.00000000000E+00  0.37130693146E+02  0.37130693146E+02  0.00000000000E+00 0. -1.
         -1   -1    0    0    0  501 -0.00000000000E+00 -0.00000000000E+00 -0.47091792811E+03  0.47091792811E+03  0.00000000000E+00 0.  1.
         25    2    1    2    0    0 -0.74976525017E+02 -0.13670472036E+02 -0.22193626711E+03  0.26591574100E+03  0.12508842290E+03 0.  0.
          5    1    3    3  502    0  0.22506528639E+02 -0.26912197114E+02 -0.18452334106E+02  0.39859393107E+02  0.41800000000E+01 0.  1.
         -5    1    3    3    0  502 -0.97483053656E+02  0.13241725078E+02 -0.20348393300E+03  0.22605634790E+03  0.41800000000E+01 0.  1.
        -11    1    1    2    0    0  0.23445544885E+02 -0.20522775534E+02 -0.12781769766E+02  0.33678650937E+02  0.00000000000E+00 0. -1.
         11    1    1    2    0    0  0.51530980132E+02  0.34193247570E+02 -0.19906919809E+03  0.20845422932E+03  0.00000000000E+00 0.  1.
</event>
<event>
 7    1  0.2856214E-009  0.6870672E+02  0.7561462E-02  0.1364547E+00
          1   -1    0    0  501    0  0.00000000000E+00  0.00000000000E+00  0.45377839957E+03  0.45377839957E+03  0.00000000000E+00 0. -1.
         -1   -1    0    0    0  501 -0.00000000000E+00 -0.00000000000E+00 -0.37594337027E+02  0.37594337027E+02  0.00000000000E+00 0.  1.
         25    2    1    2    0    0  0.33349116259E+02 -0.29377879631E+02  0.35255215708E+03  0.37671753478E+03  0.12509138332E+03 0.  0.
          5    1    3    3  502    0  0.47113901648E+02 -0.46242341683E+02  0.82439250464E+02  0.10569662393E+03  0.41800000000E+01 0.  1.
         -5    1    3    3    0  502 -0.13764785389E+02  0.16864462052E+02  0.27011290661E+03  0.27102091085E+03  0.41800000000E+01 0.  1.
        -11    1    1    2    0    0 -0.19510563828E+02  0.29370756898E+02  0.83386830253E+02  0.90535445663E+02  0.00000000000E+00 0. -1.
         11    1    1    2    0    0 -0.13838552432E+02  0.71227330982E-02 -0.19754924784E+02  0.24119756163E+02  0.00000000000E+00 0.  1.
</event>
<event>
 7    1  0.2856214E-009  0.1083149E+03  0.7561462E-02  0.1263723E+00
          2   -1    0    0  501    0  0.00000000000E+00  0.00000000000E+00  0.87452848406E+03  0.87452848406E+03  0.00000000000E+00 0. -1.
         -2   -1    0    0    0  501 -0.00000000000E+00 -0.00000000000E+00 -0.21718764057E+02  0.21718764057E+02  0.00000000000E+00 0.  1.
         25    2    1    2    0    0 -0.69052287570E+02 -0.36205834866E+02  0.57480551007E+03  0.59340260583E+03  0.12508476047E+03 0.  0.
          5    1    3    3  502    0  0.11797873875E+02 -0.39945384085E+02  0.65808960384E+02  0.77994328028E+02  0.41800000000E+01 0. -1.
         -5    1    3    3    0  502 -0.80850161445E+02  0.37395492195E+01  0.50899654969E+03  0.51540827781E+03  0.41800000000E+01 0. -1.
        -11    1    1    2    0    0  0.74315469634E+02  0.20398298153E+02  0.27540314063E+03  0.28598211389E+03  0.00000000000E+00 0. -1.
         11    1    1    2    0    0 -0.52631820642E+01  0.15807536713E+02  0.26010692970E+01  0.16862528395E+02  0.00000000000E+00 0.  1.
</event>
<event>
 7    1  0.2856214E-009  0.1051865E+03  0.7561462E-02  0.1269753E+00
          1   -1    0    0  501    0  0.00000000000E+00  0.00000000000E+00  0.46208440040E+03  0.46208440040E+03  0.00000000000E+00 0. -1.
         -1   -1    0    0    0  501 -0.00000000000E+00 -0.00000000000E+00 -0.29729375161E+02  0.29729375161E+02  0.00000000000E+00 0.  1.
         25    2    1    2    0    0  0.22933829834E+02 -0.36310966482E+02  0.26527071910E+03  0.29641242646E+03  0.12508926938E+03 0.  0.
          5    1    3    3  502    0  0.52281294510E+02  0.16427841293E+02  0.55566463910E+02  0.78155691006E+02  0.41800000000E+01 0. -1.
         -5    1    3    3    0  502 -0.29347464676E+02 -0.52738807774E+02  0.20970425518E+03  0.21825673545E+03  0.41800000000E+01 0. -1.
        -11    1    1    2    0    0  0.21923478439E+02  0.44227216856E+02  0.52335286755E+02  0.71942114630E+02  0.00000000000E+00 0.  1.
         11    1    1    2    0    0 -0.44857308273E+02 -0.79162503740E+01  0.11474901939E+03  0.12345923447E+03  0.00000000000E+00 0. -1.
</event>
<event>
 7    1  0.2856214E-009  0.9885966E+02  0.7561462E-02  0.1282712E+00
          2   -1    0    0  501    0  0.00000000000E+00  0.00000000000E+00  0.39841715430E+03  0.39841715430E+03  0.00000000000E+00 0. -1.
         -2   -1    0    0    0  501 -0.00000000000E+00 -0.00000000000E+00 -0.28646789219E+02  0.28646789219E+02  0.00000000000E+00 0.  1.
         25    2    1    2    0    0  0.24286447708E+01 -0.13314893990E+02  0.20991073563E+03  0.24472471258E+03  0.12507790891E+03 0.  0.
          5    1    3    3  502    0 -0.24073358718E+02  0.42535113393E+02  0.15272109371E+03  0.16040563374E+03  0.41800000000E+01 0.  1.
         -5    1    3    3    0  502  0.26502003489E+02 -0.55850007383E+02  0.57189641910E+02  0.84319078834E+02  0.41800000000E+01 0.  1.
        -11    1    1    2    0    0 -0.30219054911E+01 -0.36631494719E+02  0.81621656128E+02  0.89515881648E+02  0.00000000000E+00 0.  1.
         11    1    1    2    0    0  0.59326072030E+00  0.49946388709E+02  0.78237973328E+02  0.92823349292E+02  0.00000000000E+00 0. -1.
</event>
<event>
 7    1  0.2856214E-009  0.7194321E+02  0.7561462E-02  0.1353607E+00
          2   -1    0    0  501    0  0.00000000000E+00  0.00000000000E+00  0.32100893824E+03  0.32100893824E+03  0.00000000000E+00 0.  1.
         -2   -1    0    0    0  501 -0.00000000000E+00 -0.00000000000E+00 -0.64441151389E+02  0.64441151389E+02  0.00000000000E+00 0. -1.
         25    2    1    2    0    0  0.32103072085E+02 -0.42677086844E+02  0.37685474542E+02  0.14113605444E+03  0.12508896791E+03 0.  0.
          5    1    3    3  502    0 -0.43180712939E+01  0.86390924801E+01 -0.39835375611E+02  0.41202053451E+02  0.41800000000E+01 0. -1.
         -5    1    3    3    0  502  0.36421143379E+02 -0.51316179324E+02  0.77520850152E+02  0.99934000989E+02  0.41800000000E+01 0. -1.
        -11    1    1    2    0    0 -0.30543714180E+02  0.31132489730E+01  0.10873905269E+02  0.32570732428E+02  0.00000000000E+00 0. -1.
         11    1    1    2    0    0 -0.15593579044E+01  0.39563837871E+02  0.20800840704E+03  0.21174330276E+03  0.00000000000E+00 0.  1.
</event>
<event>
 7    1  0.2856214E-009  0.1196894E+03  0.7561462E-02  0.1243610E+00
          2   -1    0    0  501    0  0.00000000000E+00  0.00000000000E+00  0.60185761233E+03  0.60185761233E+03  0.00000000000E+00 0.  1.
         -2   -1    0    0    0  501 -0.00000000000E+00 -0.00000000000E+00 -0.24830637354E+02  0.24830637354E+02  0.00000000000E+00 0. -1.
         25    2    1    2    0    0 -0.33779009007E+02 -0.40937221124E+02  0.28961479589E+03  0.31990800265E+03  0.12509005812E+03 0.  0.
          5    1    3    3  502    0 -0.46265973934E+02 -0.79753943786E+02  0.22726062949E+03  0.24528778610E+03  0.41800000000E+01 0. -1.
         -5    1    3    3    0  502  0.12486964927E+02  0.38816722662E+02  0.62354166400E+02  0.74620216555E+02  0.41800000000E+01 0. -1.
        -11    1    1    2    0    0 -0.39955204898E+01 -0.27571673069E+02  0.97041416417E+02  0.10096136806E+03  0.00000000000E+00 0.  1.
         11    1    1    2    0    0  0.37774529497E+02  0.68508894193E+02  0.19037076268E+03  0.20581887898E+03  0.00000000000E+00 0. -1.
</event>
<event>
 7    1  0.2856214E-009  0.8535962E+02  0.7561462E-02  0.1314495E+00
         -2   -1    0    0    0  501 -0.00000000000E+00  0.00000000000E+00  0.14443041215E+03  0.14443041215E+03  0.00000000000E+00 0.  1.
          2   -1    0    0  501    0  0.00000000000E+00 -0.00000000000E+00 -0.97261365852E+02  0.97261365852E+02  0.00000000000E+00 0. -1.
         25    2    1    2    0    0 -0.25190945689E+02  0.15493899862E+01 -0.15395939254E+02  0.12853815550E+03  0.12509211853E+03 0.  0.
          5    1    3    3  502    0 -0.50475952982E+02  0.28657186028E+02 -0.50696159620E+02  0.77179201478E+02  0.41800000000E+01 0.  1.
         -5    1    3    3    0  502  0.25285007294E+02 -0.27107796041E+02  0.35300220366E+02  0.51358954019E+02  0.41800000000E+01 0.  1.
        -11    1    1    2    0    0  0.15203042390E+02 -0.36145012309E+02 -0.19600878618E+01  0.39261130360E+02  0.00000000000E+00 0. -1.
         11    1    1    2    0    0  0.99879032985E+01  0.34595622323E+02  0.64525073411E+02  0.73892492141E+02  0.00000000000E+00 0.  1.
</event>
<event>
 7    1  0.2856214E-009  0.1111470E+03  0.7561462E-02  0.1258460E+00
         -3   -1    0    0    0  501 -0.00000000000E+00  0.00000000000E+00  0.19454862125E+03  0.19454862125E+03  0.00000000000E+00 0.  1.
          3   -1    0    0  501    0  0.00000000000E+00 -0.00000000000E+00 -0.85702665529E+02  0.85702665529E+02  0.00000000000E+00 0. -1.
         25    2    1    2    0    0 -0.25327813329E+02  0.49708467439E+02  0.20219105879E+02  0.13844853974E+03  0.12508699393E+03 0.  0.
          5    1    3    3  502    0  0.41299542035E+02 -0.14835625274E+02  0.52950687779E+01  0.44398852496E+02  0.41800000000E+01 0. -1.
         -5    1    3    3    0  502 -0.66627355364E+02  0.64544092714E+02  0.14924037101E+02  0.94049687243E+02  0.41800000000E+01 0. -1.
        -11    1    1    2    0    0  0.24798172861E+02 -0.65250049768E+02  0.10041195142E+03  0.12229095780E+03  0.00000000000E+00 0.  1.
         11    1    1    2    0    0  0.52964046747E+00  0.15541582328E+02 -0.11785101575E+02  0.19511789242E+02  0.00000000000E+00 0. -1.
</event>
<event>
 7    1  0.2856214E-009  0.1631778E+03  0.7561462E-02  0.1185155E+00
         -1   -1    0    0    0  501 -0.00000000000E+00  0.00000000000E+00  0.71492329797E+02  0.71492329797E+02  0.00000000000E+00 0.  1.
          1   -1    0    0  501    0  0.00000000000E+00 -0.00000000000E+00 -0.53199107031E+03  0.53199107031E+03  0.00000000000E+00 0. -1.
         25    2    1    2    0    0  0.82649215206E+02 -0.12811677489E+03 -0.32398595732E+03  0.37928569858E+03  0.12508373127E+03 0.  0.
          5    1    3    3  502    0  0.90108270976E+02 -0.10408017828E+03 -0.32579270728E+03  0.35370968961E+03  0.41800000000E+01 0. -1.
         -5    1    3    3    0  502 -0.74590557704E+01 -0.24036596609E+02  0.18067499591E+01  0.25576008972E+02  0.41800000000E+01 0. -1.
        -11    1    1    2    0    0 -0.50214575802E+02  0.27191493019E+02 -0.93991818633E+02  0.10997882926E+03  0.00000000000E+00 0. -1.
         11    1    1    2    0    0 -0.32434639404E+02  0.10092528187E+03 -0.42520964559E+02  0.11421887226E+03  0.00000000000E+00 0.  1.
</event>
<event>
 7    1  0.2856214E-009  0.1535098E+03  0.7561462E-02  0.1196225E+00
          1   -1    0    0  501    0  0.00000000000E+00  0.00000000000E+00  0.23127677139E+04  0.23127677139E+04  0.00000000000E+00 0. -1.
         -1   -1    0    0    0  501 -0.00000000000E+00 -0.00000000000E+00 -0.11931451756E+02  0.11931451756E+02  0.00000000000E+00 0.  1.
         25    2    1    2    0    0  0.33742217866E+02  0.11217127207E+03  0.16424654169E+04  0.16513812371E+04  0.12508562290E+03 0.  0.
          5    1    3    3  502    0 -0.47447668355E+02  0.48831632280E+02  0.62743692631E+03  0.63113420003E+03  0.41800000000E+01 0.  1.
         -5    1    3    3    0  502  0.81189886222E+02  0.63339639793E+02  0.10150284906E+04  0.10202470371E+04  0.41800000000E+01 0.  1.
        -11    1    1    2    0    0 -0.37291527062E+02 -0.17825334651E+02  0.12502544175E+03  0.13168052867E+03  0.00000000000E+00 0. -1.
         11    1    1    2    0    0  0.35493091958E+01 -0.94345937422E+02  0.53334540347E+03  0.54163739984E+03  0.00000000000E+00 0.  1.
</event>
<event>
 7    1  0.2856214E-009  0.1015447E+03  0.7561462E-02  0.1277081E+00
         -1   -1    0    0    0  501 -0.00000000000E+00  0.00000000000E+00  0.17101244124E+03  0.17101244124E+03  0.00000000000E+00 0.  1.
          1   -1    0    0  501    0  0.00000000000E+00 -0.00000000000E+00 -0.11899211595E+03  0.11899211595E+03  0.00000000000E+00 0. -1.
         25    2    1    2    0    0 -0.55413415401E+02 -0.48501130565E+02 -0.29033987361E+02  0.14803571880E+03  0.12509434578E+03 0.  0.
          5    1    3    3  502    0 -0.38472939474E+02 -0.55797232816E+02 -0.73287603433E+02  0.99910177053E+02  0.41800000000E+01 0. -1.
         -5    1    3    3    0  502 -0.16940475927E+02  0.72961022509E+01  0.44253616073E+02  0.48125541745E+02  0.41800000000E+01 0. -1.
        -11    1    1    2    0    0  0.32393563763E+00 -0.24675481163E+02  0.21367213104E+02  0.32642642367E+02  0.00000000000E+00 0.  1.
         11    1    1    2    0    0  0.55089479764E+02  0.73176611727E+02  0.59687099546E+02  0.10932619602E+03  0.00000000000E+00 0. -1.
</event>
<event>
 7    1  0.2856214E-009  0.1161593E+03  0.7561462E-02  0.1249571E+00
          3   -1    0    0  501    0  0.00000000000E+00  0.00000000000E+00  0.34513801689E+03  0.34513801689E+03  0.00000000000E+00 0. -1.
         -3   -1    0    0    0  501 -0.00000000000E+00 -0.00000000000E+00 -0.47432824457E+02  0.47432824457E+02  0.00000000000E+00 0.  1.
         25    2    1    2    0    0  0.55242361642E+01 -0.64306938813E+02  0.20458337369E+03  0.24833096362E+03  0.12509201068E+03 0.  0.
          5    1    3    3  502    0 -0.49224844827E+02  0.25834633986E+01  0.45401282084E+02  0.67145427590E+02  0.41800000000E+01 0.  1.
         -5    1    3    3    0  502  0.54749080991E+02 -0.66890402212E+02  0.15918209161E+03  0.18118553603E+03  0.41800000000E+01 0.  1.
        -11    1    1    2    0    0 -0.22070668385E+02 -0.69630324807E+01 -0.31115968767E+01  0.23351236786E+02  0.00000000000E+00 0.  1.
         11    1    1    2    0    0  0.16546432221E+02  0.71269971294E+02  0.96233415621E+02  0.12088864095E+03  0.00000000000E+00 0. -1.
</event>
<event>
 7    1  0.2856214E-009  0.1161907E+03  0.7561462E-02  0.1249517E+00
         -2   -1    0    0    0  501 -0.00000000000E+00  0.00000000000E+00  0.17182861460E+02  0.17182861460E+02  0.00000000000E+00 0. -1.
          2   -1    0    0  501    0  0.00000000000E+00 -0.00000000000E+00 -0.83225261686E+03  0.83225261686E+03  0.00000000000E+00 0.  1.
         25    2    1    2    0    0  0.37374320772E+02 -0.18606321172E+02 -0.36488638581E+03  0.38798452688E+03  0.12508750339E+03 0.  0.
          5    1    3    3  502    0 -0.33757478533E+02 -0.44520152850E+02 -0.15148873560E+03  0.16151755564E+03  0.41800000000E+01 0.  1.
         -5    1    3    3    0  502  0.71131799305E+02  0.25913831677E+02 -0.21339765022E+03  0.22646697124E+03  0.41800000000E+01 0.  1.
        -11    1    1    2    0    0  0.25580178379E+02 -0.14500749878E+02 -0.15981544043E+03  0.16249797621E+03  0.00000000000E+00 0.  1.
         11    1    1    2    0    0 -0.62954499151E+02  0.33107071050E+02 -0.29036792916E+03  0.29895297523E+03  0.00000000000E+00 0. -1.
</event>
<event>
 7    1  0.2856214E-009  0.1068422E+03  0.7561462E-02  0.1266532E+00
          2   -1    0    0  501    0  0.00000000000E+00  0.00000000000E+00  0.52694978074E+03  0.52694978074E+03  0.00000000000E+00 0. -1.
         -2   -1    0    0    0  501 -0.00000000000E+00 -0.00000000000E+00 -0.29610066564E+02  0.29610066564E+02  0.00000000000E+00 0.  1.
         25    2    1    2    0    0  0.32091935891E+02 -0.20218453915E+02  0.16752130374E+03  0.21248383917E+03  0.12508923405E+03 0.  0.
          5    1    3    3  502    0  0.80325159412E+02 -0.87280866609E+01  0.10652349952E+03  0.13376486490E+03  0.41800000000E+01 0. -1.
         -5    1    3    3    0  502 -0.48233223521E+02 -0.11490367255E+02  0.60997804219E+02  0.78718974272E+02  0.41800000000E+01 0. -1.
        -11    1    1    2    0    0  0.81434235592E+00 -0.26149241396E+02  0.34305102625E+02  0.43142624459E+02  0.00000000000E+00 0.  1.
         11    1    1    2    0    0 -0.32906278247E+02  0.46367695312E+02  0.29551330781E+03  0.30093338367E+03  0.00000000000E+00 0. -1.
</event>
<event>
 7    1  0.2856214E-009  0.9109726E+02  0.7561462E-02  0.1300216E+00
          2   -1    0    0  501    0  0.00000000000E+00  0.00000000000E+00  0.51449410994E+02  0.51449410994E+02  0.00000000000E+00 0. -1.
         -2   -1    0    0    0  501 -0.00000000000E+00 -0.00000000000E+00 -0.22856535840E+03  0.22856535840E+03  0.00000000000E+00 0.  1.
         25    2    1    2    0    0  0.14219283614E+02 -0.20063196722E+02 -0.14676876884E+03  0.19440390380E+03  0.12508831446E+03 0.  0.
          5    1    3    3  502    0 -0.48725984963E+02  0.49099787648E+01 -0.10169278796E+03  0.11294788633E+03  0.41800000000E+01 0.  1.
         -5    1    3    3    0  502  0.62945268577E+02 -0.24973175487E+02 -0.45075980880E+02  0.81456017472E+02  0.41800000000E+01 0.  1.
        -11    1    1    2    0    0 -0.38008348790E+02  0.15083346423E+02 -0.42033460634E+02  0.58642593138E+02  0.00000000000E+00 0.  1.
         11    1    1    2    0    0  0.23789065176E+02  0.49798502988E+01  0.11686282068E+02  0.26968272461E+02  0.00000000000E+00 0. -1.
</event>
<event>
 7    1  0.2856214E-009  0.7607938E+02  0.7561462E-02  0.1340561E+00
          2   -1    0    0  501    0  0.00000000000E+00  0.00000000000E+00  0.94599564354E+02  0.94599564354E+02  0.00000000000E+00 0. -1.
         -2   -1    0    0    0  501 -0.00000000000E+00 -0.00000000000E+00 -0.12547838425E+03  0.12547838425E+03  0.00000000000E+00 0.  1.
         25    2    1    2    0    0 -0.14498482675E+02  0.68136964096E+01 -0.14819699174E+02  0.12697968682E+03  0.12509030707E+03 0.  0.
          5    1    3    3  502    0  0.39478883343E+02 -0.15223087575E+02 -0.44395066409E+02  0.61471285547E+02  0.41800000000E+01 0.  1.
         -5    1    3    3    0  502 -0.53977366019E+02  0.22036783985E+02  0.29575367235E+02  0.65508401277E+02  0.41800000000E+01 0.  1.
        -11    1    1    2    0    0  0.32615704474E+02 -0.43569459762E+01 -0.46872206828E+02  0.57269284347E+02  0.00000000000E+00 0.  1.
         11    1    1    2    0    0 -0.18117221799E+02 -0.24567504334E+01  0.30813086108E+02  0.35828977433E+02  0.00000000000E+00 0. -1.
</event>
<event>
 7    1  0.2856214E-009  0.2027107E+03  0.7561462E-02  0.1147472E+00
         -1   -1    0    0    0  501 -0.00000000000E+00  0.00000000000E+00  0.59601032582E+02  0.59601032582E+02  0.00000000000E+00 0.  1.
          1   -1    0    0  501    0  0.00000000000E+00 -0.00000000000E+00 -0.89474066984E+03  0.89474066984E+03  0.00000000000E+00 0. -1.
         25    2    1    2    0    0 -0.17299598891E+03  0.84805165484E+02 -0.29670898960E+03  0.37523732250E+03  0.12508914987E+03 0.  0.
          5    1    3    3  502    0 -0.12633395188E+03  0.17744151343E+02 -0.99848485771E+02  0.16205651735E+03  0.41800000000E+01 0. -1.
         -5    1    3    3    0  502 -0.46662037030E+02  0.67061014140E+02 -0.19686050383E+03  0.21318080515E+03  0.41800000000E+01 0. -1.
        -11    1    1    2    0    0  0.16697193478E+03 -0.72021937045E+02 -0.53427767456E+03  0.56437524747E+03  0.00000000000E+00 0. -1.
         11    1    1    2    0    0  0.60240541211E+01 -0.12783228439E+02 -0.41529730994E+01  0.14729132457E+02  0.00000000000E+00 0.  1.
</event>
<event>
 7    1  0.2856214E-009  0.1177733E+03  0.7561462E-02  0.1246816E+00
          2   -1    0    0  501    0  0.00000000000E+00  0.00000000000E+00  0.21543421454E+03  0.21543421454E+03  0.00000000000E+00 0.  1.
         -2   -1    0    0    0  501 -0.00000000000E+00 -0.00000000000E+00 -0.93116530317E+02  0.93116530317E+02  0.00000000000E+00 0. -1.
         25    2    1    2    0    0 -0.85137398237E+01 -0.62501547806E+02 -0.74881911385E+01  0.14029399391E+03  0.12508958581E+03 0.  0.
          5    1    3    3  502    0  0.34385744207E+02 -0.80853528485E+02 -0.23048247744E+02  0.90930559204E+02  0.41800000000E+01 0.  1.
         -5    1    3    3    0  502 -0.42899484030E+02  0.18351980679E+02  0.15560056605E+02  0.49363434711E+02  0.41800000000E+01 0.  1.
        -11    1    1    2    0    0 -0.30937240735E+02  0.50991894335E+02  0.47444685441E+02  0.76212100934E+02  0.00000000000E+00 0. -1.
         11    1    1    2    0    0  0.39450980559E+02  0.11509653471E+02  0.82361189917E+02  0.92044650005E+02  0.00000000000E+00 0.  1.
</event>
<event>
 7    1  0.2856214E-009  0.6497048E+02  0.7561462E-02  0.1378083E+00
          2   -1    0    0  501    0  0.00000000000E+00  0.00000000000E+00  0.16861767134E+03  0.16861767134E+03  0.00000000000E+00 0. -1.
         -2   -1    0    0    0  501 -0.00000000000E+00 -0.00000000000E+00 -0.11429230124E+03  0.11429230124E+03  0.00000000000E+00 0.  1.
         25    2    1    2    0    0 -0.19830165466E+02 -0.24787881231E+01 -0.57427495572E+02  0.13908076967E+03  0.12508462492E+03 0.  0.
          5    1    3    3  502    0 -0.49743117272E+02 -0.21484174566E+01  0.21632924598E+02  0.54446756012E+02  0.41800000000E+01 0.  1.
         -5    1    3    3    0  502  0.29912951806E+02 -0.33037066651E+00 -0.79060420171E+02  0.84634013659E+02  0.41800000000E+01 0.  1.
        -11    1    1    2    0    0  0.22293818314E+01 -0.20614641719E+02  0.11288260895E+03  0.11477115056E+03  0.00000000000E+00 0. -1.
         11    1    1    2    0    0  0.17600783635E+02  0.23093429842E+02 -0.11297432871E+01  0.29058052349E+02  0.00000000000E+00 0.  1.
</event>
<event>
 7    1  0.2856214E-009  0.1394333E+03  0.7561462E-02  0.1214094E+00
          2   -1    0    0  501    0  0.00000000000E+00  0.00000000000E+00  0.32455349979E+03  0.32455349979E+03  0.00000000000E+00 0. -1.
         -2   -1    0    0    0  501 -0.00000000000E+00 -0.00000000000E+00 -0.85285891167E+02  0.85285891167E+02  0.00000000000E+00 0.  1.
         25    2    1    2    0    0 -0.86605881843E+01 -0.11218167182E+03  0.19981026682E+03  0.26120964193E+03  0.12508637429E+03 0.  0.
          5    1    3    3  502    0  0.51211913531E+02 -0.70910297317E+02  0.14748900783E+03  0.17152670399E+03  0.41800000000E+01 0. -1.
         -5    1    3    3    0  502 -0.59872501715E+02 -0.41271374498E+02  0.52321258990E+02  0.89682937936E+02  0.41800000000E+01 0. -1.
        -11    1    1    2    0    0  0.22944221054E+02  0.56677618017E+02 -0.21636788927E+02  0.64860930451E+02  0.00000000000E+00 0.  1.
         11    1    1    2    0    0 -0.14283632870E+02  0.55504053798E+02  0.61094130739E+02  0.83768818582E+02  0.00000000000E+00 0. -1.
</event>
<event>
 7    1  0.2856214E-009  0.1358914E+03  0.7561462E-02  0.1218967E+00
         -1   -1    0    0    0  501 -0.00000000000E+00  0.00000000000E+00  0.54895145743E+02  0.54895145743E+02  0.00000000000E+00 0.  1.
          1   -1    0    0  501    0  0.00000000000E+00 -0.00000000000E+00 -0.44838628082E+03  0.44838628082E+03  0.00000000000E+00 0. -1.
         25    2    1    2    0    0  0.75255060189E+02 -0.78513184326E+02 -0.25439693865E+03  0.30363356181E+03  0.12509153954E+03 0.  0.
          5    1    3    3  502    0  0.10238412815E+03 -0.30053848433E+02 -0.19421102226E+03  0.22163288806E+03  0.41800000000E+01 0.  1.
         -5    1    3    3    0  502 -0.27129067957E+02 -0.48459335893E+02 -0.60185916387E+02  0.82000673746E+02  0.41800000000E+01 0.  1.
        -11    1    1    2    0    0 -0.22212292796E+02  0.30690755657E+02 -0.11983156396E+03  0.12567781091E+03  0.00000000000E+00 0. -1.
         11    1    1    2    0    0 -0.53042767392E+02  0.47822428670E+02 -0.19262632468E+02  0.73970053847E+02  0.00000000000E+00 0.  1.
</event>
<event>
 7    1  0.2856214E-009  0.1807771E+03  0.7561462E-02  0.1167053E+00
          2   -1    0    0  501    0  0.00000000000E+00  0.00000000000E+00  0.87740313336E+03  0.87740313336E+03  0.00000000000E+00 0. -1.
         -2   -1    0    0    0  501 -0.00000000000E+00 -0.00000000000E+00 -0.86444498439E+02  0.86444498439E+02  0.00000000000E+00 0.  1.
         25    2    1    2    0    0  0.10395618891E+03 -0.12399901269E+03  0.74465387241E+03  0.77223002904E+03  0.12508870331E+03 0.  0.
          5    1    3    3  502    0  0.11308945403E+03 -0.90423192025E+02  0.70311787166E+03  0.71788424702E+03  0.41800000000E+01 0. -1.
         -5    1    3    3    0  502 -0.91332651239E+01 -0.33575820668E+02  0.41536000751E+02  0.54345782023E+02  0.41800000000E+01 0. -1.
        -11    1    1    2    0    0 -0.73618295293E+01  0.71181603482E+02  0.38473334245E+02  0.81247859395E+02  0.00000000000E+00 0. -1.
         11    1    1    2    0    0 -0.96594359382E+02  0.52817409210E+02  0.78314282596E+01  0.11036974336E+03  0.00000000000E+00 0.  1.
</event>
<event>
 7    1  0.2856214E-009  0.1049913E+03  0.7561462E-02  0.1270137E+00
          2   -1    0    0  501    0  0.00000000000E+00  0.00000000000E+00  0.11956187190E+03  0.11956187190E+03  0.00000000000E+00 0. -1.
         -2   -1    0    0    0  501 -0.00000000000E+00 -0.00000000000E+00 -0.11603701939E+03  0.11603701939E+03  0.00000000000E+00 0.  1.
         25    2    1    2    0    0 -0.37106572600E+00 -0.17375207116E+02 -0.41934404584E+02  0.13306816152E+03  0.12508639338E+03 0.  0.
          5    1    3    3  502    0  0.12942083337E+01  0.50954001543E+02  0.28925737805E+01  0.51223282124E+02  0.41800000000E+01 0. -1.
         -5    1    3    3    0  502 -0.16652740597E+01 -0.68329208659E+02 -0.44826978364E+02  0.81844879393E+02  0.41800000000E+01 0. -1.
        -11    1    1    2    0    0  0.31755585667E+02  0.40438203462E+02  0.35016126615E+02  0.62207673508E+02  0.00000000000E+00 0.  1.
         11    1    1    2    0    0 -0.31384519941E+02 -0.23062996346E+02  0.10443130476E+02  0.40323056264E+02  0.00000000000E+00 0. -1.
</event>
<event>
 7    1  0.2856214E-009  0.2395950E+03  0.7561462E-02  0.1120063E+00
          4   -1    0    0  501    0  0.00000000000E+00  0.00000000000E+00  0.10046313176E+03  0.10046313176E+03  0.00000000000E+00 0. -1.
         -4   -1    0    0    0  501 -0.00000000000E+00 -0.00000000000E+00 -0.66292443361E+03  0.66292443361E+03  0.00000000000E+00 0.  1.
         25    2    1    2    0    0 -0.15458208447E+03 -0.16715001275E+03 -0.21083807481E+03  0.33456736751E+03  0.12509149457E+03 0.  0.
          5    1    3    3  502    0 -0.26546982687E+02 -0.10603916178E+03 -0.13462769293E+03  0.17346796311E+03  0.41800000000E+01 0. -1.
         -5    1    3    3    0  502 -0.12803510178E+03 -0.61110850976E+02 -0.76210381877E+02  0.16109940441E+03  0.41800000000E+01 0. -1.
        -11    1    1    2    0    0  0.13239602110E+03  0.13809773120E+03 -0.21684982124E+03  0.28917734133E+03  0.00000000000E+00 0. -1.
         11    1    1    2    0    0  0.22186063365E+02  0.29052281555E+02 -0.13477340580E+03  0.13964285654E+03  0.00000000000E+00 0.  1.
</event>
<event>
 7    1  0.2856214E-009  0.1604214E+03  0.7561462E-02  0.1188222E+00
         -1   -1    0    0    0  501 -0.00000000000E+00  0.00000000000E+00  0.55877032345E+02  0.55877032345E+02  0.00000000000E+00 0.  1.
          1   -1    0    0  501    0  0.00000000000E+00 -0.00000000000E+00 -0.94337525936E+03  0.94337525936E+03  0.00000000000E+00 0. -1.
         25    2    1    2    0    0 -0.32372078051E+02  0.14079890361E+03 -0.76057258948E+03  0.78421265619E+03  0.12508614459E+03 0.  0.
          5    1    3    3  502    0 -0.39253985407E+02  0.57206447770E+02 -0.59008013251E+03  0.59415948046E+03  0.41800000000E+01 0. -1.
         -5    1    3    3    0  502  0.68819073558E+01  0.83592455844E+02 -0.17049245698E+03  0.19005317574E+03  0.41800000000E+01 0. -1.
        -11    1    1    2    0    0 -0.28294102970E+02 -0.59837626774E+02 -0.23178820133E+02  0.70130988468E+02  0.00000000000E+00 0.  1.
         11    1    1    2    0    0  0.60666181021E+02 -0.80961276841E+02 -0.10374681740E+03  0.14490864705E+03  0.00000000000E+00 0. -1.
</event>
<event>
 7    1  0.2856214E-009  0.9830166E+02  0.7561462E-02  0.1283908E+00
         -2   -1    0    0    0  501 -0.00000000000E+00  0.00000000000E+00  0.51638002478E+02  0.51638002478E+02  0.00000000000E+00 0. -1.
          2   -1    0    0  501    0  0.00000000000E+00 -0.00000000000E+00 -0.30072346392E+03  0.30072346392E+03  0.00000000000E+00 0.  1.
         25    2    1    2    0    0  0.30775473096E+02 -0.49453752233E+02 -0.16000829390E+03  0.21128467359E+03  0.12508299573E+03 0.  0.
          5    1    3    3  502    0  0.60921271436E+02 -0.43237047186E+02 -0.35235510424E+02  0.82703428935E+02  0.41800000000E+01 0.  1.
         -5    1    3    3    0  502 -0.30145798340E+02 -0.62167050467E+01 -0.12477278348E+03  0.12858124465E+03  0.41800000000E+01 0.  1.
        -11    1    1    2    0    0 -0.51639534576E+02  0.21739766465E+02 -0.90407591270E+02  0.10636160744E+03  0.00000000000E+00 0.  1.
         11    1    1    2    0    0  0.20864061480E+02  0.27713985767E+02  0.13304237272E+01  0.34715185378E+02  0.00000000000E+00 0. -1.
</event>
<event>
 7    1  0.2856214E-009  0.1496434E+03  0.7561462E-02  0.1200912E+00
         -2   -1    0    0    0  501 -0.00000000000E+00  0.00000000000E+00  0.37481141858E+03  0.37481141858E+03  0.00000000000E+00 0.  1.
          2   -1    0    0  501    0  0.00000000000E+00 -0.00000000000E+00 -0.87157411589E+02  0.87157411589E+02  0.00000000000E+00 0. -1.
         25    2    1    2    0    0 -0.44237316352E+02  0.13582137102E+03  0.16009413750E+03  0.24835793814E+03  0.12508855899E+03 0.  0.
          5    1    3    3  502    0 -0.88780073867E+01  0.62063697233E+02 -0.60481755212E+01  0.63125069160E+02  0.41800000000E+01 0.  1.
         -5    1    3    3    0  502 -0.35359308965E+02  0.73757673784E+02  0.16614231302E+03  0.18523286898E+03  0.41800000000E+01 0.  1.
        -11    1    1    2    0    0  0.22111037383E+02 -0.60748525323E+01 -0.83606226069E+01  0.24407003458E+02  0.00000000000E+00 0. -1.
         11    1    1    2    0    0  0.22126278969E+02 -0.12974651848E+03  0.13592049209E+03  0.18920388857E+03  0.00000000000E+00 0.  1.
</event>
<event>
 7    1  0.2856214E-009  0.1597485E+03  0.7561462E-02  0.1188981E+00
          2   -1    0    0  501    0  0.00000000000E+00  0.00000000000E+00  0.69635053450E+03  0.69635053450E+03  0.00000000000E+00 0. -1.
         -2   -1    0    0    0  501 -0.00000000000E+00 -0.00000000000E+00 -0.61088044992E+02  0.61088044992E+02  0.00000000000E+00 0.  1.
         25    2    1    2    0    0  0.12596062510E+03 -0.91786451754E+02  0.48333414502E+03  0.52302007588E+03  0.12508905719E+03 0.  0.
          5    1    3    3  502    0  0.81529493462E+02 -0.79265604453E+02  0.45428532295E+03  0.46831903805E+03  0.41800000000E+01 0. -1.
         -5    1    3    3    0  502  0.44431131640E+02 -0.12520847301E+02  0.29048822072E+02  0.54701037831E+02  0.41800000000E+01 0. -1.
        -11    1    1    2    0    0 -0.30793792800E+02  0.62936820317E+01 -0.51364465862E+01  0.31847310594E+02  0.00000000000E+00 0.  1.
         11    1    1    2    0    0 -0.95166832302E+02  0.85492769723E+02  0.15706479107E+03  0.20257119302E+03  0.00000000000E+00 0. -1.
</event>
<event>
 7    1  0.2856214E-009  0.1137351E+03  0.7561462E-02  0.1253805E+00
         -3   -1    0    0    0  501 -0.00000000000E+00  0.00000000000E+00  0.29841908998E+03  0.29841908998E+03  0.00000000000E+00 0.  1.
          3   -1    0    0  501    0  0.00000000000E+00 -0.00000000000E+00 -0.45236908854E+02  0.45236908854E+02  0.00000000000E+00 0. -1.
         25    2    1    2    0    0  0.35539518105E+01 -0.40688896004E+02  0.15530612427E+03  0.20355616262E+03  0.12508757841E+03 0.  0.
          5    1    3    3  502    0 -0.58498649738E+02 -0.27525266819E+02  0.55941078346E+02  0.85595613095E+02  0.41800000000E+01 0. -1.
         -5    1    3    3    0  502  0.62052601548E+02 -0.13163629185E+02  0.99365045925E+02  0.11796054952E+03  0.41800000000E+01 0. -1.
        -11    1    1    2    0    0 -0.32424382647E+02 -0.15501996532E+02  0.45875219998E+02  0.58276824694E+02  0.00000000000E+00 0.  1.
         11    1    1    2    0    0  0.28870430837E+02  0.56190892536E+02  0.52000836857E+02  0.81823011522E+02  0.00000000000E+00 0. -1.
</event>
<event>
 7    1  0.2856214E-009  0.1423145E+03  0.7561462E-02  0.1210248E+00
          3   -1    0    0  501    0  0.00000000000E+00  0.00000000000E+00  0.89768557122E+02  0.89768557122E+02  0.00000000000E+00 0. -1.
         -3   -1    0    0    0  501 -0.00000000000E+00 -0.00000000000E+00 -0.24805643303E+03  0.24805643303E+03  0.00000000000E+00 0.  1.
         25    2    1    2    0    0 -0.63807622756E+02 -0.61176630778E+02 -0.35941718113E+02  0.15733302430E+03  0.12509148876E+03 0.  0.
          5    1    3    3  502    0  0.22015386472E+02 -0.63330417819E+02 -0.17616596450E+02  0.69449520755E+02  0.41800000000E+01 0. -1.
         -5    1    3    3    0  502 -0.85823009228E+02  0.21537870405E+01 -0.18325121663E+02  0.87883503546E+02  0.41800000000E+01 0. -1.
        -11    1    1    2    0    0  0.20211445476E+02 -0.26650099511E+02 -0.21087984514E+02  0.39540275961E+02  0.00000000000E+00 0. -1.
         11    1    1    2    0    0  0.43596177279E+02  0.87826730289E+02 -0.10125817328E+03  0.14095168989E+03  0.00000000000E+00 0.  1.
</event>
<event>
 7    1  0.2856214E-009  0.1238870E+03  0.7561462E-02  0.1236819E+00
          3   -1    0    0  501    0  0.00000000000E+00  0.00000000000E+00  0.95311876412E+02  0.95311876412E+02  0.00000000000E+00 0. -1.
         -3   -1    0    0    0  501 -0.00000000000E+00 -0.00000000000E+00 -0.20779454468E+03  0.20779454468E+03  0.00000000000E+00 0.  1.
         25    2    1    2    0    0  0.73383423376E+02  0.48726977378E+02 -0.83691404001E+02  0.17438607394E+03  0.12508719570E+03 0.  0.
          5    1    3    3  502    0  0.84370489428E+02  0.39874116069E+01 -0.94568936998E+02  0.12686620977E+03  0.41800000000E+01 0. -1.
         -5    1    3    3    0  502 -0.10987066053E+02  0.44739565771E+02  0.10877532997E+02  0.47519864162E+02  0.41800000000E+01 0. -1.
        -11    1    1    2    0    0 -0.81447759018E+02 -0.15695572881E+02 -0.41085871627E+02  0.92564233397E+02  0.00000000000E+00 0.  1.
         11    1    1    2    0    0  0.80643356422E+01 -0.33031404497E+02  0.12294607354E+02  0.36156113763E+02  0.00000000000E+00 0. -1.
</event>
<event>
 7    1  0.2856214E-009  0.1040388E+03  0.7561462E-02  0.1272025E+00
         -1   -1    0    0    0  501 -0.00000000000E+00  0.00000000000E+00  0.28219392305E+03  0.28219392305E+03  0.00000000000E+00 0.  1.
          1   -1    0    0  501    0  0.00000000000E+00 -0.00000000000E+00 -0.62676119938E+02  0.62676119938E+02  0.00000000000E+00 0. -1.
         25    2    1    2    0    0 -0.56980527856E+02 -0.53644668173E+02  0.11606948086E+03  0.18773084657E+03  0.12508483277E+03 0.  0.
          5    1    3    3  502    0 -0.70439212580E+02 -0.36521965625E+01  0.11595855795E+03  0.13578984046E+03  0.41800000000E+01 0.  1.
         -5    1    3    3    0  502  0.13458684724E+02 -0.49992471611E+02  0.11092290356E+00  0.51941006114E+02  0.41800000000E+01 0.  1.
        -11    1    1    2    0    0  0.15586461001E+02  0.38269485481E+02 -0.34640315497E+01  0.41466743302E+02  0.00000000000E+00 0. -1.
         11    1    1    2    0    0  0.41394066855E+02  0.15375182693E+02  0.10691235381E+03  0.11567245312E+03  0.00000000000E+00 0.  1.
</event>
<event>
 7    1  0.2856214E-009  0.1418005E+03  0.7561462E-02  0.1210927E+00
          4   -1    0    0  501    0  0.00000000000E+00  0.00000000000E+00  0.33637456239E+03  0.33637456239E+03  0.00000000000E+00 0. -1.
         -4   -1    0    0    0  501 -0.00000000000E+00 -0.00000000000E+00 -0.80899517331E+02  0.80899517331E+02  0.00000000000E+00 0.  1.
         25    2    1    2    0    0 -0.76570946381E+02  0.87144296842E+02  0.82519218541E+02  0.18951192842E+03  0.12509241097E+03 0.  0.
          5    1    3    3  502    0 -0.92797357752E+02  0.36789877791E+02  0.11088558498E+02  0.10052498815E+03  0.41800000000E+01 0.  1.
         -5    1    3    3    0  502  0.16226411371E+02  0.50354419051E+02  0.71430660043E+02  0.88986940267E+02  0.41800000000E+01 0.  1.
        -11    1    1    2    0    0  0.44586951515E+02 -0.87971648307E+02  0.16879752187E+03  0.19549836455E+03  0.00000000000E+00 0. -1.
         11    1    1    2    0    0  0.31983994867E+02  0.82735146559E+00  0.41583046468E+01  0.32263786753E+02  0.00000000000E+00 0.  1.
</event>
<event>
 7    1  0.2856214E-009  0.9649050E+02  0.7561462E-02  0.1287854E+00
          1   -1    0    0  501    0  0.00000000000E+00  0.00000000000E+00  0.21684413630E+03  0.21684413630E+03  0.00000000000E+00 0. -1.
         -1   -1    0    0    0  501 -0.00000000000E+00 -0.00000000000E+00 -0.66503872479E+02  0.66503872479E+02  0.00000000000E+00 0.  1.
         25    2    1    2    0    0 -0.46201406693E+02 -0.67096050167E+01  0.10968437604E+03  0.17279407708E+03  0.12509013529E+03 0.  0.
          5    1    3    3  502    0 -0.38224166538E+02 -0.48015486079E+02  0.11476703109E+03  0.13021335429E+03  0.41800000000E+01 0.  1.
         -5    1    3    3    0  502 -0.79772401555E+01  0.41305881062E+02 -0.50826550454E+01  0.42580722788E+02  0.41800000000E+01 0.  1.
        -11    1    1    2    0    0  0.48944495451E+02 -0.26642088987E+02 -0.26931210120E+01  0.55790836536E+02  0.00000000000E+00 0.  1.
         11    1    1    2    0    0 -0.27430887581E+01  0.33351694003E+02  0.43349008784E+02  0.54763095159E+02  0.00000000000E+00 0. -1.
</event>
<event>
 7    1  0.2856214E-009  0.1369580E+03  0.7561462E-02  0.1217482E+00
         -1   -1    0    0    0  501 -0.00000000000E+00  0.00000000000E+00  0.12255866339E+03  0.12255866339E+03  0.00000000000E+00 0.  1.
          1   -1    0    0  501    0  0.00000000000E+00 -0.00000000000E+00 -0.17263965931E+03  0.17263965931E+03  0.00000000000E+00 0. -1.
         25    2    1    2    0    0 -0.40354011688E+02  0.87599427847E+02 -0.17993861608E+02  0.15897582766E+03  0.12508968266E+03 0.  0.
          5    1    3    3  502    0  0.86596516023E+01 -0.27338458448E+02  0.10364466105E+02  0.30777839980E+02  0.41800000000E+01 0. -1.
         -5    1    3    3    0  502 -0.49013663290E+02  0.11493788629E+03 -0.28358327713E+02  0.12819798768E+03  0.41800000000E+01 0. -1.
        -11    1    1    2    0    0  0.84604816613E+01  0.12366327771E+02 -0.27350024245E+02  0.31185407464E+02  0.00000000000E+00 0. -1.
         11    1    1    2    0    0  0.31893530027E+02 -0.99965755618E+02 -0.47371100727E+01  0.10503708757E+03  0.00000000000E+00 0.  1.
</event>
<event>
 7    1  0.2856214E-009  0.9438898E+02  0.7561462E-02  0.1292558E+00
          2   -1    0    0  501    0  0.00000000000E+00  0.00000000000E+00  0.10357113757E+03  0.10357113757E+03  0.00000000000E+00 0. -1.
         -2   -1    0    0    0  501 -0.00000000000E+00 -0.00000000000E+00 -0.12622840074E+03  0.12622840074E+03  0.00000000000E+00 0.  1.
         25    2    1    2    0    0 -0.14388984423E+02 -0.23877752649E+02 -0.23139345286E+02  0.13022661107E+03  0.12508537479E+03 0.  0.
          5    1    3    3  502    0 -0.62576566119E+02 -0.23926320893E+02  0.14819838357E+02  0.68741511969E+02  0.41800000000E+01 0.  1.
         -5    1    3    3    0  502  0.48187581697E+02  0.48568244384E-01 -0.37959183643E+02  0.61485099101E+02  0.41800000000E+01 0.  1.
        -11    1    1    2    0    0  0.41834993399E+02  0.14817184811E+02  0.33563644944E+02  0.55643812777E+02  0.00000000000E+00 0. -1.
         11    1    1    2    0    0 -0.27446008976E+02  0.90605678385E+01 -0.33081562834E+02  0.43929114467E+02  0.00000000000E+00 0.  1.
</event>
<event>
 7    1  0.2856214E-009  0.1190123E+03  0.7561462E-02  0.1244735E+00
          4   -1    0    0  501    0  0.00000000000E+00  0.00000000000E+00  0.15486075488E+03  0.15486075488E+03  0.00000000000E+00 0. -1.
         -4   -1    0    0    0  501 -0.00000000000E+00 -0.00000000000E+00 -0.12758324359E+03  0.12758324359E+03  0.00000000000E+00 0.  1.
         25    2    1    2    0    0  0.32970269968E+02  0.24894303412E+02 -0.58569338500E+02  0.14416847742E+03  0.12508963756E+03 0.  0.
          5    1    3    3  502    0  0.54049421079E+02  0.64782220611E+02 -0.26049228263E+02  0.88397458783E+02  0.41800000000E+01 0.  1.
         -5    1    3    3    0  502 -0.21079151112E+02 -0.39887917199E+02 -0.32520110236E+02  0.55771018637E+02  0.41800000000E+01 0.  1.
        -11    1    1    2    0    0 -0.19330316327E+02 -0.63985425462E+02  0.49384855103E+02  0.83106315731E+02  0.00000000000E+00 0.  1.
         11    1    1    2    0    0 -0.13639953641E+02  0.39091122050E+02  0.36461994693E+02  0.55169205318E+02  0.00000000000E+00 0. -1.
</event>
<event>
 7    1  0.2856214E-009  0.1105015E+03  0.7561462E-02  0.1259644E+00
         -1   -1    0    0    0  501 -0.00000000000E+00  0.00000000000E+00  0.35545175117E+02  0.35545175117E+02  0.00000000000E+00 0.  1.
          1   -1    0    0  501    0  0.00000000000E+00 -0.00000000000E+00 -0.55687823850E+03  0.55687823850E+03  0.00000000000E+00 0. -1.
         25    2    1    2    0    0  0.77436822885E+02  0.43345693619E+02 -0.30399656868E+03  0.34049478730E+03  0.12508987055E+03 0.  0.
          5    1    3    3  502    0 -0.14836197340E+02 -0.12987547991E+02 -0.15530708395E+03  0.15660955233E+03  0.41800000000E+01 0.  1.
         -5    1    3    3    0  502  0.92273020225E+02  0.56333241610E+02 -0.14868948472E+03  0.18388523497E+03  0.41800000000E+01 0.  1.
        -11    1    1    2    0    0 -0.30258722907E+02 -0.26908369302E+01 -0.17258728529E+03  0.17524041188E+03  0.00000000000E+00 0. -1.
         11    1    1    2    0    0 -0.47178099978E+02 -0.40654856689E+02 -0.44749209425E+02  0.76688214441E+02  0.00000000000E+00 0.  1.
</event>
<event>
 7    1  0.2856214E-009  0.1021444E+03  0.7561462E-02  0.1275850E+00
          1   -1    0    0  501    0  0.00000000000E+00  0.00000000000E+00  0.13481754769E+03  0.13481754769E+03  0.00000000000E+00 0. -1.
         -1   -1    0    0    0  501 -0.00000000000E+00 -0.00000000000E+00 -0.94268772260E+02  0.94268772260E+02  0.00000000000E+00 0.  1.
         25    2    1    2    0    0  0.41211664063E+01  0.19764501265E+02 -0.63690710486E+01  0.12686659347E+03  0.12508776099E+03 0.  0.
          5    1    3    3  502    0 -0.35496669036E+02  0.52461881194E+02  0.23035284638E+02  0.67530431876E+02  0.41800000000E+01 0.  1.
         -5    1    3    3    0  502  0.39617835442E+02 -0.32697379930E+02 -0.29404355686E+02  0.59336161594E+02  0.41800000000E+01 0.  1.
        -11    1    1    2    0    0 -0.44881263109E+02 -0.23399985221E+01  0.33004151391E+02  0.55759101323E+02  0.00000000000E+00 0.  1.
         11    1    1    2    0    0  0.40760096703E+02 -0.17424502743E+02  0.13913695090E+02  0.46460625158E+02  0.00000000000E+00 0. -1.
</event>
<event>
 7    1  0.2856214E-009  0.1217912E+03  0.7561462E-02  0.1240171E+00
         -1   -1    0    0    0  501 -0.00000000000E+00  0.00000000000E+00  0.14851964738E+02  0.14851964738E+02  0.00000000000E+00 0.  1.
          1   -1    0    0  501    0  0.00000000000E+00 -0.00000000000E+00 -0.40886952329E+04  0.40886952329E+04  0.00000000000E+00 0. -1.
         25    2    1    2    0    0  0.71292057179E+02  0.38974951181E+01 -0.38431043338E+04  0.38458023630E+04  0.12508855545E+03 0.  0.
          5    1    3    3  502    0  0.35037283170E+02  0.57138149330E+02 -0.11751241481E+04  0.11770414671E+04  0.41800000000E+01 0.  1.
         -5    1    3    3    0  502  0.36254774009E+02 -0.53240654212E+02 -0.26679801857E+04  0.26687608959E+04  0.41800000000E+01 0.  1.
        -11    1    1    2    0    0 -0.81232875431E+02 -0.27907077683E+02 -0.19885659800E+03  0.21661378442E+03  0.00000000000E+00 0. -1.
         11    1    1    2    0    0  0.99408182513E+01  0.24009582565E+02 -0.31882336406E+02  0.41131050280E+02  0.00000000000E+00 0.  1.
</event>
<event>
 7    1  0.2856214E-009  0.1113677E+03  0.7561462E-02  0.1258058E+00
         -2   -1    0    0    0  501 -0.00000000000E+00  0.00000000000E+00  0.65957150478E+02  0.65957150478E+02  0.00000000000E+00 0. -1.
          2   -1    0    0  501    0  0.00000000000E+00 -0.00000000000E+00 -0.35183689489E+03  0.35183689489E+03  0.00000000000E+00 0.  1.
         25    2    1    2    0    0  0.19319458062E+02 -0.10465372840E+03 -0.14078003887E+03  0.21632250988E+03  0.12510301598E+03 0.  0.
          5    1    3    3  502    0  0.19698933232E+02 -0.41528649761E+02  0.14721253929E+02  0.48444446933E+02  0.41800000000E+01 0.  1.
         -5    1    3    3    0  502 -0.37947516934E+00 -0.63125078642E+02 -0.15550129280E+03  0.16787806294E+03  0.41800000000E+01 0.  1.
        -11    1    1    2    0    0 -0.16063194590E+02  0.10685148052E+02 -0.90939434036E+02  0.92963322187E+02  0.00000000000E+00 0.  1.
         11    1    1    2    0    0 -0.32562634726E+01  0.93968580351E+02 -0.54160271502E+02  0.10850821330E+03  0.00000000000E+00 0. -1.
</event>
<event>
 7    1  0.2856214E-009  0.1919352E+03  0.7561462E-02  0.1156727E+00
          2   -1    0    0  501    0  0.00000000000E+00  0.00000000000E+00  0.30624095885E+03  0.30624095885E+03  0.00000000000E+00 0. -1.
         -2   -1    0    0    0  501 -0.00000000000E+00 -0.00000000000E+00 -0.15407400594E+03  0.15407400594E+03  0.00000000000E+00 0.  1.
         25    2    1    2    0    0  0.98979542016E+02 -0.15680889685E+03  0.11397955092E+03  0.25104735753E+03  0.12508979905E+03 0.  0.
          5    1    3    3  502    0  0.81373432652E+02 -0.11160131233E+03  0.13925962921E+03  0.19618156178E+03  0.41800000000E+01 0. -1.
         -5    1    3    3    0  502  0.17606109364E+02 -0.45207584517E+02 -0.25280078289E+02  0.54865795748E+02  0.41800000000E+01 0. -1.
        -11    1    1    2    0    0 -0.18094232983E+02  0.90823789294E+02 -0.12107576521E+02  0.93396763210E+02  0.00000000000E+00 0.  1.
         11    1    1    2    0    0 -0.80885309034E+02  0.65985107552E+02  0.50294978512E+02  0.11587084404E+03  0.00000000000E+00 0. -1.
</event>
<event>
 7    1  0.2856214E-009  0.1344787E+03  0.7561462E-02  0.1220957E+00
         -2   -1    0    0    0  501 -0.00000000000E+00  0.00000000000E+00  0.26153928670E+02  0.26153928670E+02  0.00000000000E+00 0.  1.
          2   -1    0    0  501    0  0.00000000000E+00 -0.00000000000E+00 -0.80619028578E+03  0.80619028578E+03  0.00000000000E+00 0. -1.
         25    2    1    2    0    0  0.70347958938E+02 -0.47902709968E+02 -0.29208907825E+03  0.32895219746E+03  0.12510001453E+03 0.  0.
          5    1    3    3  502    0  0.92223215562E+02 -0.70835237754E+02 -0.25284661072E+03  0.27833726547E+03  0.41800000000E+01 0. -1.
         -5    1    3    3    0  502 -0.21875256625E+02  0.22932527787E+02 -0.39242467531E+02  0.50614931997E+02  0.41800000000E+01 0. -1.
        -11    1    1    2    0    0 -0.57538656534E+02 -0.12500906101E+02 -0.29452283566E+03  0.30035091206E+03  0.00000000000E+00 0. -1.
         11    1    1    2    0    0 -0.12809302403E+02  0.60403616069E+02 -0.19342444320E+03  0.20304110493E+03  0.00000000000E+00 0.  1.
</event>
<event>
 7    1  0.2856214E-009  0.1749420E+03  0.7561462E-02  0.1172790E+00
          2   -1    0    0  501    0  0.00000000000E+00  0.00000000000E+00  0.24485162530E+04  0.24485162530E+04  0.00000000000E+00 0. -1.
         -2   -1    0    0    0  501 -0.00000000000E+00 -0.00000000000E+00 -0.25224675991E+02  0.25224675991E+02  0.00000000000E+00 0.  1.
         25    2    1    2    0    0  0.56843871314E+01  0.16598399988E+03  0.19957566464E+04  0.20065582966E+04  0.12509438609E+03 0.  0.
          5    1    3    3  502    0  0.17510371909E+02  0.16168404536E+03  0.12329491958E+04  0.12436356121E+04  0.41800000000E+01 0.  1.
         -5    1    3    3    0  502 -0.11825984777E+02  0.42999545164E+01  0.76280745054E+03  0.76292268450E+03  0.41800000000E+01 0.  1.
        -11    1    1    2    0    0 -0.25786269911E+02 -0.50308452300E+02  0.23473666867E+03  0.24144808077E+03  0.00000000000E+00 0.  1.
         11    1    1    2    0    0  0.20101882779E+02 -0.11567554758E+03  0.19279826193E+03  0.22573455164E+03  0.00000000000E+00 0. -1.
</event>
<event>
 7    1  0.5401153E-009  0.7390815E+02  0.7561462E-02  0.1347286E+00
         -1   -1    0    0    0  501 -0.00000000000E+00  0.00000000000E+00  0.16222484635E+02  0.16222484635E+02  0.00000000000E+00 0.  1.
          1   -1    0    0  501    0  0.00000000000E+00 -0.00000000000E+00 -0.91537316337E+03  0.91537316337E+03  0.00000000000E+00 0. -1.
         25    2    1    2    0    0 -0.30100354594E+02 -0.10190375031E+02 -0.68091245591E+03  0.69303652268E+03  0.12509186253E+03 0.  0.
          5    1    3    3  502    0 -0.26182525679E+02  0.15000517843E+02 -0.65739745010E+03  0.65810289468E+03  0.41800000000E+01 0. -1.
         -5    1    3    3    0  502 -0.39178289152E+01 -0.25190892873E+02 -0.23515005802E+02  0.34933627997E+02  0.41800000000E+01 0. -1.
        -11    1    1    2    0    0 -0.12962276861E+02 -0.29959048012E+02 -0.45023709140E+02  0.55612045133E+02  0.00000000000E+00 0.  1.
         11    1    1    2    0    0  0.43062631455E+02  0.40149423043E+02 -0.17321451369E+03  0.18294708019E+03  0.00000000000E+00 0. -1.
</event>
<event>
 7    1  0.2856214E-009  0.1234507E+03  0.7561462E-02  0.1237511E+00
         -1   -1    0    0    0  501 -0.00000000000E+00  0.00000000000E+00  0.31820320863E+02  0.31820320863E+02  0.00000000000E+00 0.  1.
          1   -1    0    0  501    0  0.00000000000E+00 -0.00000000000E+00 -0.50157617778E+03  0.50157617778E+03  0.00000000000E+00 0. -1.
         25    2    1    2    0    0  0.63178629451E+02 -0.39603520905E+01 -0.22602093191E+03  0.26597022996E+03  0.12508987951E+03 0.  0.
          5    1    3    3  502    0 -0.20330851328E+02  0.39187976748E+02 -0.53780574137E+02  0.69705549218E+02  0.41800000000E+01 0.  1.
         -5    1    3    3    0  502  0.83509480779E+02 -0.43148328838E+02 -0.17224035778E+03  0.19626468075E+03  0.41800000000E+01 0.  1.
        -11    1    1    2    0    0 -0.24942111552E+02 -0.41896260409E+02 -0.87447233246E+02  0.10012204636E+03  0.00000000000E+00 0. -1.
         11    1    1    2    0    0 -0.38236517899E+02  0.45856612499E+02 -0.15628769175E+03  0.16730422231E+03  0.00000000000E+00 0.  1.
</event>
<event>
 7    1  0.2856214E-009  0.7782000E+02  0.7561462E-02  0.1335354E+00
         -1   -1    0    0    0  501 -0.00000000000E+00  0.00000000000E+00  0.25526466773E+03  0.25526466773E+03  0.00000000000E+00 0.  1.
          1   -1    0    0  501    0  0.00000000000E+00 -0.00000000000E+00 -0.59676610668E+02  0.59676610668E+02  0.00000000000E+00 0. -1.
         25    2    1    2    0    0  0.25008443173E+02  0.46715435457E+02  0.12475564360E+03  0.18445478153E+03  0.12510732065E+03 0.  0.
          5    1    3    3  502    0  0.48051481478E+02 -0.19501363399E+01 -0.25904340088E+00  0.48273050530E+02  0.41800000000E+01 0.  1.
         -5    1    3    3    0  502 -0.23043038305E+02  0.48665571797E+02  0.12501468700E+03  0.13618173100E+03  0.41800000000E+01 0.  1.
        -11    1    1    2    0    0 -0.13092890251E+02 -0.17890594583E+02  0.90789846080E+02  0.93457441121E+02  0.00000000000E+00 0.  1.
         11    1    1    2    0    0 -0.11915552922E+02 -0.28824840874E+02 -0.19957432616E+02  0.37029055747E+02  0.00000000000E+00 0. -1.
</event>
<event>
 7    1  0.2856214E-009  0.1309644E+03  0.7561462E-02  0.1226032E+00
         -2   -1    0    0    0  501 -0.00000000000E+00  0.00000000000E+00  0.20144678336E+03  0.20144678336E+03  0.00000000000E+00 0.  1.
          2   -1    0    0  501    0  0.00000000000E+00 -0.00000000000E+00 -0.10560772470E+03  0.10560772470E+03  0.00000000000E+00 0. -1.
         25    2    1    2    0    0  0.78530409244E+02 -0.55382535429E+02  0.61179459197E+02  0.16918209648E+03  0.12508159392E+03 0.  0.
          5    1    3    3  502    0  0.65972290396E+02 -0.90533200088E+02  0.20758794367E+02  0.11400440063E+03  0.41800000000E+01 0.  1.
         -5    1    3    3    0  502  0.12558118847E+02  0.35150664659E+02  0.40420664830E+02  0.55177695859E+02  0.41800000000E+01 0.  1.
        -11    1    1    2    0    0 -0.59475967109E+02  0.65299307537E+01 -0.19066870535E+02  0.62797899735E+02  0.00000000000E+00 0. -1.
         11    1    1    2    0    0 -0.19054442135E+02  0.48852604675E+02  0.53726470004E+02  0.75074511838E+02  0.00000000000E+00 0.  1.
</event>
<event>
 7    1  0.2856214E-009  0.9177050E+02  0.7561462E-02  0.1298620E+00
         -1   -1    0    0    0  501 -0.00000000000E+00  0.00000000000E+00  0.12462009839E+03  0.12462009839E+03  0.00000000000E+00 0.  1.
          1   -1    0    0  501    0  0.00000000000E+00 -0.00000000000E+00 -0.12567192648E+03  0.12567192648E+03  0.00000000000E+00 0. -1.
         25    2    1    2    0    0  0.34161062684E+02  0.32781185035E+02  0.40408132549E+02  0.13971165980E+03  0.12507976020E+03 0.  0.
          5    1    3    3  502    0 -0.39867311548E+02  0.26056100371E+02  0.44273324342E+02  0.65160743895E+02  0.41800000000E+01 0. -1.
         -5    1    3    3    0  502  0.74028374232E+02  0.67250846634E+01 -0.38651917930E+01  0.74550915908E+02  0.41800000000E+01 0. -1.
        -11    1    1    2    0    0 -0.41401776815E+02 -0.18663268760E+02 -0.66744724208E+02  0.80729690535E+02  0.00000000000E+00 0. -1.
         11    1    1    2    0    0  0.72407141313E+01 -0.14117916275E+02  0.25284763574E+02  0.29850674533E+02  0.00000000000E+00 0.  1.
</event>
<event>
 7    1  0.2856214E-009  0.2100913E+03  0.7561462E-02  0.1141494E+00
         -2   -1    0    0    0  501 -0.00000000000E+00  0.00000000000E+00  0.10418202609E+03  0.10418202609E+03  0.00000000000E+00 0.  1.
          2   -1    0    0  501    0  0.00000000000E+00 -0.00000000000E+00 -0.53017046946E+03  0.53017046946E+03  0.00000000000E+00 0. -1.
         25    2    1    2    0    0  0.18867945246E+03 -0.11396598336E+02 -0.10256155082E+03  0.24879720886E+03  0.12510540035E+03 0.  0.
          5    1    3    3  502    0  0.12731975325E+03 -0.62377623011E+02 -0.89859216866E+02  0.16790901905E+03  0.41800000000E+01 0.  1.
         -5    1    3    3    0  502  0.61359699202E+02  0.50981024675E+02 -0.12702333951E+02  0.80888189811E+02  0.41800000000E+01 0.  1.
        -11    1    1    2    0    0 -0.10577945948E+03  0.36402720703E+02 -0.11786774549E+03  0.16250310012E+03  0.00000000000E+00 0.  1.
         11    1    1    2    0    0 -0.82899992975E+02 -0.25006122367E+02 -0.20555914706E+03  0.22305218657E+03  0.00000000000E+00 0. -1.
</event>
<event>
 7    1  0.2856214E-009  0.1443213E+03  0.7561462E-02  0.1207630E+00
          1   -1    0    0  501    0  0.00000000000E+00  0.00000000000E+00  0.18927397970E+03  0.18927397970E+03  0.00000000000E+00 0. -1.
         -1   -1    0    0    0  501 -0.00000000000E+00 -0.00000000000E+00 -0.13643282585E+03  0.13643282585E+03  0.00000000000E+00 0.  1.
         25    2    1    2    0    0 -0.35831197593E+02  0.10933393143E+03  0.56180712252E+02  0.17900416232E+03  0.12509370255E+03 0.  0.
          5    1    3    3  502    0  0.90039319651E+01  0.11101723150E+03  0.70305787386E+02  0.13178115427E+03  0.41800000000E+01 0. -1.
         -5    1    3    3    0  502 -0.44835129558E+02 -0.16833000737E+01 -0.14125075134E+02  0.47223008048E+02  0.41800000000E+01 0. -1.
        -11    1    1    2    0    0  0.47981388542E+02 -0.10994198676E+03 -0.24370507943E+02  0.12240660013E+03  0.00000000000E+00 0.  1.
         11    1    1    2    0    0 -0.12150190950E+02  0.60805532939E+00  0.21030949539E+02  0.24296043091E+02  0.00000000000E+00 0. -1.
</event>
<event>
 7    1  0.2856214E-009  0.1531824E+03  0.7561462E-02  0.1196616E+00
         -2   -1    0    0    0  501 -0.00000000000E+00  0.00000000000E+00  0.34993179351E+02  0.34993179351E+02  0.00000000000E+00 0.  1.
          2   -1    0    0  501    0  0.00000000000E+00 -0.00000000000E+00 -0.97667257855E+03  0.97667257855E+03  0.00000000000E+00 0. -1.
         25    2    1    2    0    0 -0.11259731990E+03 -0.17044373070E+02 -0.23170181451E+03  0.28688402248E+03  0.12509214365E+03 0.  0.
          5    1    3    3  502    0 -0.11443994756E+03 -0.51725840749E+02 -0.21278073161E+03  0.24711369113E+03  0.41800000000E+01 0.  1.
         -5    1    3    3    0  502  0.18426276685E+01  0.34681467679E+02 -0.18921082901E+02  0.39770331345E+02  0.41800000000E+01 0.  1.
        -11    1    1    2    0    0  0.89072043591E+02 -0.29288753311E+02 -0.46153198482E+03  0.47096011830E+03  0.00000000000E+00 0.  1.
         11    1    1    2    0    0  0.23525276304E+02  0.46333126381E+02 -0.24844559986E+03  0.25382161712E+03  0.00000000000E+00 0. -1.
</event>
<event>
 7    1  0.2856214E-009  0.1271597E+03  0.7561462E-02  0.1231732E+00
         -1   -1    0    0    0  501 -0.00000000000E+00  0.00000000000E+00  0.29962973404E+03  0.29962973404E+03  0.00000000000E+00 0.  1.
          1   -1    0    0  501    0  0.00000000000E+00 -0.00000000000E+00 -0.79191620030E+02  0.79191620030E+02  0.00000000000E+00 0. -1.
         25    2    1    2    0    0  0.51092502755E+02  0.80895646250E+02  0.20403879127E+03  0.25774350142E+03  0.12508131260E+03 0.  0.
          5    1    3    3  502    0 -0.12880520964E+01  0.89330322679E+02  0.70153877114E+02  0.11366883699E+03  0.41800000000E+01 0.  1.
         -5    1    3    3    0  502  0.52380554852E+02 -0.84346764293E+01  0.13388491416E+03  0.14407466443E+03  0.41800000000E+01 0.  1.
        -11    1    1    2    0    0 -0.66123136203E+01 -0.63592007243E+02  0.31154744734E+02  0.71121615533E+02  0.00000000000E+00 0.  1.
         11    1    1    2    0    0 -0.44480189135E+02 -0.17303639007E+02 -0.14755421995E+02  0.49956237114E+02  0.00000000000E+00 0. -1.
</event>
<event>
 7    1  0.2856214E-009  0.1013849E+03  0.7561462E-02  0.1277410E+00
          3   -1    0    0  501    0  0.00000000000E+00  0.00000000000E+00  0.47937792039E+03  0.47937792039E+03  0.00000000000E+00 0. -1.
         -3   -1    0    0    0  501 -0.00000000000E+00 -0.00000000000E+00 -0.28832654588E+02  0.28832654588E+02  0.00000000000E+00 0.  1.
         25    2    1    2    0    0  0.27100059455E+01  0.27591600405E+02  0.34613252170E+03  0.36907952304E+03  0.12507330329E+03 0.  0.
          5    1    3    3  502    0  0.55082763116E+02  0.46443761791E+02  0.20303418990E+03  0.21547967066E+03  0.41800000000E+01 0. -1.
         -5    1    3    3    0  502 -0.52372757171E+02 -0.18852161386E+02  0.14309833181E+03  0.15359985237E+03  0.41800000000E+01 0. -1.
        -11    1    1    2    0    0  0.23538505322E+02  0.12659164606E+02  0.81738302700E+02  0.85996894186E+02  0.00000000000E+00 0. -1.
         11    1    1    2    0    0 -0.26248511268E+02 -0.40250765010E+02  0.22674441392E+02  0.53134157753E+02  0.00000000000E+00 0.  1.
</event>
<event>
 7    1  0.2856214E-009  0.6687210E+02  0.7561462E-02  0.1371065E+00
          2   -1    0    0  501    0  0.00000000000E+00  0.00000000000E+00  0.44389239993E+03  0.44389239993E+03  0.00000000000E+00 0.  1.
         -2   -1    0    0    0  501 -0.00000000000E+00 -0.00000000000E+00 -0.31021448132E+02  0.31021448132E+02  0.00000000000E+00 0. -1.
         25    2    1    2    0    0  0.79725233754E+01 -0.36107919964E+02  0.28862233947E+03  0.31672757435E+03  0.12508460536E+03 0.  0.
          5    1    3    3  502    0 -0.37906081754E+01 -0.61424462545E+02  0.58934168466E+02  0.85311440745E+02  0.41800000000E+01 0.  1.
         -5    1    3    3    0  502  0.11763131551E+02  0.25316542581E+02  0.22968817101E+03  0.23141613361E+03  0.41800000000E+01 0.  1.
        -11    1    1    2    0    0 -0.16176758932E+02  0.19712430190E+02  0.13469348271E+03  0.13708611059E+03  0.00000000000E+00 0.  1.
         11    1    1    2    0    0  0.82042355569E+01  0.16395489774E+02 -0.10444870388E+02  0.21100163113E+02  0.00000000000E+00 0. -1.
</event>
<event>
 7    1  0.2856214E-009  0.2514460E+03  0.7561462E-02  0.1112394E+00
          1   -1    0    0  501    0  0.00000000000E+00  0.00000000000E+00  0.19977337295E+04  0.19977337295E+04  0.00000000000E+00 0. -1.
         -1   -1    0    0    0  501 -0.00000000000E+00 -0.00000000000E+00 -0.35868738829E+02  0.35868738829E+02  0.00000000000E+00 0.  1.
         25    2    1    2    0    0 -0.10539496785E+03  0.21986106816E+03  0.94104129402E+03  0.98012952773E+03  0.12509270774E+03 0.  0.
          5    1    3    3  502    0 -0.28995922058E+02  0.13619914577E+03  0.32281229361E+03  0.35159098411E+03  0.41800000000E+01 0.  1.
         -5    1    3    3    0  502 -0.76399045792E+02  0.83661922383E+02  0.61822900041E+03  0.62853854361E+03  0.41800000000E+01 0.  1.
        -11    1    1    2    0    0  0.39983957291E+02 -0.14676583178E+03  0.75399046259E+03  0.76918173659E+03  0.00000000000E+00 0. -1.
         11    1    1    2    0    0  0.65411010559E+02 -0.73095236379E+02  0.26683323405E+03  0.28429120401E+03  0.00000000000E+00 0.  1.
</event>
<event>
 7    1  0.2856214E-009  0.6237677E+02  0.7561462E-02  0.1388120E+00
         -1   -1    0    0    0  501 -0.00000000000E+00  0.00000000000E+00  0.91782302941E+02  0.91782302941E+02  0.00000000000E+00 0.  1.
          1   -1    0    0  501    0  0.00000000000E+00 -0.00000000000E+00 -0.23995522086E+03  0.23995522086E+03  0.00000000000E+00 0. -1.
         25    2    1    2    0    0 -0.17907739091E+02 -0.62812284565E+01 -0.19027614498E+03  0.22850098782E+03  0.12509016402E+03 0.  0.
          5    1    3    3  502    0 -0.27844078448E+02  0.32146563555E+02 -0.18301098103E+03  0.18793399328E+03  0.41800000000E+01 0.  1.
         -5    1    3    3    0  502  0.99363393574E+01 -0.38427792012E+02 -0.72651639543E+01  0.40566994540E+02  0.41800000000E+01 0.  1.
        -11    1    1    2    0    0  0.29732580504E+02  0.33095612631E+01  0.68177542957E+02  0.74452380102E+02  0.00000000000E+00 0.  1.
         11    1    1    2    0    0 -0.11824841413E+02  0.29716671934E+01 -0.26074315893E+02  0.28784155879E+02  0.00000000000E+00 0. -1.
</event>
<event>
 7    1  0.2856214E-009  0.9832667E+02  0.7561462E-02  0.1283855E+00
         -1   -1    0    0    0  501 -0.00000000000E+00  0.00000000000E+00  0.65001722078E+02  0.65001722078E+02  0.00000000000E+00 0.  1.
          1   -1    0    0  501    0  0.00000000000E+00 -0.00000000000E+00 -0.26611527358E+03  0.26611527358E+03  0.00000000000E+00 0. -1.
         25    2    1    2    0    0  0.28446975998E+02 -0.66849835669E+02 -0.97167250604E+02  0.17426348277E+03  0.12509258917E+03 0.  0.
          5    1    3    3  502    0  0.94858429289E+01  0.58356663206E+01 -0.98303602030E+02  0.99020739190E+02  0.41800000000E+01 0. -1.
         -5    1    3    3    0  502  0.18961133070E+02 -0.72685501990E+02  0.11363514268E+01  0.75242743579E+02  0.41800000000E+01 0. -1.
        -11    1    1    2    0    0  0.38846117301E+01  0.75860360435E+02 -0.43025596773E+02  0.87298834307E+02  0.00000000000E+00 0.  1.
         11    1    1    2    0    0 -0.32331587729E+02 -0.90105247659E+01 -0.60920704122E+02  0.69554678580E+02  0.00000000000E+00 0. -1.
</event>
<event>
 7    1  0.2856214E-009  0.1111385E+03  0.7561462E-02  0.1258476E+00
          2   -1    0    0  501    0  0.00000000000E+00  0.00000000000E+00  0.18479206657E+02  0.18479206657E+02  0.00000000000E+00 0. -1.
         -2   -1    0    0    0  501 -0.00000000000E+00 -0.00000000000E+00 -0.20444707192E+04  0.20444707192E+04  0.00000000000E+00 0.  1.
         25    2    1    2    0    0 -0.36269399253E+02 -0.51999364292E+02 -0.18495981330E+04  0.18549070205E+04  0.12508955946E+03 0.  0.
          5    1    3    3  502    0 -0.55768370592E+02 -0.79433506483E+02 -0.16090168788E+04  0.16119468297E+04  0.41800000000E+01 0. -1.
         -5    1    3    3    0  502  0.19498971339E+02  0.27434142191E+02 -0.24058125421E+03  0.24296019081E+03  0.41800000000E+01 0. -1.
        -11    1    1    2    0    0  0.42184292396E+02  0.34701172655E+01 -0.14224567656E+03  0.14840953049E+03  0.00000000000E+00 0.  1.
         11    1    1    2    0    0 -0.59148931435E+01  0.48529247027E+02 -0.34147702942E+02  0.59633374834E+02  0.00000000000E+00 0. -1.
</event>
<event>
 7    1  0.2856214E-009  0.3802417E+03  0.7561462E-02  0.1050844E+00
         -3   -1    0    0    0  501 -0.00000000000E+00  0.00000000000E+00  0.20168759282E+04  0.20168759282E+04  0.00000000000E+00 0.  1.
          3   -1    0    0  501    0  0.00000000000E+00 -0.00000000000E+00 -0.11858154800E+03  0.11858154800E+03  0.00000000000E+00 0. -1.
         25    2    1    2    0    0  0.19095569478E+03 -0.31131029497E+03  0.16265612423E+04  0.16717438337E+04  0.12509114095E+03 0.  0.
          5    1    3    3  502    0 -0.39903548545E+01 -0.91664105657E+02  0.42413731809E+03  0.43396793452E+03  0.41800000000E+01 0.  1.
         -5    1    3    3    0  502  0.19494604964E+03 -0.21964618932E+03  0.12024239242E+04  0.12377758992E+04  0.41800000000E+01 0.  1.
        -11    1    1    2    0    0 -0.40434727326E+02  0.14537327880E+03  0.94391021558E+02  0.17798320796E+03  0.00000000000E+00 0.  1.
         11    1    1    2    0    0 -0.15052096746E+03  0.16593701617E+03  0.17734211638E+03  0.28573043454E+03  0.00000000000E+00 0. -1.
</event>
<event>
 7    1  0.2856214E-009  0.8295009E+02  0.7561462E-02  0.1320882E+00
         -2   -1    0    0    0  501 -0.00000000000E+00  0.00000000000E+00  0.70833259586E+02  0.70833259586E+02  0.00000000000E+00 0.  1.
          2   -1    0    0  501    0  0.00000000000E+00 -0.00000000000E+00 -0.26702129585E+03  0.26702129585E+03  0.00000000000E+00 0. -1.
         25    2    1    2    0    0 -0.27178765534E+02  0.22625679023E+02 -0.23256989705E+02  0.13205815723E+03  0.12509141727E+03 0.  0.
          5    1    3    3  502    0 -0.41881146586E+02 -0.20214496030E+02 -0.58261501923E+02  0.74662783872E+02  0.41800000000E+01 0.  1.
         -5    1    3    3    0  502  0.14702381053E+02  0.42840175053E+02  0.35004512219E+02  0.57395373357E+02  0.41800000000E+01 0.  1.
        -11    1    1    2    0    0 -0.44090156851E+01 -0.38235416416E+02 -0.16533080718E+03  0.16975176667E+03  0.00000000000E+00 0. -1.
         11    1    1    2    0    0  0.31587781219E+02  0.15609737393E+02 -0.76002393881E+01  0.36044631536E+02  0.00000000000E+00 0.  1.
</event>
<event>
 7    1  0.2856214E-009  0.1244057E+03  0.7561462E-02  0.1236001E+00
         -2   -1    0    0    0  501 -0.00000000000E+00  0.00000000000E+00  0.14371585944E+03  0.14371585944E+03  0.00000000000E+00 0.  1.
          2   -1    0    0  501    0  0.00000000000E+00 -0.00000000000E+00 -0.12411378467E+03  0.12411378467E+03  0.00000000000E+00 0. -1.
         25    2    1    2    0    0 -0.51453322953E+02  0.52310160725E+02  0.44486527773E+02  0.15170208188E+03  0.12510265040E+03 0.  0.
          5    1    3    3  502    0 -0.89355194388E+02  0.21274992837E+02  0.45362818365E+02  0.10252918499E+03  0.41800000000E+01 0. -1.
         -5    1    3    3    0  502  0.37901871434E+02  0.31035167887E+02 -0.87629059250E+00  0.49172896897E+02  0.41800000000E+01 0. -1.
        -11    1    1    2    0    0 -0.17792369973E+02  0.42453608012E+01  0.91619510726E+01  0.20458075790E+02  0.00000000000E+00 0.  1.
         11    1    1    2    0    0  0.69245692926E+02 -0.56555521526E+02 -0.34046404078E+02  0.95669486433E+02  0.00000000000E+00 0. -1.
</event>
<event>
 7    1  0.2856214E-009  0.1077127E+03  0.7561462E-02  0.1264865E+00
          2   -1    0    0  501    0  0.00000000000E+00  0.00000000000E+00  0.11687214162E+03  0.11687214162E+03  0.00000000000E+00 0. -1.
         -2   -1    0    0    0  501 -0.00000000000E+00 -0.00000000000E+00 -0.17429236625E+03  0.17429236625E+03  0.00000000000E+00 0.  1.
         25    2    1    2    0    0 -0.67925539890E+02  0.16223244321E+02  0.31297273153E+02  0.14664301884E+03  0.12509029955E+03 0.  0.
          5    1    3    3  502    0  0.61892701752E+01  0.57277320747E+02  0.57334504001E+01  0.58046045436E+02  0.41800000000E+01 0. -1.
         -5    1    3    3    0  502 -0.74114810065E+02 -0.41054076426E+02  0.25563822753E+02  0.88596973402E+02  0.41800000000E+01 0. -1.
        -11    1    1    2    0    0  0.60034508311E+02 -0.66100453531E+01 -0.10672898333E+03  0.12263323681E+03  0.00000000000E+00 0.  1.
         11    1    1    2    0    0  0.78910315795E+01 -0.96131989677E+01  0.18011485546E+02  0.21888252223E+02  0.00000000000E+00 0. -1.
</event>
<event>
 7    1  0.2856214E-009  0.2047859E+03  0.7561462E-02  0.1145763E+00
         -2   -1    0    0    0  501 -0.00000000000E+00  0.00000000000E+00  0.11043771507E+03  0.11043771507E+03  0.00000000000E+00 0.  1.
          2   -1    0    0  501    0  0.00000000000E+00 -0.00000000000E+00 -0.58425813470E+03  0.58425813470E+03  0.00000000000E+00 0. -1.
         25    2    1    2    0    0 -0.16717792551E+03  0.86475567010E+02 -0.42295946562E+03  0.47955037263E+03  0.12508943945E+03 0.  0.
          5    1    3    3  502    0  0.15055015629E+02 -0.31471097718E+01 -0.86656632063E+01  0.18141772634E+02  0.41800000000E+01 0. -1.
         -5    1    3    3    0  502 -0.18223294114E+03  0.89622676782E+02 -0.41429380242E+03  0.46140860000E+03  0.41800000000E+01 0. -1.
        -11    1    1    2    0    0  0.10950279256E+03 -0.40493843660E+02 -0.73534390234E+02  0.13797796744E+03  0.00000000000E+00 0.  1.
         11    1    1    2    0    0  0.57675132951E+02 -0.45981723350E+02  0.22673436218E+02  0.77167509698E+02  0.00000000000E+00 0. -1.
</event>
<event>
 7    1  0.2856214E-009  0.1940876E+03  0.7561462E-02  0.1154825E+00
         -2   -1    0    0    0  501 -0.00000000000E+00  0.00000000000E+00  0.36856489235E+02  0.36856489235E+02  0.00000000000E+00 0.  1.
          2   -1    0    0  501    0  0.00000000000E+00 -0.00000000000E+00 -0.10445870592E+04  0.10445870592E+04  0.00000000000E+00 0. -1.
         25    2    1    2    0    0  0.16130547126E+03 -0.17869964959E+01 -0.46338722785E+03  0.50635766568E+03  0.12509082397E+03 0.  0.
          5    1    3    3  502    0  0.34802910446E+02  0.54202894219E+02 -0.17370736382E+03  0.18531302427E+03  0.41800000000E+01 0. -1.
         -5    1    3    3    0  502  0.12650256081E+03 -0.55989890715E+02 -0.28967986402E+03  0.32104464141E+03  0.41800000000E+01 0. -1.
        -11    1    1    2    0    0 -0.38237858592E+02 -0.39921467424E+02 -0.14815316746E+03  0.15813038424E+03  0.00000000000E+00 0. -1.
         11    1    1    2    0    0 -0.12306761267E+03  0.41708463919E+02 -0.39619017463E+03  0.41695549849E+03  0.00000000000E+00 0.  1.
</event>
<event>
 7    1  0.2856214E-009  0.1232451E+03  0.7561462E-02  0.1237838E+00
          3   -1    0    0  501    0  0.00000000000E+00  0.00000000000E+00  0.11222530965E+03  0.11222530965E+03  0.00000000000E+00 0. -1.
         -3   -1    0    0    0  501 -0.00000000000E+00 -0.00000000000E+00 -0.29833486304E+03  0.29833486304E+03  0.00000000000E+00 0.  1.
         25    2    1    2    0    0 -0.81231961791E+02 -0.32673180203E+02  0.34200546545E+02  0.15647397134E+03  0.12509299742E+03 0.  0.
          5    1    3    3  502    0 -0.48973276935E+02 -0.77021024931E+02  0.42646820840E+02  0.10083076843E+03  0.41800000000E+01 0.  1.
         -5    1    3    3    0  502 -0.32258684856E+02  0.44347844728E+02 -0.84462742946E+01  0.55643202911E+02  0.41800000000E+01 0.  1.
        -11    1    1    2    0    0  0.74792892497E+02  0.86954526830E+01 -0.21617988215E+03  0.22891773438E+03  0.00000000000E+00 0.  1.
         11    1    1    2    0    0  0.64390692947E+01  0.23977727520E+02 -0.41302177889E+01  0.25168466965E+02  0.00000000000E+00 0. -1.
</event>
<event>
 7    1  0.2975494E-009  0.1099419E+03  0.7561462E-02  0.1260678E+00
         -1   -1    0    0    0  501 -0.00000000000E+00  0.00000000000E+00  0.75713942750E+02  0.75713942750E+02  0.00000000000E+00 0.  1.
          1   -1    0    0  501    0  0.00000000000E+00 -0.00000000000E+00 -0.23505335077E+03  0.23505335077E+03  0.00000000000E+00 0. -1.
         25    2    1    2    0    0 -0.57110209870E+02 -0.50304425656E+02 -0.71975676499E+02  0.16315614594E+03  0.12508924270E+03 0.  0.
          5    1    3    3  502    0 -0.75132773487E+02 -0.63965454872E+02 -0.12700128830E+02  0.99575492673E+02  0.41800000000E+01 0.  1.
         -5    1    3    3    0  502  0.18022563617E+02  0.13661029216E+02 -0.59275547670E+02  0.63580653269E+02  0.41800000000E+01 0.  1.
        -11    1    1    2    0    0  0.44206327091E+02  0.64973849266E+02 -0.25320775750E+02  0.82564775346E+02  0.00000000000E+00 0.  1.
         11    1    1    2    0    0  0.12903882779E+02 -0.14669423610E+02 -0.62042955774E+02  0.65046372236E+02  0.00000000000E+00 0. -1.
</event>
<event>
 7    1  0.2856214E-009  0.1693029E+03  0.7561462E-02  0.1178577E+00
          4   -1    0    0  501    0  0.00000000000E+00  0.00000000000E+00  0.13950369504E+04  0.13950369504E+04  0.00000000000E+00 0. -1.
         -4   -1    0    0    0  501 -0.00000000000E+00 -0.00000000000E+00 -0.22577679854E+02  0.22577679854E+02  0.00000000000E+00 0.  1.
         25    2    1    2    0    0 -0.12158656008E+03  0.66354654821E+02  0.91183946477E+03  0.93074349354E+03  0.12508400953E+03 0.  0.
          5    1    3    3  502    0 -0.16737397905E+02 -0.32764493171E+02  0.11139156964E+03  0.11738486567E+03  0.41800000000E+01 0. -1.
         -5    1    3    3    0  502 -0.10484916217E+03  0.99119147992E+02  0.80044789513E+03  0.81335862787E+03  0.41800000000E+01 0. -1.
        -11    1    1    2    0    0 -0.36843731361E-02 -0.30452258713E+02  0.10508159748E+03  0.10940512877E+03  0.00000000000E+00 0.  1.
         11    1    1    2    0    0  0.12159024445E+03 -0.35902396108E+02  0.35553820831E+03  0.37746600795E+03  0.00000000000E+00 0. -1.
</event>
<event>
 7    1  0.2856214E-009  0.8072083E+02  0.7561462E-02  0.1327018E+00
         -2   -1    0    0    0  501 -0.00000000000E+00  0.00000000000E+00  0.36963039300E+03  0.36963039300E+03  0.00000000000E+00 0.  1.
          2   -1    0    0  501    0  0.00000000000E+00 -0.00000000000E+00 -0.40107542905E+02  0.40107542905E+02  0.00000000000E+00 0. -1.
         25    2    1    2    0    0  0.20647437207E+02  0.46113752309E+02  0.23084213991E+03  0.26737247756E+03  0.12508858214E+03 0.  0.
          5    1    3    3  502    0 -0.10423216627E+02  0.12867478133E+02 -0.11610107398E+02  0.20651451091E+02  0.41800000000E+01 0. -1.
         -5    1    3    3    0  502  0.31070653834E+02  0.33246274176E+02  0.24245224731E+03  0.24672102647E+03  0.41800000000E+01 0. -1.
        -11    1    1    2    0    0 -0.15276451116E+02 -0.71297709541E+02  0.88516377943E+02  0.11468165725E+03  0.00000000000E+00 0.  1.
         11    1    1    2    0    0 -0.53709860912E+01  0.25183957232E+02  0.10164332242E+02  0.27683801101E+02  0.00000000000E+00 0. -1.
</event>
<event>
 7    1  0.2856214E-009  0.1244865E+03  0.7561462E-02  0.1235874E+00
         -2   -1    0    0    0  501 -0.00000000000E+00  0.00000000000E+00  0.11581702028E+03  0.11581702028E+03  0.00000000000E+00 0.  1.
          2   -1    0    0  501    0  0.00000000000E+00 -0.00000000000E+00 -0.24976538144E+03  0.24976538144E+03  0.00000000000E+00 0. -1.
         25    2    1    2    0    0 -0.39743787481E+02  0.11667640771E+03 -0.25013351807E+02  0.17738788367E+03  0.12509132962E+03 0.  0.
          5    1    3    3  502    0 -0.74999969723E+01  0.51292898977E+02 -0.73277894660E+02  0.89857296230E+02  0.41800000000E+01 0.  1.
         -5    1    3    3    0  502 -0.32243790509E+02  0.65383508735E+02  0.48264542853E+02  0.87530587441E+02  0.41800000000E+01 0.  1.
        -11    1    1    2    0    0  0.18732605998E+02 -0.36058695860E+02  0.11061468090E+02  0.42112897679E+02  0.00000000000E+00 0.  1.
         11    1    1    2    0    0  0.21011181483E+02 -0.80617711853E+02 -0.11999647745E+03  0.14608162037E+03  0.00000000000E+00 0. -1.
</event>
<event>
 7    1  0.2856214E-009  0.1703885E+03  0.7561462E-02  0.1177443E+00
         -2   -1    0    0    0  501 -0.00000000000E+00  0.00000000000E+00  0.37043712233E+02  0.37043712233E+02  0.00000000000E+00 0. -1.
          2   -1    0    0  501    0  0.00000000000E+00 -0.00000000000E+00 -0.91530769940E+03  0.91530769940E+03  0.00000000000E+00 0.  1.
         25    2    1    2    0    0  0.97348459269E+02  0.88980639940E+02 -0.31801905228E+03  0.36630337723E+03  0.12509104586E+03 0.  0.
          5    1    3    3  502    0  0.90002331967E+02  0.10983693385E+02 -0.10230445435E+03  0.13676525531E+03  0.41800000000E+01 0.  1.
         -5    1    3    3    0  502  0.73461273020E+01  0.77996946555E+02 -0.21571459792E+03  0.22953812192E+03  0.41800000000E+01 0.  1.
        -11    1    1    2    0    0  0.24729115799E+00  0.23008048552E+02 -0.90229579443E+02  0.93117175954E+02  0.00000000000E+00 0. -1.
         11    1    1    2    0    0 -0.97595750427E+02 -0.11198868849E+03 -0.47001535545E+03  0.49293085845E+03  0.00000000000E+00 0.  1.
</event>
<event>
 7    1  0.2856214E-009  0.2255011E+03  0.7561462E-02  0.1129847E+00
          2   -1    0    0  501    0  0.00000000000E+00  0.00000000000E+00  0.34626209770E+03  0.34626209770E+03  0.00000000000E+00 0.  1.
         -2   -1    0    0    0  501 -0.00000000000E+00 -0.00000000000E+00 -0.15320618942E+03  0.15320618942E+03  0.00000000000E+00 0. -1.
         25    2    1    2    0    0 -0.33507406835E+02  0.19743404147E+03  0.13818144089E+03  0.27357767176E+03  0.12509070644E+03 0.  0.
          5    1    3    3  502    0 -0.21716429138E+02  0.21192523535E+03  0.11078592969E+03  0.24015599782E+03  0.41800000000E+01 0. -1.
         -5    1    3    3    0  502 -0.11790977696E+02 -0.14491193883E+02  0.27395511195E+02  0.33421673938E+02  0.41800000000E+01 0. -1.
        -11    1    1    2    0    0  0.63619961352E+02 -0.12278135360E+03  0.28578356320E+02  0.14120723326E+03  0.00000000000E+00 0.  1.
         11    1    1    2    0    0 -0.30112554518E+02 -0.74652687867E+02  0.26296111075E+02  0.84683382094E+02  0.00000000000E+00 0. -1.
</event>
<event>
 7    1  0.3477259E-009  0.1260408E+03  0.7561462E-02  0.1233452E+00
          1   -1    0    0  501    0  0.00000000000E+00  0.00000000000E+00  0.41021993308E+03  0.41021993308E+03  0.00000000000E+00 0. -1.
         -1   -1    0    0    0  501 -0.00000000000E+00 -0.00000000000E+00 -0.53273015278E+02  0.53273015278E+02  0.00000000000E+00 0.  1.
         25    2    1    2    0    0 -0.22929927039E+02  0.90617405244E+02  0.13965898321E+03  0.20950363467E+03  0.12509934317E+03 0.  0.
          5    1    3    3  502    0 -0.64200900817E+02  0.72299540791E+02  0.49778312744E+02  0.10883166857E+03  0.41800000000E+01 0.  1.
         -5    1    3    3    0  502  0.41270973779E+02  0.18317864453E+02  0.89880670470E+02  0.10067196610E+03  0.41800000000E+01 0.  1.
        -11    1    1    2    0    0  0.39847800106E+02 -0.39489797859E+02  0.40530589350E+02  0.69209970245E+02  0.00000000000E+00 0.  1.
         11    1    1    2    0    0 -0.16917873068E+02 -0.51127607386E+02  0.17675734524E+03  0.18477934344E+03  0.00000000000E+00 0. -1.
</event>
<event>
 7    1  0.2856214E-009  0.1556755E+03  0.7561462E-02  0.1193667E+00
         -2   -1    0    0    0  501 -0.00000000000E+00  0.00000000000E+00  0.13476925344E+02  0.13476925344E+02  0.00000000000E+00 0.  1.
          2   -1    0    0  501    0  0.00000000000E+00 -0.00000000000E+00 -0.18650911094E+04  0.18650911094E+04  0.00000000000E+00 0. -1.
         25    2    1    2    0    0 -0.52609077704E+00  0.11288848188E+03 -0.11355124964E+04  0.11479466271E+04  0.12509493661E+03 0.  0.
          5    1    3    3  502    0  0.58830383735E+02  0.77770649259E+02 -0.58026289310E+03  0.58841463735E+03  0.41800000000E+01 0.  1.
         -5    1    3    3    0  502 -0.59356474512E+02  0.35117832616E+02 -0.55524960329E+03  0.55953198978E+03  0.41800000000E+01 0.  1.
        -11    1    1    2    0    0  0.17437706529E+02 -0.12347516016E+03 -0.60057411930E+03  0.61338361696E+03  0.00000000000E+00 0.  1.
         11    1    1    2    0    0 -0.16911615752E+02  0.10586678283E+02 -0.11552756832E+03  0.11723779060E+03  0.00000000000E+00 0. -1.
</event>
<event>
 7    1  0.2866286E-009  0.1866881E+03  0.7561462E-02  0.1161483E+00
          1   -1    0    0  501    0  0.00000000000E+00  0.00000000000E+00  0.67052837970E+03  0.67052837970E+03  0.00000000000E+00 0. -1.
         -1   -1    0    0    0  501 -0.00000000000E+00 -0.00000000000E+00 -0.57052426132E+02  0.57052426132E+02  0.00000000000E+00 0.  1.
         25    2    1    2    0    0 -0.43577369500E+02  0.15068688030E+03  0.24347984370E+03  0.31548737784E+03  0.12507728912E+03 0.  0.
          5    1    3    3  502    0 -0.33884967973E+02 -0.62416780811E+01  0.14322764233E+02  0.37546818441E+02  0.41800000000E+01 0.  1.
         -5    1    3    3    0  502 -0.96924015276E+01  0.15692855839E+03  0.22915707947E+03  0.27794055939E+03  0.41800000000E+01 0.  1.
        -11    1    1    2    0    0  0.71936692636E+02 -0.98238430706E+02  0.25347008840E+03  0.28119879575E+03  0.00000000000E+00 0.  1.
         11    1    1    2    0    0 -0.28359323136E+02 -0.52448449598E+02  0.11652602147E+03  0.13089463225E+03  0.00000000000E+00 0. -1.
</event>
<event>
 7    1  0.2856214E-009  0.8466578E+02  0.7561462E-02  0.1316309E+00
          2   -1    0    0  501    0  0.00000000000E+00  0.00000000000E+00  0.28659692673E+03  0.28659692673E+03  0.00000000000E+00 0. -1.
         -2   -1    0    0    0  501 -0.00000000000E+00 -0.00000000000E+00 -0.51530043762E+02  0.51530043762E+02  0.00000000000E+00 0.  1.
         25    2    1    2    0    0 -0.24362522236E+02  0.30616151752E+02  0.18308294679E+03  0.22515584627E+03  0.12507960851E+03 0.  0.
          5    1    3    3  502    0  0.39641649636E+02 -0.85158331688E+00  0.13047964776E+03  0.13643531969E+03  0.41800000000E+01 0.  1.
         -5    1    3    3    0  502 -0.64004171872E+02  0.31467735069E+02  0.52603299035E+02  0.88720526581E+02  0.41800000000E+01 0.  1.
        -11    1    1    2    0    0  0.19464265112E+02  0.65445480365E+01 -0.21962740614E+02  0.30067435884E+02  0.00000000000E+00 0.  1.
         11    1    1    2    0    0  0.48982571240E+01 -0.37160699788E+02  0.73946676788E+02  0.82903688336E+02  0.00000000000E+00 0. -1.
</event>
<event>
 7    1  0.2856214E-009  0.1069532E+03  0.7561462E-02  0.1266318E+00
         -1   -1    0    0    0  501 -0.00000000000E+00  0.00000000000E+00  0.57972306754E+02  0.57972306754E+02  0.00000000000E+00 0.  1.
          1   -1    0    0  501    0  0.00000000000E+00 -0.00000000000E+00 -0.20764405372E+03  0.20764405372E+03  0.00000000000E+00 0. -1.
         25    2    1    2    0    0 -0.13896037769E+02  0.12863978447E+02 -0.76110242752E+02  0.14764319958E+03  0.12508862267E+03 0.  0.
          5    1    3    3  502    0 -0.67588853599E+02 -0.90456641780E+01 -0.43243841807E+02  0.80855299304E+02  0.41800000000E+01 0.  1.
         -5    1    3    3    0  502  0.53692815830E+02  0.21909642625E+02 -0.32866400945E+02  0.66787900272E+02  0.41800000000E+01 0.  1.
        -11    1    1    2    0    0 -0.43432077338E+01  0.35495758258E+02 -0.12289303371E+02  0.37813215746E+02  0.00000000000E+00 0.  1.
         11    1    1    2    0    0  0.18239245503E+02 -0.48359736705E+02 -0.61272200847E+02  0.80159945155E+02  0.00000000000E+00 0. -1.
</event>
<event>
 7    1  0.2856214E-009  0.2928732E+03  0.7561462E-02  0.1088858E+00
          1   -1    0    0  501    0  0.00000000000E+00  0.00000000000E+00  0.11973884616E+04  0.11973884616E+04  0.00000000000E+00 0. -1.
         -1   -1    0    0    0  501 -0.00000000000E+00 -0.00000000000E+00 -0.75747558325E+02  0.75747558325E+02  0.00000000000E+00 0.  1.
         25    2    1    2    0    0 -0.19475964372E+03  0.19504624641E+03  0.46558744894E+03  0.55533188827E+03  0.12508987352E+03 0.  0.
          5    1    3    3  502    0 -0.18772178116E+02  0.94911586965E+02  0.11393960144E+03  0.14953363899E+03  0.41800000000E+01 0.  1.
         -5    1    3    3    0  502 -0.17598746561E+03  0.10013465945E+03  0.35164784750E+03  0.40579824929E+03  0.41800000000E+01 0.  1.
        -11    1    1    2    0    0  0.12376604973E+03 -0.17168099033E+03  0.53739830494E+03  0.57757193115E+03  0.00000000000E+00 0. -1.
         11    1    1    2    0    0  0.70993593991E+02 -0.23365256086E+02  0.11865514941E+03  0.14023220052E+03  0.00000000000E+00 0.  1.
</event>
<event>
 7    1  0.2856214E-009  0.1001246E+03  0.7561462E-02  0.1280034E+00
          2   -1    0    0  501    0  0.00000000000E+00  0.00000000000E+00  0.26123380520E+03  0.26123380520E+03  0.00000000000E+00 0. -1.
         -2   -1    0    0    0  501 -0.00000000000E+00 -0.00000000000E+00 -0.49799442007E+02  0.49799442007E+02  0.00000000000E+00 0.  1.
         25    2    1    2    0    0  0.10724115385E+02 -0.81261941481E+01  0.12163839295E+03  0.17500046141E+03  0.12509285020E+03 0.  0.
          5    1    3    3  502    0  0.97235284491E+01  0.57793284207E+02  0.46321573694E+02  0.74818255088E+02  0.41800000000E+01 0. -1.
         -5    1    3    3    0  502  0.10005869354E+01 -0.65919478355E+02  0.75316819257E+02  0.10018220632E+03  0.41800000000E+01 0. -1.
        -11    1    1    2    0    0  0.31941392253E+02 -0.31380215837E+00  0.86738319491E+02  0.92433149243E+02  0.00000000000E+00 0. -1.
         11    1    1    2    0    0 -0.42665507638E+02  0.84399963065E+01  0.30576507531E+01  0.43599636555E+02  0.00000000000E+00 0.  1.
</event>
<event>
 7    1  0.2856214E-009  0.4086759E+02  0.7561462E-02  0.1501922E+00
         -2   -1    0    0    0  501 -0.00000000000E+00  0.00000000000E+00  0.67763116172E+02  0.67763116172E+02  0.00000000000E+00 0.  1.
          2   -1    0    0  501    0  0.00000000000E+00 -0.00000000000E+00 -0.17375413044E+03  0.17375413044E+03  0.00000000000E+00 0. -1.
         25    2    1    2    0    0 -0.33237813413E+01 -0.10490946863E+02 -0.32933136298E+02  0.12982220733E+03  0.12509239210E+03 0.  0.
          5    1    3    3  502    0  0.47705436916E+00  0.68888682185E+00  0.47867204838E+02  0.48056673262E+02  0.41800000000E+01 0. -1.
         -5    1    3    3    0  502 -0.38008357104E+01 -0.11179833685E+02 -0.80800341137E+02  0.81765534066E+02  0.41800000000E+01 0. -1.
        -11    1    1    2    0    0 -0.91777440893E+01 -0.25364240792E+02 -0.68290791787E+02  0.73424845525E+02  0.00000000000E+00 0. -1.
         11    1    1    2    0    0  0.12501525431E+02  0.35855187655E+02 -0.47670861865E+01  0.38270193762E+02  0.00000000000E+00 0.  1.
</event>
<event>
 7    1  0.2856214E-009  0.1612090E+03  0.7561462E-02  0.1187339E+00
         -2   -1    0    0    0  501 -0.00000000000E+00  0.00000000000E+00  0.30564647176E+03  0.30564647176E+03  0.00000000000E+00 0.  1.
          2   -1    0    0  501    0  0.00000000000E+00 -0.00000000000E+00 -0.11757135013E+03  0.11757135013E+03  0.00000000000E+00 0. -1.
         25    2    1    2    0    0 -0.41562497346E+02 -0.14188881149E+03  0.48820504979E+02  0.19972798086E+03  0.12509176081E+03 0.  0.
          5    1    3    3  502    0 -0.23821546391E+02 -0.82746602760E+02  0.90597863549E+02  0.12505963226E+03  0.41800000000E+01 0.  1.
         -5    1    3    3    0  502 -0.17740950955E+02 -0.59142208733E+02 -0.41777358570E+02  0.74668348607E+02  0.41800000000E+01 0.  1.
        -11    1    1    2    0    0 -0.28563783735E+02  0.24740791156E+02  0.23573652663E+02  0.44538899719E+02  0.00000000000E+00 0. -1.
         11    1    1    2    0    0  0.70126281081E+02  0.11714802034E+03  0.11568096398E+03  0.17895094131E+03  0.00000000000E+00 0.  1.
</event>
<event>
 7    1  0.2856214E-009  0.1941412E+03  0.7561462E-02  0.1154778E+00
         -2   -1    0    0    0  501 -0.00000000000E+00  0.00000000000E+00  0.68911133092E+03  0.68911133092E+03  0.00000000000E+00 0.  1.
          2   -1    0    0  501    0  0.00000000000E+00 -0.00000000000E+00 -0.71366014744E+02  0.71366014744E+02  0.00000000000E+00 0. -1.
         25    2    1    2    0    0 -0.92092789068E+02 -0.16581475719E+03  0.37178112691E+03  0.43571057509E+03  0.12508750305E+03 0.  0.
          5    1    3    3  502    0 -0.67390226679E+02 -0.14291304893E+03  0.36926805542E+03  0.40167393662E+03  0.41800000000E+01 0.  1.
         -5    1    3    3    0  502 -0.24702562389E+02 -0.22901708257E+02  0.25130714834E+01  0.34036638465E+02  0.41800000000E+01 0.  1.
        -11    1    1    2    0    0  0.46372982382E+02  0.36178204260E+02  0.23662611628E+02  0.63397438020E+02  0.00000000000E+00 0. -1.
         11    1    1    2    0    0  0.45719806685E+02  0.12963655293E+03  0.22230157764E+03  0.26136933256E+03  0.00000000000E+00 0.  1.
</event>
<event>
 7    1  0.2856214E-009  0.1073282E+03  0.7561462E-02  0.1265599E+00
          1   -1    0    0  501    0  0.00000000000E+00  0.00000000000E+00  0.36830016013E+03  0.36830016013E+03  0.00000000000E+00 0. -1.
         -1   -1    0    0    0  501 -0.00000000000E+00 -0.00000000000E+00 -0.56606908099E+02  0.56606908099E+02  0.00000000000E+00 0.  1.
         25    2    1    2    0    0  0.72280018221E+02 -0.50493804437E+02  0.11566156150E+03  0.19183392468E+03  0.12509449440E+03 0.  0.
          5    1    3    3  502    0  0.39949129901E+02 -0.26986109892E+02 -0.18481008674E+02  0.51799644676E+02  0.41800000000E+01 0. -1.
         -5    1    3    3    0  502  0.32330888320E+02 -0.23507694545E+02  0.13414257018E+03  0.14003428000E+03  0.41800000000E+01 0. -1.
        -11    1    1    2    0    0 -0.43994704123E+02 -0.21321583047E+02  0.75912854136E+02  0.90293440058E+02  0.00000000000E+00 0.  1.
         11    1    1    2    0    0 -0.28285314098E+02  0.71815387484E+02  0.12011883639E+03  0.14277970349E+03  0.00000000000E+00 0. -1.
</event>
<event>
 7    1  0.2856214E-009  0.8800217E+02  0.7561462E-02  0.1307763E+00
         -2   -1    0    0    0  501 -0.00000000000E+00  0.00000000000E+00  0.16513628180E+03  0.16513628180E+03  0.00000000000E+00 0. -1.
          2   -1    0    0  501    0  0.00000000000E+00 -0.00000000000E+00 -0.11274707501E+03  0.11274707501E+03  0.00000000000E+00 0.  1.
         25    2    1    2    0    0  0.50250203984E+02 -0.35907990731E+02 -0.28237772084E+02  0.14233452619E+03  0.12508908335E+03 0.  0.
          5    1    3    3  502    0  0.35253306798E+01 -0.15142881863E+02  0.47895782340E+02  0.50529330032E+02  0.41800000000E+01 0. -1.
         -5    1    3    3    0  502  0.46724873304E+02 -0.20765108868E+02 -0.76133554424E+02  0.91805196153E+02  0.41800000000E+01 0. -1.
        -11    1    1    2    0    0 -0.68142797888E+02 -0.37927826511E+00  0.45200961345E+02  0.81772315991E+02  0.00000000000E+00 0.  1.
         11    1    1    2    0    0  0.17892593905E+02  0.36287268997E+02  0.35426017534E+02  0.53776514634E+02  0.00000000000E+00 0. -1.
</event>
<event>
 7    1  0.2856214E-009  0.1802998E+03  0.7561462E-02  0.1167513E+00
         -3   -1    0    0    0  501 -0.00000000000E+00  0.00000000000E+00  0.11960167969E+04  0.11960167969E+04  0.00000000000E+00 0.  1.
          3   -1    0    0  501    0  0.00000000000E+00 -0.00000000000E+00 -0.35630085224E+02  0.35630085224E+02  0.00000000000E+00 0. -1.
         25    2    1    2    0    0  0.13375813652E+02  0.16317116414E+03  0.42623475180E+03  0.47342249683E+03  0.12509618563E+03 0.  0.
          5    1    3    3  502    0 -0.15525830887E+02  0.24200598242E+02  0.22647741746E+03  0.22833355732E+03  0.41800000000E+01 0.  1.
         -5    1    3    3    0  502  0.28901644539E+02  0.13897056590E+03  0.19975733434E+03  0.24508893950E+03  0.41800000000E+01 0.  1.
        -11    1    1    2    0    0 -0.38574363743E+02 -0.18665933229E+02  0.16553898496E+03  0.17099577229E+03  0.00000000000E+00 0.  1.
         11    1    1    2    0    0  0.25198550092E+02 -0.14450523091E+03  0.56861297493E+03  0.58722861301E+03  0.00000000000E+00 0. -1.
</event>
<event>
 7    1  0.2856214E-009  0.1224623E+03  0.7561462E-02  0.1239089E+00
          2   -1    0    0  501    0  0.00000000000E+00  0.00000000000E+00  0.50206877362E+03  0.50206877362E+03  0.00000000000E+00 0. -1.
         -2   -1    0    0    0  501 -0.00000000000E+00 -0.00000000000E+00 -0.37211633800E+02  0.37211633800E+02  0.00000000000E+00 0.  1.
         25    2    1    2    0    0  0.60546516127E+02  0.67513633580E+02  0.30107568671E+03  0.33840532470E+03  0.12509046056E+03 0.  0.
          5    1    3    3  502    0 -0.19626629700E+02  0.70999612947E+02  0.15577022757E+03  0.17236004708E+03  0.41800000000E+01 0.  1.
         -5    1    3    3    0  502  0.80173145827E+02 -0.34859793676E+01  0.14530545914E+03  0.16604527762E+03  0.41800000000E+01 0.  1.
        -11    1    1    2    0    0 -0.22849942528E+02 -0.22432221015E+02  0.60965851941E+01  0.32595901034E+02  0.00000000000E+00 0.  1.
         11    1    1    2    0    0 -0.37696573600E+02 -0.45081412565E+02  0.15768486792E+03  0.16827918169E+03  0.00000000000E+00 0. -1.
</event>
<event>
 7    1  0.2856214E-009  0.2490789E+03  0.7561462E-02  0.1113888E+00
          1   -1    0    0  501    0  0.00000000000E+00  0.00000000000E+00  0.75077463181E+03  0.75077463181E+03  0.00000000000E+00 0. -1.
         -1   -1    0    0    0  501 -0.00000000000E+00 -0.00000000000E+00 -0.94392180594E+02  0.94392180594E+02  0.00000000000E+00 0.  1.
         25    2    1    2    0    0  0.22564948714E+03 -0.42628242552E+02  0.21239335164E+03  0.33688912649E+03  0.12509392320E+03 0.  0.
          5    1    3    3  502    0  0.35334312612E+02  0.39739189297E+02  0.54070076060E+02  0.75952368882E+02  0.41800000000E+01 0. -1.
         -5    1    3    3    0  502  0.19031517452E+03 -0.82367431848E+02  0.15832327558E+03  0.26093675761E+03  0.41800000000E+01 0. -1.
        -11    1    1    2    0    0 -0.19367332292E+03  0.57650623201E+02  0.31262931700E+03  0.37224997006E+03  0.00000000000E+00 0.  1.
         11    1    1    2    0    0 -0.31976164214E+02 -0.15022380650E+02  0.13135978258E+03  0.13602771585E+03  0.00000000000E+00 0. -1.
</event>
<event>
 7    1  0.2856214E-009  0.1087610E+03  0.7561462E-02  0.1262882E+00
          1   -1    0    0  501    0  0.00000000000E+00  0.00000000000E+00  0.32115352177E+03  0.32115352177E+03  0.00000000000E+00 0. -1.
         -1   -1    0    0    0  501 -0.00000000000E+00 -0.00000000000E+00 -0.43632198966E+02  0.43632198966E+02  0.00000000000E+00 0.  1.
         25    2    1    2    0    0 -0.98698417224E+01 -0.25361613334E+02  0.97768600442E+02  0.16108130533E+03  0.12509141652E+03 0.  0.
          5    1    3    3  502    0 -0.48442750462E+02 -0.58611866999E+02  0.67021349746E+02  0.10144646247E+03  0.41800000000E+01 0.  1.
         -5    1    3    3    0  502  0.38572908740E+02  0.33250253666E+02  0.30747250696E+02  0.59634842859E+02  0.41800000000E+01 0.  1.
        -11    1    1    2    0    0 -0.16183993506E+02 -0.27174399260E+02  0.33197700935E+02  0.45852556836E+02  0.00000000000E+00 0.  1.
         11    1    1    2    0    0  0.26053835229E+02  0.52536012594E+02  0.14655502143E+03  0.15785185858E+03  0.00000000000E+00 0. -1.
</event>
<event>
 7    1  0.2856214E-009  0.9450957E+02  0.7561462E-02  0.1292285E+00
         -4   -1    0    0    0  501 -0.00000000000E+00  0.00000000000E+00  0.74313129109E+02  0.74313129109E+02  0.00000000000E+00 0.  1.
          4   -1    0    0  501    0  0.00000000000E+00 -0.00000000000E+00 -0.17056067052E+03  0.17056067052E+03  0.00000000000E+00 0. -1.
         25    2    1    2    0    0 -0.35595767580E+02  0.20702629686E+02 -0.72478346483E+02  0.15032747555E+03  0.12509828796E+03 0.  0.
          5    1    3    3  502    0 -0.51344774602E+01  0.67508751658E+02 -0.64785616356E+02  0.93800015436E+02  0.41800000000E+01 0.  1.
         -5    1    3    3    0  502 -0.30461290120E+02 -0.46806121972E+02 -0.76927301269E+01  0.56527460111E+02  0.41800000000E+01 0.  1.
        -11    1    1    2    0    0  0.39890808250E+02 -0.33244770092E+02 -0.45532564752E+02  0.69063056508E+02  0.00000000000E+00 0. -1.
         11    1    1    2    0    0 -0.42950406703E+01  0.12542140406E+02  0.21763369821E+02  0.25483267575E+02  0.00000000000E+00 0.  1.
</event>
<event>
 7    1  0.2856214E-009  0.9614233E+02  0.7561462E-02  0.1288624E+00
         -1   -1    0    0    0  501 -0.00000000000E+00  0.00000000000E+00  0.41755206741E+02  0.41755206741E+02  0.00000000000E+00 0.  1.
          1   -1    0    0  501    0  0.00000000000E+00 -0.00000000000E+00 -0.29677241645E+03  0.29677241645E+03  0.00000000000E+00 0. -1.
         25    2    1    2    0    0  0.79133762064E+01  0.11160668595E+02 -0.11466467590E+03  0.17023846871E+03  0.12508383703E+03 0.  0.
          5    1    3    3  502    0  0.52263813257E+02 -0.29588501295E+02 -0.81595862462E+02  0.10140188734E+03  0.41800000000E+01 0. -1.
         -5    1    3    3    0  502 -0.44350437050E+02  0.40749169890E+02 -0.33068813435E+02  0.68836581374E+02  0.41800000000E+01 0. -1.
        -11    1    1    2    0    0 -0.10994988276E+02  0.29214679595E+02 -0.11795368851E+03  0.12201417911E+03  0.00000000000E+00 0. -1.
         11    1    1    2    0    0  0.30816120701E+01 -0.40375348191E+02 -0.22398845306E+02  0.46274975370E+02  0.00000000000E+00 0.  1.
</event>
<event>
 7    1  0.2856214E-009  0.1928690E+03  0.7561462E-02  0.1155899E+00
          3   -1    0    0  501    0  0.00000000000E+00  0.00000000000E+00  0.60264319319E+03  0.60264319319E+03  0.00000000000E+00 0. -1.
         -3   -1    0    0    0  501 -0.00000000000E+00 -0.00000000000E+00 -0.64542537978E+02  0.64542537978E+02  0.00000000000E+00 0.  1.
         25    2    1    2    0    0  0.73001662484E+02 -0.14643715801E+03  0.26710484747E+03  0.33729203396E+03  0.12509129730E+03 0.  0.
          5    1    3    3  502    0  0.37481554870E+02 -0.15625307429E+03  0.17303292762E+03  0.23617314967E+03  0.41800000000E+01 0. -1.
         -5    1    3    3    0  502  0.35520107614E+02  0.98159162836E+01  0.94071919845E+02  0.10111888429E+03  0.41800000000E+01 0. -1.
        -11    1    1    2    0    0 -0.66305346728E+02  0.32617695718E+02  0.98928889547E+02  0.12347970791E+03  0.00000000000E+00 0.  1.
         11    1    1    2    0    0 -0.66963157564E+01  0.11381946229E+03  0.17206691819E+03  0.20641398930E+03  0.00000000000E+00 0. -1.
</event>
<event>
 7    1  0.2856214E-009  0.6647091E+02  0.7561462E-02  0.1372522E+00
         -2   -1    0    0    0  501 -0.00000000000E+00  0.00000000000E+00  0.27686862064E+02  0.27686862064E+02  0.00000000000E+00 0.  1.
          2   -1    0    0  501    0  0.00000000000E+00 -0.00000000000E+00 -0.55992962471E+03  0.55992962471E+03  0.00000000000E+00 0. -1.
         25    2    1    2    0    0 -0.28209079473E+02  0.28622077871E+02 -0.40778570430E+03  0.42842957605E+03  0.12509094889E+03 0.  0.
          5    1    3    3  502    0 -0.20550242072E+02  0.26049082077E+02 -0.16957068239E+02  0.37495088873E+02  0.41800000000E+01 0.  1.
         -5    1    3    3    0  502 -0.76588374005E+01  0.25729957936E+01 -0.39082863606E+03  0.39093448717E+03  0.41800000000E+01 0.  1.
        -11    1    1    2    0    0 -0.27931416786E+02 -0.18106189824E+02 -0.16729278411E+02  0.37254085813E+02  0.00000000000E+00 0.  1.
         11    1    1    2    0    0  0.56140496259E+02 -0.10515888047E+02 -0.10772777994E+03  0.12193282492E+03  0.00000000000E+00 0. -1.
</event>
<event>
 7    1  0.2856214E-009  0.1238285E+03  0.7561462E-02  0.1236912E+00
          2   -1    0    0  501    0  0.00000000000E+00  0.00000000000E+00  0.73717594431E+02  0.73717594431E+02  0.00000000000E+00 0. -1.
         -2   -1    0    0    0  501 -0.00000000000E+00 -0.00000000000E+00 -0.27070008852E+03  0.27070008852E+03  0.00000000000E+00 0.  1.
         25    2    1    2    0    0  0.59997438553E+02  0.18471211743E+02 -0.18666598417E+03  0.23330783182E+03  0.12508987349E+03 0.  0.
          5    1    3    3  502    0  0.48194989685E+01  0.66077614517E+02 -0.99515119180E+02  0.11962529020E+03  0.41800000000E+01 0.  1.
         -5    1    3    3    0  502  0.55177939585E+02 -0.47606402773E+02 -0.87150864987E+02  0.11368254162E+03  0.41800000000E+01 0.  1.
        -11    1    1    2    0    0 -0.75304168654E+02 -0.37279086276E+02  0.17059532698E+01  0.84043788389E+02  0.00000000000E+00 0. -1.
         11    1    1    2    0    0  0.15306730101E+02  0.18807874533E+02 -0.12022463190E+02  0.27066062735E+02  0.00000000000E+00 0.  1.
</event>
<event>
 7    1  0.2856214E-009  0.5536270E+02  0.7561462E-02  0.1418391E+00
         -1   -1    0    0    0  501 -0.00000000000E+00  0.00000000000E+00  0.74696843373E+02  0.74696843373E+02  0.00000000000E+00 0.  1.
          1   -1    0    0  501    0  0.00000000000E+00 -0.00000000000E+00 -0.16917620780E+03  0.16917620780E+03  0.00000000000E+00 0. -1.
         25    2    1    2    0    0 -0.31201668908E+02 -0.23926095570E+01 -0.70217788306E+02  0.14682731233E+03  0.12509377734E+03 0.  0.
          5    1    3    3  502    0 -0.21443889235E+02 -0.80649605636E+01 -0.10628414679E+03  0.10880568107E+03  0.41800000000E+01 0. -1.
         -5    1    3    3    0  502 -0.97577796736E+01  0.56723510065E+01  0.36066358481E+02  0.38021631266E+02  0.41800000000E+01 0. -1.
        -11    1    1    2    0    0  0.34773954727E+01  0.33529852715E+02 -0.40154171610E+02  0.52428053559E+02  0.00000000000E+00 0. -1.
         11    1    1    2    0    0  0.27724273436E+02 -0.31137243158E+02  0.15892595483E+02  0.44617685285E+02  0.00000000000E+00 0.  1.
</event>
