<event>
 7    1  0.5107591E-006  0.1530053E+03  0.7546771E-02  0.1205764E+00
         -1   -1    0    0    0  501 -0.00000000000E+00  0.00000000000E+00  0.70338413884E+03  0.70338413884E+03  0.00000000000E+00 0.  1.
          1   -1    0    0  501    0  0.00000000000E+00 -0.00000000000E+00 -0.27835276747E+02  0.27835276747E+02  0.00000000000E+00 0. -1.
         23    2    1    2    0    0  0.15076376456E+02  0.87234043348E+02  0.27827668889E+03  0.30550143775E+03  0.89755988315E+02 0.  0.
          5    1    1    2  502    0 -0.29567186912E+02 -0.48022689322E+02  0.48828799011E+02  0.74744490396E+02  0.47000000000E+01 0.  1.
         -5    1    1    2    0  502  0.14490810456E+02 -0.39211354025E+02  0.34844337419E+03  0.35097348744E+03  0.47000000000E+01 0.  1.
        -11    1    3    3    0    0  0.36595883524E+02  0.95904770668E+02  0.21970415178E+03  0.24250133615E+03  0.00000000000E+00 0.  1.
         11    1    3    3    0    0 -0.21519507068E+02 -0.86707273201E+01  0.58572537114E+02  0.63000101592E+02  0.00000000000E+00 0. -1.
<mgrwt>
<rscale>  0 0.14577441E+03</rscale>
<asrwt>0</asrwt>
<pdfrwt beam="2">  1        1 0.42823508E-02 0.15300528E+03</pdfrwt>
<pdfrwt beam="1">  1       -1 0.10821293E+00 0.15300528E+03</pdfrwt>
<totfact> 0.17040328E+03</totfact>
</mgrwt>
</event>
<event>
 7    1  0.5107591E-006  0.1260938E+03  0.7546771E-02  0.1249030E+00
         -2   -1    0    0    0  501 -0.00000000000E+00  0.00000000000E+00  0.34811224620E+03  0.34811224620E+03  0.00000000000E+00 0.  1.
          2   -1    0    0  501    0  0.00000000000E+00 -0.00000000000E+00 -0.84020703376E+02  0.84020703376E+02  0.00000000000E+00 0. -1.
         23    2    1    2    0    0 -0.15533367954E+02  0.58470752872E+01 -0.42102460680E+02  0.10099185201E+03  0.90284346199E+02 0.  0.
          5    1    1    2  502    0 -0.33333221661E+02  0.16669131397E+02  0.25746945755E+02  0.45540738065E+02  0.47000000000E+01 0.  1.
         -5    1    1    2    0  502  0.48866589615E+02 -0.22516206684E+02  0.28044705775E+03  0.28560035950E+03  0.47000000000E+01 0.  1.
        -11    1    3    3    0    0  0.13432318301E+02  0.17492248023E+02  0.21085585482E+02  0.30512420929E+02  0.00000000000E+00 0.  1.
         11    1    3    3    0    0 -0.28965686255E+02 -0.11645172736E+02 -0.63188046162E+02  0.70479431085E+02  0.00000000000E+00 0. -1.
<mgrwt>
<rscale>  0 0.11647370E+03</rscale>
<asrwt>0</asrwt>
<pdfrwt beam="2">  1        2 0.12926262E-01 0.12609385E+03</pdfrwt>
<pdfrwt beam="1">  1       -2 0.53555729E-01 0.12609385E+03</pdfrwt>
<totfact> 0.15113408E+03</totfact>
</mgrwt>
</event>
<event>
 7    1  0.5107591E-006  0.1354396E+03  0.7546771E-02  0.1232847E+00
          3   -1    0    0  501    0  0.00000000000E+00  0.00000000000E+00  0.22515406102E+03  0.22515406102E+03  0.00000000000E+00 0. -1.
         -3   -1    0    0    0  501 -0.00000000000E+00 -0.00000000000E+00 -0.10995056363E+03  0.10995056363E+03  0.00000000000E+00 0.  1.
         23    2    1    2    0    0 -0.47610770718E+02 -0.21190594668E+02  0.16192985285E+03  0.19183130770E+03  0.88668746345E+02 0.  0.
          5    1    1    2  502    0  0.45651447413E+02  0.42027928973E+02 -0.81423713838E+02  0.10248079156E+03  0.47000000000E+01 0. -1.
         -5    1    1    2    0  502  0.19593233044E+01 -0.20837334305E+02  0.34697358385E+02  0.40792525390E+02  0.47000000000E+01 0. -1.
        -11    1    3    3    0    0 -0.49990467443E+02 -0.51537360635E+02  0.10378038326E+03  0.12619633246E+03  0.00000000000E+00 0. -1.
         11    1    3    3    0    0  0.23796967250E+01  0.30346765967E+02  0.58149469585E+02  0.65634975236E+02  0.00000000000E+00 0.  1.
<mgrwt>
<rscale>  0 0.12643276E+03</rscale>
<asrwt>0</asrwt>
<pdfrwt beam="1">  1        3 0.34639086E-01 0.13543962E+03</pdfrwt>
<pdfrwt beam="2">  1       -3 0.16915471E-01 0.13543962E+03</pdfrwt>
<totfact> 0.57169751E+02</totfact>
</mgrwt>
</event>
<event>
 7    1  0.5107591E-006  0.1254467E+03  0.7546771E-02  0.1247558E+00
          2   -1    0    0  501    0  0.00000000000E+00  0.00000000000E+00  0.70396070199E+02  0.70396070199E+02  0.00000000000E+00 0. -1.
         -2   -1    0    0    0  501 -0.00000000000E+00 -0.00000000000E+00 -0.26357963030E+03  0.26357963030E+03  0.00000000000E+00 0.  1.
         23    2    1    2    0    0 -0.73305955362E+01 -0.80352571420E+01  0.85743110254E+01  0.96398105707E+02  0.95397971603E+02 0.  0.
          5    1    1    2  502    0 -0.48453891422E+02 -0.20640154334E+02 -0.13903185772E+03  0.14874724544E+03  0.47000000000E+01 0.  1.
         -5    1    1    2    0  502  0.55784486959E+02  0.28675411476E+02 -0.62726013416E+02  0.88830349361E+02  0.47000000000E+01 0.  1.
        -11    1    3    3    0    0 -0.17654384710E+02  0.37401947906E+02  0.23376277874E+02  0.47508245326E+02  0.00000000000E+00 0.  1.
         11    1    3    3    0    0  0.10323789174E+02 -0.45437205048E+02 -0.14801966849E+02  0.48889860381E+02  0.00000000000E+00 0. -1.
<mgrwt>
<rscale>  0 0.11733575E+03</rscale>
<asrwt>0</asrwt>
<pdfrwt beam="1">  1        2 0.10830165E-01 0.12544670E+03</pdfrwt>
<pdfrwt beam="2">  1       -2 0.40550712E-01 0.12544670E+03</pdfrwt>
<totfact> 0.32121854E+03</totfact>
</mgrwt>
</event>
<event>
 7    1  0.5107591E-006  0.2022913E+03  0.7546771E-02  0.1151631E+00
         -2   -1    0    0    0  501 -0.00000000000E+00  0.00000000000E+00  0.72893620830E+02  0.72893620830E+02  0.00000000000E+00 0.  1.
          2   -1    0    0  501    0  0.00000000000E+00 -0.00000000000E+00 -0.56593949393E+03  0.56593949393E+03  0.00000000000E+00 0. -1.
         23    2    1    2    0    0 -0.13422113463E+03 -0.85333370860E+02 -0.33314800832E+03  0.38097827955E+03  0.94126281525E+02 0.  0.
          5    1    1    2  502    0  0.13846338881E+03  0.69170245709E+02 -0.76587573670E+02  0.17275525860E+03  0.47000000000E+01 0. -1.
         -5    1    1    2    0  502 -0.42422541803E+01  0.16163125151E+02 -0.83310291110E+02  0.85099576615E+02  0.47000000000E+01 0. -1.
        -11    1    3    3    0    0 -0.16202182518E+02 -0.71304895402E+01  0.13491120046E+01  0.17753160356E+02  0.00000000000E+00 0.  1.
         11    1    3    3    0    0 -0.11801895212E+03 -0.78202881320E+02 -0.33449712033E+03  0.36322511919E+03  0.00000000000E+00 0. -1.
<mgrwt>
<rscale>  0 0.19777332E+03</rscale>
<asrwt>0</asrwt>
<pdfrwt beam="2">  1        2 0.87067617E-01 0.20229135E+03</pdfrwt>
<pdfrwt beam="1">  1       -2 0.11214403E-01 0.20229135E+03</pdfrwt>
<totfact> 0.29476085E+03</totfact>
</mgrwt>
</event>
<event>
 7    1  0.5107591E-006  0.1541956E+03  0.7546771E-02  0.1215227E+00
          3   -1    0    0  501    0  0.00000000000E+00  0.00000000000E+00  0.12244523093E+03  0.12244523093E+03  0.00000000000E+00 0. -1.
         -3   -1    0    0    0  501 -0.00000000000E+00 -0.00000000000E+00 -0.13483445198E+03  0.13483445198E+03  0.00000000000E+00 0.  1.
         23    2    1    2    0    0  0.38727524933E+02  0.17043283138E+02  0.11268192900E+02  0.10127980480E+03  0.91325418158E+02 0.  0.
          5    1    1    2  502    0  0.30474421497E+02 -0.55826695821E+02 -0.39431360113E+02  0.74981547678E+02  0.47000000000E+01 0. -1.
         -5    1    1    2    0  502 -0.69201946430E+02  0.38783412683E+02  0.15773946167E+02  0.81018330436E+02  0.47000000000E+01 0.  1.
        -11    1    3    3    0    0  0.90840165837E+01 -0.14222016608E+02  0.44030568921E+02  0.47153749726E+02  0.00000000000E+00 0. -1.
         11    1    3    3    0    0  0.29643508349E+02  0.31265299746E+02 -0.32762376021E+02  0.54126055075E+02  0.00000000000E+00 0.  1.
<mgrwt>
<rscale>  0 0.13859851E+03</rscale>
<asrwt>0</asrwt>
<pdfrwt beam="1">  1        3 0.18837728E-01 0.15419562E+03</pdfrwt>
<pdfrwt beam="2">  1       -3 0.20743762E-01 0.15419562E+03</pdfrwt>
<totfact> 0.12325504E+03</totfact>
</mgrwt>
</event>
<event>
 7    1  0.5107591E-006  0.1415144E+03  0.7546771E-02  0.1221490E+00
          2   -1    0    0  501    0  0.00000000000E+00  0.00000000000E+00  0.10972558456E+03  0.10972558456E+03  0.00000000000E+00 0.  1.
         -2   -1    0    0    0  501 -0.00000000000E+00 -0.00000000000E+00 -0.15778502783E+03  0.15778502783E+03  0.00000000000E+00 0. -1.
         23    2    1    2    0    0 -0.64806602515E+02 -0.14200028050E+02  0.99823494735E+01  0.11455583438E+03  0.92853946406E+02 0.  0.
          5    1    1    2  502    0 -0.15090815260E+02  0.49641581572E+02 -0.33897486883E+02  0.62154235118E+02  0.47000000000E+01 0.  1.
         -5    1    1    2    0  502  0.79897417775E+02 -0.35441553522E+02 -0.24144305859E+02  0.90800542887E+02  0.47000000000E+01 0.  1.
        -11    1    3    3    0    0 -0.41818008948E+02  0.12591257690E+02  0.46480187079E+02  0.63778471552E+02  0.00000000000E+00 0.  1.
         11    1    3    3    0    0 -0.22988593568E+02 -0.26791285740E+02 -0.36497837606E+02  0.50777362827E+02  0.00000000000E+00 0. -1.
<mgrwt>
<rscale>  0 0.13410374E+03</rscale>
<asrwt>0</asrwt>
<pdfrwt beam="1">  1        2 0.16880859E-01 0.14151436E+03</pdfrwt>
<pdfrwt beam="2">  1       -2 0.24274620E-01 0.14151436E+03</pdfrwt>
<totfact> 0.48502753E+03</totfact>
</mgrwt>
</event>
<event>
 7    1  0.5107591E-006  0.5399016E+03  0.7546771E-02  0.1003859E+00
          2   -1    0    0  501    0  0.00000000000E+00  0.00000000000E+00  0.97274374251E+03  0.97274374251E+03  0.00000000000E+00 0. -1.
         -2   -1    0    0    0  501 -0.00000000000E+00 -0.00000000000E+00 -0.74915340779E+02  0.74915340779E+02  0.00000000000E+00 0.  1.
         23    2    1    2    0    0 -0.13094929093E+03 -0.65293723410E+01  0.42872914054E+03  0.45608313829E+03  0.83742483742E+02 0.  0.
          5    1    1    2  502    0 -0.65397777872E+02 -0.92191218277E+02  0.27861922645E+03  0.30071058084E+03  0.47000000000E+01 0. -1.
         -5    1    1    2    0  502  0.19634706880E+03  0.98720590618E+02  0.19048003474E+03  0.29086536416E+03  0.47000000000E+01 0.  1.
        -11    1    3    3    0    0 -0.90580339515E+02  0.27116818108E+02  0.34054563100E+03  0.35342813487E+03  0.00000000000E+00 0. -1.
         11    1    3    3    0    0 -0.40368951411E+02 -0.33646190449E+02  0.88183509545E+02  0.10265500341E+03  0.00000000000E+00 0.  1.
<mgrwt>
<rscale>  0 0.53990158E+03</rscale>
<asrwt>0</asrwt>
<pdfrwt beam="1">  1        2 0.14965287E+00 0.53990158E+03</pdfrwt>
<pdfrwt beam="2">  1       -2 0.11525438E-01 0.53990158E+03</pdfrwt>
<totfact> 0.14369732E+03</totfact>
</mgrwt>
</event>
<event>
 6    1  0.9187267E-006  0.1633793E+03  0.7546771E-02  0.1260202E+00
         -4   -1    0    0    0  501 -0.00000000000E+00  0.00000000000E+00  0.30383363418E+02  0.30383363418E+02  0.00000000000E+00 0.  1.
          4   -1    0    0  501    0  0.00000000000E+00 -0.00000000000E+00 -0.35779367191E+03  0.35779367191E+03  0.00000000000E+00 0. -1.
          5    1    1    2  502    0 -0.75613269280E+02 -0.32572415433E+02 -0.69241710503E+02  0.10767930726E+03  0.47000000000E+01 0. -1.
         -5    1    1    2    0  502  0.72292226808E+02  0.35145631139E+01 -0.14119697210E+03  0.15873623764E+03  0.47000000000E+01 0.  1.
        -11    1    1    2    0    0  0.57929325763E+01  0.11076160790E+02 -0.74982808535E+02  0.76017504442E+02  0.00000000000E+00 0. -1.
         11    1    1    2    0    0 -0.24718901033E+01  0.17981691530E+02 -0.41988817350E+02  0.45743985981E+02  0.00000000000E+00 0.  1.
<mgrwt>
<rscale>  0 0.11019891E+03</rscale>
<asrwt>0</asrwt>
<pdfrwt beam="2">  1        4 0.55045177E-01 0.16337932E+03</pdfrwt>
<pdfrwt beam="1">  1       -4 0.46743639E-02 0.16337932E+03</pdfrwt>
<totfact> 0.14513769E+03</totfact>
</mgrwt>
</event>
<event>
 7    1  0.5107591E-006  0.1523776E+03  0.7546771E-02  0.1205800E+00
         -2   -1    0    0    0  501 -0.00000000000E+00  0.00000000000E+00  0.31275771499E+02  0.31275771499E+02  0.00000000000E+00 0.  1.
          2   -1    0    0  501    0  0.00000000000E+00 -0.00000000000E+00 -0.70479845821E+03  0.70479845821E+03  0.00000000000E+00 0. -1.
         23    2    1    2    0    0 -0.42587120768E+02  0.76030090804E+02 -0.43260644688E+03  0.45101360649E+03  0.93116581723E+02 0.  0.
          5    1    1    2  502    0  0.65159728593E+02 -0.28536189707E+02 -0.50248851081E+02  0.87218927924E+02  0.47000000000E+01 0.  1.
         -5    1    1    2    0  502 -0.22572607825E+02 -0.47493901097E+02 -0.19066738875E+03  0.19784169530E+03  0.47000000000E+01 0.  1.
        -11    1    3    3    0    0  0.21977336817E+02  0.51829251005E+02 -0.15292314592E+03  0.16295632283E+03  0.00000000000E+00 0.  1.
         11    1    3    3    0    0 -0.64564457585E+02  0.24200839799E+02 -0.27968330096E+03  0.28805728366E+03  0.00000000000E+00 0. -1.
<mgrwt>
<rscale>  0 0.14574623E+03</rscale>
<asrwt>0</asrwt>
<pdfrwt beam="2">  1        2 0.10843053E+00 0.15237757E+03</pdfrwt>
<pdfrwt beam="1">  1       -2 0.48116571E-02 0.15237757E+03</pdfrwt>
<totfact> 0.83522212E+03</totfact>
</mgrwt>
</event>
<event>
 7    1  0.5107591E-006  0.1497240E+03  0.7546771E-02  0.1209714E+00
         -2   -1    0    0    0  501 -0.00000000000E+00  0.00000000000E+00  0.30451273331E+03  0.30451273331E+03  0.00000000000E+00 0.  1.
          2   -1    0    0  501    0  0.00000000000E+00 -0.00000000000E+00 -0.62522825156E+02  0.62522825156E+02  0.00000000000E+00 0. -1.
         23    2    1    2    0    0  0.79829167706E+02  0.20483483397E+02  0.84532140895E+02  0.14975643512E+03  0.92135975093E+02 0.  0.
          5    1    1    2  502    0 -0.57642425524E+02 -0.65563649174E+02  0.13765079685E+03  0.16306769510E+03  0.47000000000E+01 0. -1.
         -5    1    1    2    0  502 -0.22186742182E+02  0.45080165777E+02  0.19806970408E+02  0.54211428240E+02  0.47000000000E+01 0. -1.
        -11    1    3    3    0    0  0.81334463915E+02 -0.17672911379E+02  0.70488063265E+02  0.10906967443E+03  0.00000000000E+00 0.  1.
         11    1    3    3    0    0 -0.15052962092E+01  0.38156394776E+02  0.14044077630E+02  0.40686760691E+02  0.00000000000E+00 0. -1.
<mgrwt>
<rscale>  0 0.14272123E+03</rscale>
<asrwt>0</asrwt>
<pdfrwt beam="2">  1        2 0.96188963E-02 0.14972398E+03</pdfrwt>
<pdfrwt beam="1">  1       -2 0.46848112E-01 0.14972398E+03</pdfrwt>
<totfact> 0.28431000E+03</totfact>
</mgrwt>
</event>
<event>
 7    1  0.5107591E-006  0.1381856E+03  0.7546771E-02  0.1227260E+00
          1   -1    0    0  501    0  0.00000000000E+00  0.00000000000E+00  0.45512002965E+03  0.45512002965E+03  0.00000000000E+00 0. -1.
         -1   -1    0    0    0  501 -0.00000000000E+00 -0.00000000000E+00 -0.33843006344E+02  0.33843006344E+02  0.00000000000E+00 0.  1.
         23    2    1    2    0    0  0.43945877774E+02  0.39241359518E+02  0.16044663877E+03  0.19378893681E+03  0.91323073019E+02 0.  0.
          5    1    1    2  502    0 -0.66635189423E+02 -0.44021721176E+02  0.25941727421E+03  0.27147296838E+03  0.47000000000E+01 0. -1.
         -5    1    1    2    0  502  0.22689311648E+02  0.47803616581E+01  0.14131103262E+01  0.23701130805E+02  0.47000000000E+01 0. -1.
        -11    1    3    3    0    0 -0.72639125823E+00  0.20087940584E+02 -0.55250457316E+01  0.20846561623E+02  0.00000000000E+00 0.  1.
         11    1    3    3    0    0  0.44672269033E+02  0.19153418934E+02  0.16597168451E+03  0.17294237519E+03  0.00000000000E+00 0. -1.
<mgrwt>
<rscale>  0 0.13013168E+03</rscale>
<asrwt>0</asrwt>
<pdfrwt beam="1">  1        1 0.70018462E-01 0.13818560E+03</pdfrwt>
<pdfrwt beam="2">  1       -1 0.52066167E-02 0.13818560E+03</pdfrwt>
<totfact> 0.80977129E+03</totfact>
</mgrwt>
</event>
<event>
 7    1  0.5107591E-006  0.1827082E+03  0.7546771E-02  0.1171612E+00
          2   -1    0    0  501    0  0.00000000000E+00  0.00000000000E+00  0.31338862594E+03  0.31338862594E+03  0.00000000000E+00 0. -1.
         -2   -1    0    0    0  501 -0.00000000000E+00 -0.00000000000E+00 -0.19616045977E+03  0.19616045977E+03  0.00000000000E+00 0.  1.
         23    2    1    2    0    0  0.66335516501E+02  0.11556229439E+03  0.24159134949E+03  0.28853218597E+03  0.84435759953E+02 0.  0.
          5    1    1    2  502    0 -0.19939788599E+02 -0.12690894498E+03 -0.11421683755E+03  0.17196235479E+03  0.47000000000E+01 0.  1.
         -5    1    1    2    0  502 -0.46395727902E+02  0.11346650587E+02 -0.10146345775E+02  0.49054544945E+02  0.47000000000E+01 0.  1.
        -11    1    3    3    0    0  0.33053311917E+02  0.97281075530E+02  0.22449425671E+03  0.24688823459E+03  0.00000000000E+00 0. -1.
         11    1    3    3    0    0  0.33282204584E+02  0.18281218862E+02  0.17097092785E+02  0.41643951383E+02  0.00000000000E+00 0.  1.
<mgrwt>
<rscale>  0 0.17612031E+03</rscale>
<asrwt>0</asrwt>
<pdfrwt beam="1">  1        2 0.48213635E-01 0.18270815E+03</pdfrwt>
<pdfrwt beam="2">  1       -2 0.30178532E-01 0.18270815E+03</pdfrwt>
<totfact> 0.10496979E+03</totfact>
</mgrwt>
</event>
<event>
 7    1  0.5107591E-006  0.1752075E+03  0.7546771E-02  0.1178463E+00
         -1   -1    0    0    0  501 -0.00000000000E+00  0.00000000000E+00  0.37180489165E+03  0.37180489165E+03  0.00000000000E+00 0.  1.
          1   -1    0    0  501    0  0.00000000000E+00 -0.00000000000E+00 -0.73126070345E+02  0.73126070345E+02  0.00000000000E+00 0. -1.
         23    2    1    2    0    0  0.19721480977E+01 -0.12274758613E+03  0.11878865366E+03  0.19381714791E+03  0.91561363666E+02 0.  0.
          5    1    1    2  502    0  0.45416332968E+02  0.11015802306E+03  0.15603735944E+03  0.19638528683E+03  0.47000000000E+01 0. -1.
         -5    1    1    2    0  502 -0.47388481065E+02  0.12589563069E+02  0.23852808208E+02  0.54728527254E+02  0.47000000000E+01 0. -1.
        -11    1    3    3    0    0 -0.26825589610E+02 -0.39644685947E+02  0.23909105881E+01  0.47927339121E+02  0.00000000000E+00 0. -1.
         11    1    3    3    0    0  0.28797737708E+02 -0.83102900181E+02  0.11639774307E+03  0.14588980879E+03  0.00000000000E+00 0.  1.
<mgrwt>
<rscale>  0 0.16941134E+03</rscale>
<asrwt>0</asrwt>
<pdfrwt beam="2">  1        1 0.11250165E-01 0.17520752E+03</pdfrwt>
<pdfrwt beam="1">  1       -1 0.57200752E-01 0.17520752E+03</pdfrwt>
<totfact> 0.17170658E+03</totfact>
</mgrwt>
</event>
<event>
 7    1  0.5107591E-006  0.2395849E+03  0.7546771E-02  0.1122642E+00
         -1   -1    0    0    0  501 -0.00000000000E+00  0.00000000000E+00  0.11562986819E+03  0.11562986819E+03  0.00000000000E+00 0.  1.
          1   -1    0    0  501    0  0.00000000000E+00 -0.00000000000E+00 -0.49017986444E+03  0.49017986444E+03  0.00000000000E+00 0. -1.
         23    2    1    2    0    0 -0.16289762284E+03 -0.12345306741E+03 -0.24874735486E+03  0.33520439735E+03  0.93329770542E+02 0.  0.
          5    1    1    2  502    0  0.47587115146E+02 -0.19830063833E+02 -0.48860504354E+02  0.71184294934E+02  0.47000000000E+01 0.  1.
         -5    1    1    2    0  502  0.11531050769E+03  0.14328313125E+03 -0.76942137026E+02  0.19942104035E+03  0.47000000000E+01 0.  1.
        -11    1    3    3    0    0 -0.79565642013E+02 -0.11371881128E+03 -0.17614435675E+03  0.22425319138E+03  0.00000000000E+00 0. -1.
         11    1    3    3    0    0 -0.83331980827E+02 -0.97342561304E+01 -0.72602998108E+02  0.11095120597E+03  0.00000000000E+00 0.  1.
<mgrwt>
<rscale>  0 0.23577177E+03</rscale>
<asrwt>0</asrwt>
<pdfrwt beam="2">  1        1 0.75412286E-01 0.23958494E+03</pdfrwt>
<pdfrwt beam="1">  1       -1 0.17789211E-01 0.23958494E+03</pdfrwt>
<totfact> 0.11324623E+03</totfact>
</mgrwt>
</event>
<event>
 7    1  0.5107591E-006  0.1757908E+03  0.7546771E-02  0.1177874E+00
         -2   -1    0    0    0  501 -0.00000000000E+00  0.00000000000E+00  0.14195485013E+03  0.14195485013E+03  0.00000000000E+00 0.  1.
          2   -1    0    0  501    0  0.00000000000E+00 -0.00000000000E+00 -0.19184472156E+03  0.19184472156E+03  0.00000000000E+00 0. -1.
         23    2    1    2    0    0 -0.74030321842E+02  0.98982537314E+02 -0.13228848928E+02  0.15422665549E+03  0.91284322728E+02 0.  0.
          5    1    1    2  502    0  0.42340826956E+02  0.19373192614E+02  0.10908949663E+02  0.48053734529E+02  0.47000000000E+01 0.  1.
         -5    1    1    2    0  502  0.31689494886E+02 -0.11835572993E+03 -0.47569972165E+02  0.13151918166E+03  0.47000000000E+01 0.  1.
        -11    1    3    3    0    0 -0.17738989646E+02 -0.12274709876E+02 -0.19916926354E+02  0.29360248834E+02  0.00000000000E+00 0. -1.
         11    1    3    3    0    0 -0.56291332197E+02  0.11125724719E+03  0.66880774260E+01  0.12486640666E+03  0.00000000000E+00 0.  1.
<mgrwt>
<rscale>  0 0.16997540E+03</rscale>
<asrwt>0</asrwt>
<pdfrwt beam="2">  1        2 0.29514572E-01 0.17579079E+03</pdfrwt>
<pdfrwt beam="1">  1       -2 0.21839208E-01 0.17579079E+03</pdfrwt>
<totfact> 0.31480176E+03</totfact>
</mgrwt>
</event>
<event>
 7    1  0.5107591E-006  0.2592993E+03  0.7546771E-02  0.1107565E+00
          2   -1    0    0  501    0  0.00000000000E+00  0.00000000000E+00  0.12959887706E+03  0.12959887706E+03  0.00000000000E+00 0. -1.
         -2   -1    0    0    0  501 -0.00000000000E+00 -0.00000000000E+00 -0.12970043776E+03  0.12970043776E+03  0.00000000000E+00 0.  1.
         23    2    1    2    0    0  0.80226036902E+01 -0.29358685878E+02  0.31733606742E+01  0.97346909924E+02  0.92412423663E+02 0.  0.
          5    1    1    2  502    0 -0.62513026680E+00 -0.60542896030E+02  0.27310827964E+02  0.66586818302E+02  0.47000000000E+01 0. -1.
         -5    1    1    2    0  502 -0.73974734234E+01  0.89901581908E+02 -0.30585749338E+02  0.95365586587E+02  0.47000000000E+01 0.  1.
        -11    1    3    3    0    0 -0.31962101488E+02 -0.43479596738E+02 -0.48814829953E+01  0.54183762700E+02  0.00000000000E+00 0.  1.
         11    1    3    3    0    0  0.39984705179E+02  0.14120910860E+02  0.80548436695E+01  0.43163147224E+02  0.00000000000E+00 0. -1.
<mgrwt>
<rscale>  0 0.25929929E+03</rscale>
<asrwt>0</asrwt>
<pdfrwt beam="1">  1        2 0.19938289E-01 0.25929929E+03</pdfrwt>
<pdfrwt beam="2">  1       -2 0.19953914E-01 0.25929929E+03</pdfrwt>
<totfact> 0.58182240E+03</totfact>
</mgrwt>
</event>
<event>
 7    1  0.5107591E-006  0.1859330E+03  0.7546771E-02  0.1167311E+00
         -2   -1    0    0    0  501 -0.00000000000E+00  0.00000000000E+00  0.80579548092E+02  0.80579548092E+02  0.00000000000E+00 0.  1.
          2   -1    0    0  501    0  0.00000000000E+00 -0.00000000000E+00 -0.38617855646E+03  0.38617855646E+03  0.00000000000E+00 0. -1.
         23    2    1    2    0    0 -0.11556729043E+03  0.74757950066E+02 -0.16671536897E+03  0.23468109877E+03  0.91305279989E+02 0.  0.
          5    1    1    2  502    0  0.79005691994E+02  0.38336177662E+01 -0.14745553766E+02  0.80598494704E+02  0.47000000000E+01 0. -1.
         -5    1    1    2    0  502  0.36561598434E+02 -0.78591567832E+02 -0.12413808564E+03  0.15147851108E+03  0.47000000000E+01 0. -1.
        -11    1    3    3    0    0 -0.81024979331E+02  0.76496175781E+02 -0.69092047762E+02  0.13111225438E+03  0.00000000000E+00 0.  1.
         11    1    3    3    0    0 -0.34542311097E+02 -0.17382257153E+01 -0.97623321205E+02  0.10356884439E+03  0.00000000000E+00 0. -1.
<mgrwt>
<rscale>  0 0.18050958E+03</rscale>
<asrwt>0</asrwt>
<pdfrwt beam="2">  1        2 0.59412086E-01 0.18593298E+03</pdfrwt>
<pdfrwt beam="1">  1       -2 0.12396853E-01 0.18593298E+03</pdfrwt>
<totfact> 0.38139573E+03</totfact>
</mgrwt>
</event>
<event>
 7    1  0.5107591E-006  0.1458259E+03  0.7546771E-02  0.1215194E+00
         -3   -1    0    0    0  501 -0.00000000000E+00  0.00000000000E+00  0.46281571184E+03  0.46281571184E+03  0.00000000000E+00 0.  1.
          3   -1    0    0  501    0  0.00000000000E+00 -0.00000000000E+00 -0.37907033848E+02  0.37907033848E+02  0.00000000000E+00 0. -1.
         23    2    1    2    0    0  0.26336382542E+02 -0.70311106713E+02  0.18981507070E+03  0.22407461710E+03  0.92425192396E+02 0.  0.
          5    1    1    2  502    0 -0.46060592889E+02  0.49597004155E+02  0.23803206075E+03  0.24751321779E+03  0.47000000000E+01 0.  1.
         -5    1    1    2    0  502  0.19724210347E+02  0.20714102558E+02 -0.29384534559E+01  0.29134910800E+02  0.47000000000E+01 0.  1.
        -11    1    3    3    0    0 -0.17824398127E+02 -0.71125138546E+02  0.10016856535E+03  0.12413797157E+03  0.00000000000E+00 0. -1.
         11    1    3    3    0    0  0.44160780669E+02  0.81403183332E+00  0.89646505353E+02  0.99936645526E+02  0.00000000000E+00 0.  1.
<mgrwt>
<rscale>  0 0.13862265E+03</rscale>
<asrwt>0</asrwt>
<pdfrwt beam="2">  1        3 0.58318517E-02 0.14582586E+03</pdfrwt>
<pdfrwt beam="1">  1       -3 0.71202413E-01 0.14582586E+03</pdfrwt>
<totfact> 0.79874005E+02</totfact>
</mgrwt>
</event>
<event>
 7    1  0.5107591E-006  0.1328650E+03  0.7546771E-02  0.1236190E+00
         -1   -1    0    0    0  501 -0.00000000000E+00  0.00000000000E+00  0.11935485952E+03  0.11935485952E+03  0.00000000000E+00 0.  1.
          1   -1    0    0  501    0  0.00000000000E+00 -0.00000000000E+00 -0.11552949838E+03  0.11552949838E+03  0.00000000000E+00 0. -1.
         23    2    1    2    0    0  0.38769179055E+02 -0.22892138241E+02  0.71046145594E+01  0.10197885496E+03  0.91225610843E+02 0.  0.
          5    1    1    2  502    0 -0.44970354824E+02  0.42790344726E+02 -0.51093017621E+02  0.80535289559E+02  0.47000000000E+01 0. -1.
         -5    1    1    2    0  502  0.62011757691E+01 -0.19898206484E+02  0.47813764204E+02  0.52370213381E+02  0.47000000000E+01 0. -1.
        -11    1    3    3    0    0  0.42092655993E+02 -0.55100118230E+02  0.40639844676E+01  0.69457401962E+02  0.00000000000E+00 0. -1.
         11    1    3    3    0    0 -0.33234769384E+01  0.32207979989E+02  0.30406300918E+01  0.32521453001E+02  0.00000000000E+00 0.  1.
<mgrwt>
<rscale>  0 0.12428578E+03</rscale>
<asrwt>0</asrwt>
<pdfrwt beam="2">  1        1 0.17773769E-01 0.13286504E+03</pdfrwt>
<pdfrwt beam="1">  1       -1 0.18362286E-01 0.13286504E+03</pdfrwt>
<totfact> 0.65457837E+03</totfact>
</mgrwt>
</event>
<event>
 7    1  0.5107591E-006  0.1350678E+03  0.7546771E-02  0.1233786E+00
         -1   -1    0    0    0  501 -0.00000000000E+00  0.00000000000E+00  0.29722794851E+02  0.29722794851E+02  0.00000000000E+00 0.  1.
          1   -1    0    0  501    0  0.00000000000E+00 -0.00000000000E+00 -0.47166296690E+03  0.47166296690E+03  0.00000000000E+00 0. -1.
         23    2    1    2    0    0  0.12509243668E+02  0.49606629935E+02 -0.19276101938E+03  0.21795398812E+03  0.87919459928E+02 0.  0.
          5    1    1    2  502    0 -0.19154800905E+02 -0.85142190066E+02 -0.22004132074E+03  0.23676226844E+03  0.47000000000E+01 0. -1.
         -5    1    1    2    0  502  0.66455572369E+01  0.35535560131E+02 -0.29137831930E+02  0.46669505186E+02  0.47000000000E+01 0. -1.
        -11    1    3    3    0    0  0.42413851340E+02  0.18958661131E+02 -0.15159881959E+03  0.15855777407E+03  0.00000000000E+00 0. -1.
         11    1    3    3    0    0 -0.29904607672E+02  0.30647968804E+02 -0.41162199796E+02  0.59396214054E+02  0.00000000000E+00 0.  1.
<mgrwt>
<rscale>  0 0.12582486E+03</rscale>
<asrwt>0</asrwt>
<pdfrwt beam="2">  1        1 0.72563531E-01 0.13506784E+03</pdfrwt>
<pdfrwt beam="1">  1       -1 0.45727378E-02 0.13506784E+03</pdfrwt>
<totfact> 0.93562716E+03</totfact>
</mgrwt>
</event>
<event>
 7    1  0.5107591E-006  0.6746089E+03  0.7546771E-02  0.1012963E+00
          1   -1    0    0  501    0  0.00000000000E+00  0.00000000000E+00  0.37263196475E+03  0.37263196475E+03  0.00000000000E+00 0. -1.
         -1   -1    0    0    0  501 -0.00000000000E+00 -0.00000000000E+00 -0.17185970578E+04  0.17185970578E+04  0.00000000000E+00 0.  1.
         23    2    1    2    0    0 -0.84607074732E+02  0.16662919839E+03  0.26931628706E+03  0.34073450394E+03  0.92978991450E+02 0.  0.
          5    1    1    2  502    0  0.30203531487E+03 -0.28739803887E+03 -0.86910687358E+03  0.96394595901E+03  0.47000000000E+01 0. -1.
         -5    1    1    2    0  502 -0.21742824014E+03  0.12076884048E+03 -0.74617450652E+03  0.78654855961E+03  0.47000000000E+01 0.  1.
        -11    1    3    3    0    0 -0.28198233135E+02  0.13102522036E+03  0.22064346098E+03  0.25815941896E+03  0.00000000000E+00 0. -1.
         11    1    3    3    0    0 -0.56408841597E+02  0.35603978029E+02  0.48672826074E+02  0.82575084982E+02  0.00000000000E+00 0.  1.
<mgrwt>
<rscale>  0 0.50313660E+03</rscale>
<asrwt>0</asrwt>
<pdfrwt beam="1">  1        1 0.57327994E-01 0.67460887E+03</pdfrwt>
<pdfrwt beam="2">  1       -1 0.26439955E+00 0.67460887E+03</pdfrwt>
<totfact> 0.39082218E+00</totfact>
</mgrwt>
</event>
<event>
 7    1  0.5107591E-006  0.1439017E+03  0.7546771E-02  0.1218532E+00
          2   -1    0    0  501    0  0.00000000000E+00  0.00000000000E+00  0.74441571174E+03  0.74441571174E+03  0.00000000000E+00 0. -1.
         -2   -1    0    0    0  501 -0.00000000000E+00 -0.00000000000E+00 -0.22808822090E+02  0.22808822090E+02  0.00000000000E+00 0.  1.
         23    2    1    2    0    0 -0.46868913813E+02  0.53725530719E+02  0.28483408431E+03  0.30735695471E+03  0.90855458243E+02 0.  0.
          5    1    1    2  502    0  0.54107057802E+02 -0.79501797805E+02  0.20475304301E+03  0.22626092942E+03  0.47000000000E+01 0. -1.
         -5    1    1    2    0  502 -0.72381439886E+01  0.25776267086E+02  0.23201976233E+03  0.23360664970E+03  0.47000000000E+01 0. -1.
        -11    1    3    3    0    0 -0.36659030653E+02  0.65880073576E+01  0.29516396754E+02  0.47523720885E+02  0.00000000000E+00 0.  1.
         11    1    3    3    0    0 -0.10209883160E+02  0.47137523362E+02  0.25531768755E+03  0.25983323383E+03  0.00000000000E+00 0. -1.
<mgrwt>
<rscale>  0 0.13620254E+03</rscale>
<asrwt>0</asrwt>
<pdfrwt beam="1">  1        2 0.11452548E+00 0.14390173E+03</pdfrwt>
<pdfrwt beam="2">  1       -2 0.35090501E-02 0.14390173E+03</pdfrwt>
<totfact> 0.12477471E+04</totfact>
</mgrwt>
</event>
<event>
 7    1  0.5107591E-006  0.1656235E+03  0.7546771E-02  0.1190092E+00
         -3   -1    0    0    0  501 -0.00000000000E+00  0.00000000000E+00  0.14358176366E+03  0.14358176366E+03  0.00000000000E+00 0.  1.
          3   -1    0    0  501    0  0.00000000000E+00 -0.00000000000E+00 -0.17316624475E+03  0.17316624475E+03  0.00000000000E+00 0. -1.
         23    2    1    2    0    0 -0.10206590519E+03  0.37263677380E+02 -0.52812496261E+02  0.14950365990E+03  0.88069029230E+02 0.  0.
          5    1    1    2  502    0  0.70983166844E+02  0.18763267709E+02 -0.34147246120E+02  0.81109768881E+02  0.47000000000E+01 0.  1.
         -5    1    1    2    0  502  0.31082738342E+02 -0.56026945089E+02  0.57375261292E+02  0.86134579625E+02  0.47000000000E+01 0.  1.
        -11    1    3    3    0    0 -0.27252923795E+02 -0.28090106455E+02 -0.56689625127E+01  0.39546340817E+02  0.00000000000E+00 0. -1.
         11    1    3    3    0    0 -0.74812981391E+02  0.65353783835E+02 -0.47143533748E+02  0.10995731909E+03  0.00000000000E+00 0.  1.
<mgrwt>
<rscale>  0 0.15877004E+03</rscale>
<asrwt>0</asrwt>
<pdfrwt beam="2">  1        3 0.26640961E-01 0.16562346E+03</pdfrwt>
<pdfrwt beam="1">  1       -3 0.22089502E-01 0.16562346E+03</pdfrwt>
<totfact> 0.59875147E+02</totfact>
</mgrwt>
</event>
<event>
 7    1  0.5107591E-006  0.3931578E+03  0.7546771E-02  0.1047031E+00
         -2   -1    0    0    0  501 -0.00000000000E+00  0.00000000000E+00  0.15155388937E+03  0.15155388937E+03  0.00000000000E+00 0.  1.
          2   -1    0    0  501    0  0.00000000000E+00 -0.00000000000E+00 -0.13328818172E+04  0.13328818172E+04  0.00000000000E+00 0. -1.
         23    2    1    2    0    0  0.35391593784E+03  0.11701419410E+03 -0.95874914253E+03  0.10326455411E+04  0.90598469130E+02 0.  0.
          5    1    1    2  502    0 -0.86781208949E+02 -0.57494697526E+02 -0.12133679857E+03  0.15994163672E+03  0.47000000000E+01 0.  1.
         -5    1    1    2    0  502 -0.26713472889E+03 -0.59519496573E+02 -0.10124198676E+03  0.29184852875E+03  0.47000000000E+01 0.  1.
        -11    1    3    3    0    0  0.18314804459E+03  0.16062319553E+02 -0.41750896237E+03  0.45619616176E+03  0.00000000000E+00 0. -1.
         11    1    3    3    0    0  0.17076789325E+03  0.10095187455E+03 -0.54124018017E+03  0.57644937936E+03  0.00000000000E+00 0.  1.
<mgrwt>
<rscale>  0 0.39074887E+03</rscale>
<asrwt>0</asrwt>
<pdfrwt beam="2">  1        2 0.20505875E+00 0.39315778E+03</pdfrwt>
<pdfrwt beam="1">  1       -2 0.23315982E-01 0.39315778E+03</pdfrwt>
<totfact> 0.26816018E+02</totfact>
</mgrwt>
</event>
<event>
 7    1  0.5107591E-006  0.1314435E+03  0.7546771E-02  0.1240153E+00
         -1   -1    0    0    0  501 -0.00000000000E+00  0.00000000000E+00  0.52669343997E+02  0.52669343997E+02  0.00000000000E+00 0.  1.
          1   -1    0    0  501    0  0.00000000000E+00 -0.00000000000E+00 -0.29256532179E+03  0.29256532179E+03  0.00000000000E+00 0. -1.
         23    2    1    2    0    0 -0.37022418138E+02  0.16810415403E+02 -0.17167226490E+03  0.19714053727E+03  0.87975993252E+02 0.  0.
          5    1    1    2  502    0 -0.38937892867E+02 -0.64420498432E+01  0.72593704987E+01  0.40403563792E+02  0.47000000000E+01 0.  1.
         -5    1    1    2    0  502  0.75960311004E+02 -0.10368365560E+02 -0.75483083394E+02  0.10769056473E+03  0.47000000000E+01 0.  1.
        -11    1    3    3    0    0 -0.22514552413E+02 -0.15730787380E+02 -0.65737922757E+01  0.28241414392E+02  0.00000000000E+00 0.  1.
         11    1    3    3    0    0 -0.14507865724E+02  0.32541202783E+02 -0.16509847262E+03  0.16889912288E+03  0.00000000000E+00 0. -1.
<mgrwt>
<rscale>  0 0.12180217E+03</rscale>
<asrwt>0</asrwt>
<pdfrwt beam="2">  1        1 0.45010049E-01 0.13144351E+03</pdfrwt>
<pdfrwt beam="1">  1       -1 0.81029760E-02 0.13144351E+03</pdfrwt>
<totfact> 0.72506582E+03</totfact>
</mgrwt>
</event>
<event>
 7    1  0.5107591E-006  0.1291198E+03  0.7546771E-02  0.1241902E+00
          2   -1    0    0  501    0  0.00000000000E+00  0.00000000000E+00  0.90114460502E+03  0.90114460502E+03  0.00000000000E+00 0. -1.
         -2   -1    0    0    0  501 -0.00000000000E+00 -0.00000000000E+00 -0.14459436454E+02  0.14459436454E+02  0.00000000000E+00 0.  1.
         23    2    1    2    0    0 -0.13145750547E+02  0.29560099629E+02  0.35451035772E+03  0.36798924556E+03  0.93230257246E+02 0.  0.
          5    1    1    2  502    0 -0.18272056000E+02 -0.72759510585E+02  0.29103276687E+03  0.30058272706E+03  0.47000000000E+01 0. -1.
         -5    1    1    2    0  502  0.31417806547E+02  0.43199410956E+02  0.24114204396E+03  0.24703206885E+03  0.47000000000E+01 0. -1.
        -11    1    3    3    0    0  0.35974030306E+02 -0.79545085629E+01  0.13709376684E+03  0.14195811343E+03  0.00000000000E+00 0.  1.
         11    1    3    3    0    0 -0.49119780853E+02  0.37514608192E+02  0.21741659089E+03  0.22603113213E+03  0.00000000000E+00 0. -1.
<mgrwt>
<rscale>  0 0.12072750E+03</rscale>
<asrwt>0</asrwt>
<pdfrwt beam="1">  1        2 0.13863759E+00 0.12911985E+03</pdfrwt>
<pdfrwt beam="2">  1       -2 0.22245294E-02 0.12911985E+03</pdfrwt>
<totfact> 0.19003725E+04</totfact>
</mgrwt>
</event>
<event>
 7    1  0.5107591E-006  0.1588701E+03  0.7546771E-02  0.1197291E+00
          1   -1    0    0  501    0  0.00000000000E+00  0.00000000000E+00  0.40310776002E+03  0.40310776002E+03  0.00000000000E+00 0. -1.
         -1   -1    0    0    0  501 -0.00000000000E+00 -0.00000000000E+00 -0.67822407454E+02  0.67822407454E+02  0.00000000000E+00 0.  1.
         23    2    1    2    0    0 -0.60100908295E+02 -0.77479213601E+02  0.26430439573E+03  0.29692439807E+03  0.93231630073E+02 0.  0.
          5    1    1    2  502    0 -0.19645043536E+02  0.10904871358E+02 -0.23970232742E+02  0.33188944131E+02  0.47000000000E+01 0.  1.
         -5    1    1    2    0  502  0.79745951831E+02  0.66574342244E+02  0.94951189573E+02  0.14081682527E+03  0.47000000000E+01 0.  1.
        -11    1    3    3    0    0 -0.43533435689E+02 -0.98886964044E+02  0.20484095026E+03  0.23158930585E+03  0.00000000000E+00 0. -1.
         11    1    3    3    0    0 -0.16567472606E+02  0.21407750443E+02  0.59463445469E+02  0.65335092214E+02  0.00000000000E+00 0.  1.
<mgrwt>
<rscale>  0 0.15261936E+03</rscale>
<asrwt>0</asrwt>
<pdfrwt beam="1">  1        1 0.62016577E-01 0.15887011E+03</pdfrwt>
<pdfrwt beam="2">  1       -1 0.10434217E-01 0.15887011E+03</pdfrwt>
<totfact> 0.33405472E+03</totfact>
</mgrwt>
</event>
<event>
 7    1  0.5107591E-006  0.1390718E+03  0.7546771E-02  0.1227237E+00
          3   -1    0    0  501    0  0.00000000000E+00  0.00000000000E+00  0.23865200637E+03  0.23865200637E+03  0.00000000000E+00 0. -1.
         -3   -1    0    0    0  501 -0.00000000000E+00 -0.00000000000E+00 -0.67695167419E+02  0.67695167419E+02  0.00000000000E+00 0.  1.
         23    2    1    2    0    0  0.24538188239E+02 -0.55786458869E+02  0.11384037272E+03  0.15600338113E+03  0.87539549858E+02 0.  0.
          5    1    1    2  502    0 -0.43156020091E+02  0.71658410732E+02  0.80491272053E+02  0.11618220507E+03  0.47000000000E+01 0. -1.
         -5    1    1    2    0  502  0.18617831852E+02 -0.15871951863E+02 -0.23374805822E+02  0.34161587581E+02  0.47000000000E+01 0. -1.
        -11    1    3    3    0    0  0.43832010647E+02 -0.54977427856E+02  0.11693504345E+03  0.13644620595E+03  0.00000000000E+00 0. -1.
         11    1    3    3    0    0 -0.19293822408E+02 -0.80903101237E+00 -0.30946707319E+01  0.19557175185E+02  0.00000000000E+00 0.  1.
<mgrwt>
<rscale>  0 0.13014719E+03</rscale>
<asrwt>0</asrwt>
<pdfrwt beam="1">  1        3 0.36715693E-01 0.13907180E+03</pdfrwt>
<pdfrwt beam="2">  1       -3 0.10414641E-01 0.13907180E+03</pdfrwt>
<totfact> 0.11682144E+03</totfact>
</mgrwt>
</event>
<event>
 7    1  0.5107591E-006  0.2101463E+03  0.7546771E-02  0.1145313E+00
          1   -1    0    0  501    0  0.00000000000E+00  0.00000000000E+00  0.34831308638E+03  0.34831308638E+03  0.00000000000E+00 0. -1.
         -1   -1    0    0    0  501 -0.00000000000E+00 -0.00000000000E+00 -0.15365264689E+03  0.15365264689E+03  0.00000000000E+00 0.  1.
         23    2    1    2    0    0 -0.15197195623E+03 -0.73757114404E+02  0.21837609161E+03  0.29048547224E+03  0.90322227546E+02 0.  0.
          5    1    1    2  502    0  0.71322747336E+02  0.84886693005E+02  0.28593230669E+02  0.11459645621E+03  0.47000000000E+01 0. -1.
         -5    1    1    2    0  502  0.80649208897E+02 -0.11129578601E+02 -0.52308882792E+02  0.96883804810E+02  0.47000000000E+01 0. -1.
        -11    1    3    3    0    0 -0.12137938139E+03 -0.33831604058E+02  0.96736912553E+02  0.15885704866E+03  0.00000000000E+00 0.  1.
         11    1    3    3    0    0 -0.30592574847E+02 -0.39925510346E+02  0.12163917906E+03  0.13162842358E+03  0.00000000000E+00 0. -1.
<mgrwt>
<rscale>  0 0.20533607E+03</rscale>
<asrwt>0</asrwt>
<pdfrwt beam="1">  1        1 0.53586629E-01 0.21014630E+03</pdfrwt>
<pdfrwt beam="2">  1       -1 0.23638869E-01 0.21014630E+03</pdfrwt>
<totfact> 0.11055879E+03</totfact>
</mgrwt>
</event>
<event>
 7    1  0.5107591E-006  0.1764365E+03  0.7546771E-02  0.1195828E+00
          2   -1    0    0  501    0  0.00000000000E+00  0.00000000000E+00  0.47838659040E+03  0.47838659040E+03  0.00000000000E+00 0. -1.
         -2   -1    0    0    0  501 -0.00000000000E+00 -0.00000000000E+00 -0.65539195868E+02  0.65539195868E+02  0.00000000000E+00 0.  1.
         23    2    1    2    0    0  0.29408179320E+02  0.13726867796E+02  0.33661273246E+03  0.35172393541E+03  0.96686747674E+02 0.  0.
          5    1    1    2  502    0 -0.40018850285E+02  0.38083567280E+02  0.11418863374E+03  0.12693699442E+03  0.47000000000E+01 0. -1.
         -5    1    1    2    0  502  0.10610670965E+02 -0.51810435076E+02 -0.37953971670E+02  0.65264856444E+02  0.47000000000E+01 0.  1.
        -11    1    3    3    0    0  0.51730975481E+02  0.28621085790E+02  0.30299442117E+03  0.30870840551E+03  0.00000000000E+00 0. -1.
         11    1    3    3    0    0 -0.22322796161E+02 -0.14894217994E+02  0.33618311291E+02  0.43015529895E+02  0.00000000000E+00 0.  1.
<mgrwt>
<rscale>  0 0.15384336E+03</rscale>
<asrwt>0</asrwt>
<pdfrwt beam="1">  1        2 0.73597935E-01 0.17643647E+03</pdfrwt>
<pdfrwt beam="2">  1       -2 0.10082954E-01 0.17643647E+03</pdfrwt>
<totfact> 0.41933759E+03</totfact>
</mgrwt>
</event>
<event>
 7    1  0.5107591E-006  0.1785106E+03  0.7546771E-02  0.1174117E+00
          2   -1    0    0  501    0  0.00000000000E+00  0.00000000000E+00  0.75767897141E+03  0.75767897141E+03  0.00000000000E+00 0. -1.
         -2   -1    0    0    0  501 -0.00000000000E+00 -0.00000000000E+00 -0.41771269075E+02  0.41771269075E+02  0.00000000000E+00 0.  1.
         23    2    1    2    0    0 -0.30313349193E+01  0.12740774582E+03  0.46376598010E+03  0.49051421042E+03  0.96350317226E+02 0.  0.
          5    1    1    2  502    0 -0.97454606974E+01 -0.68954201009E+02  0.23696257964E+03  0.24702835868E+03  0.47000000000E+01 0. -1.
         -5    1    1    2    0  502  0.12776795617E+02 -0.58453544815E+02  0.15179142592E+02  0.61907671394E+02  0.47000000000E+01 0. -1.
        -11    1    3    3    0    0 -0.36622555575E+02  0.11574261910E+03  0.39289649085E+03  0.41122404840E+03  0.00000000000E+00 0. -1.
         11    1    3    3    0    0  0.33591220655E+02  0.11665126726E+02  0.70869489250E+02  0.79290162020E+02  0.00000000000E+00 0.  1.
<mgrwt>
<rscale>  0 0.17362782E+03</rscale>
<asrwt>0</asrwt>
<pdfrwt beam="1">  1        2 0.11656599E+00 0.17851057E+03</pdfrwt>
<pdfrwt beam="2">  1       -2 0.64263496E-02 0.17851057E+03</pdfrwt>
<totfact> 0.49685131E+03</totfact>
</mgrwt>
</event>
<event>
 7    1  0.5107591E-006  0.1299038E+03  0.7546771E-02  0.1241808E+00
         -4   -1    0    0    0  501 -0.00000000000E+00  0.00000000000E+00  0.60387558977E+02  0.60387558977E+02  0.00000000000E+00 0.  1.
          4   -1    0    0  501    0  0.00000000000E+00 -0.00000000000E+00 -0.21501863759E+03  0.21501863759E+03  0.00000000000E+00 0. -1.
         23    2    1    2    0    0 -0.21938352964E+02 -0.27756024573E+02 -0.78350429894E+02  0.12476182445E+03  0.90415898739E+02 0.  0.
          5    1    1    2  502    0  0.29765832749E+02  0.49358900424E+02 -0.10111599176E+03  0.11648536234E+03  0.47000000000E+01 0. -1.
         -5    1    1    2    0  502 -0.78274797848E+01 -0.21602875851E+02  0.24835343040E+02  0.34159009774E+02  0.47000000000E+01 0. -1.
        -11    1    3    3    0    0 -0.37340853295E+02 -0.27463661132E+02 -0.14943301458E+01  0.46376988153E+02  0.00000000000E+00 0.  1.
         11    1    3    3    0    0  0.15402500331E+02 -0.29236344176E+00 -0.76856099748E+02  0.78384836297E+02  0.00000000000E+00 0. -1.
<mgrwt>
<rscale>  0 0.12078456E+03</rscale>
<asrwt>0</asrwt>
<pdfrwt beam="2">  1        4 0.33079790E-01 0.12990377E+03</pdfrwt>
<pdfrwt beam="1">  1       -4 0.92903937E-02 0.12990377E+03</pdfrwt>
<totfact> 0.12375693E+03</totfact>
</mgrwt>
</event>
<event>
 7    1  0.5107591E-006  0.1261401E+03  0.7546771E-02  0.1248156E+00
          1   -1    0    0  501    0  0.00000000000E+00  0.00000000000E+00  0.21553961339E+02  0.21553961339E+02  0.00000000000E+00 0. -1.
         -1   -1    0    0    0  501 -0.00000000000E+00 -0.00000000000E+00 -0.58449346820E+03  0.58449346820E+03  0.00000000000E+00 0.  1.
         23    2    1    2    0    0  0.76448490912E+01 -0.15105762917E+02 -0.17815255519E+03  0.20111247960E+03  0.91767471027E+02 0.  0.
          5    1    1    2  502    0 -0.40254339231E+02 -0.39351542075E+02 -0.24360970511E+03  0.25007345744E+03  0.47000000000E+01 0.  1.
         -5    1    1    2    0  502  0.32609490140E+02  0.54457304992E+02 -0.14117724656E+03  0.15486149250E+03  0.47000000000E+01 0.  1.
        -11    1    3    3    0    0  0.32184230380E+02  0.21139834498E+02 -0.37277999224E+02  0.53594463463E+02  0.00000000000E+00 0. -1.
         11    1    3    3    0    0 -0.24539381289E+02 -0.36245597415E+02 -0.14087455597E+03  0.14751801614E+03  0.00000000000E+00 0.  1.
<mgrwt>
<rscale>  0 0.11698467E+03</rscale>
<asrwt>0</asrwt>
<pdfrwt beam="1">  1        1 0.33159941E-02 0.12614006E+03</pdfrwt>
<pdfrwt beam="2">  1       -1 0.89922071E-01 0.12614006E+03</pdfrwt>
<totfact> 0.36005039E+03</totfact>
</mgrwt>
</event>
<event>
 7    1  0.5107591E-006  0.1356870E+03  0.7546771E-02  0.1237113E+00
         -3   -1    0    0    0  501 -0.00000000000E+00  0.00000000000E+00  0.40620950781E+02  0.40620950781E+02  0.00000000000E+00 0.  1.
          3   -1    0    0  501    0  0.00000000000E+00 -0.00000000000E+00 -0.39172094576E+03  0.39172094576E+03  0.00000000000E+00 0. -1.
         23    2    1    2    0    0 -0.15800705026E+02 -0.23388280191E+02 -0.23768079346E+03  0.25549482686E+03  0.89379936470E+02 0.  0.
          5    1    1    2  502    0  0.55189713227E+02 -0.17633960277E+02 -0.10381279979E+03  0.11897919315E+03  0.47000000000E+01 0. -1.
         -5    1    1    2    0  502 -0.39389008201E+02  0.41022240468E+02 -0.96064017235E+01  0.57867876531E+02  0.47000000000E+01 0.  1.
        -11    1    3    3    0    0  0.21728147864E+02 -0.26771747155E+02 -0.34234658559E+02  0.48588586129E+02  0.00000000000E+00 0.  1.
         11    1    3    3    0    0 -0.37528852890E+02  0.33834669640E+01 -0.20344613490E+03  0.20690624073E+03  0.00000000000E+00 0. -1.
<mgrwt>
<rscale>  0 0.12370129E+03</rscale>
<asrwt>0</asrwt>
<pdfrwt beam="2">  1        3 0.60264761E-01 0.13568703E+03</pdfrwt>
<pdfrwt beam="1">  1       -3 0.62493770E-02 0.13568703E+03</pdfrwt>
<totfact> 0.10036393E+03</totfact>
</mgrwt>
</event>
<event>
 7    1  0.5107591E-006  0.1255121E+03  0.7546771E-02  0.1247961E+00
          2   -1    0    0  501    0  0.00000000000E+00  0.00000000000E+00  0.65752467882E+02  0.65752467882E+02  0.00000000000E+00 0. -1.
         -2   -1    0    0    0  501 -0.00000000000E+00 -0.00000000000E+00 -0.20034686618E+03  0.20034686618E+03  0.00000000000E+00 0.  1.
         23    2    1    2    0    0 -0.59124652048E+01 -0.97725407126E+01 -0.22276685866E+02  0.97669633310E+02  0.94406815119E+02 0.  0.
          5    1    1    2  502    0  0.42952119273E+02  0.22738774561E+02  0.56276577378E+00  0.48829736063E+02  0.47000000000E+01 0.  1.
         -5    1    1    2    0  502 -0.37039654068E+02 -0.12966233849E+02 -0.11288047821E+03  0.11959996469E+03  0.47000000000E+01 0.  1.
        -11    1    3    3    0    0  0.13728802711E+02 -0.33520372453E+02  0.22994108265E+02  0.42904829660E+02  0.00000000000E+00 0. -1.
         11    1    3    3    0    0 -0.19641267916E+02  0.23747831740E+02 -0.45270794130E+02  0.54764803650E+02  0.00000000000E+00 0.  1.
<mgrwt>
<rscale>  0 0.11709922E+03</rscale>
<asrwt>0</asrwt>
<pdfrwt beam="1">  1        2 0.10115764E-01 0.12551213E+03</pdfrwt>
<pdfrwt beam="2">  1       -2 0.30822594E-01 0.12551213E+03</pdfrwt>
<totfact> 0.57940503E+03</totfact>
</mgrwt>
</event>
<event>
 7    1  0.5107591E-006  0.1458772E+03  0.7546771E-02  0.1215505E+00
          1   -1    0    0  501    0  0.00000000000E+00  0.00000000000E+00  0.40609008299E+03  0.40609008299E+03  0.00000000000E+00 0. -1.
         -1   -1    0    0    0  501 -0.00000000000E+00 -0.00000000000E+00 -0.45183807037E+02  0.45183807037E+02  0.00000000000E+00 0.  1.
         23    2    1    2    0    0  0.75157331981E+02 -0.27454353498E+01  0.11226589458E+03  0.16299938793E+03  0.91153756996E+02 0.  0.
          5    1    1    2  502    0 -0.54246123987E+02 -0.59129091624E+02  0.13910270497E+03  0.16065660264E+03  0.47000000000E+01 0.  1.
         -5    1    1    2    0  502 -0.20911207994E+02  0.61874526974E+02  0.10953767641E+03  0.12761789946E+03  0.47000000000E+01 0.  1.
        -11    1    3    3    0    0  0.44176260889E+02 -0.26319140396E+02  0.84338885999E+01  0.52109208920E+02  0.00000000000E+00 0.  1.
         11    1    3    3    0    0  0.30981071092E+02  0.23573705046E+02  0.10383200598E+03  0.11089017901E+03  0.00000000000E+00 0. -1.
<mgrwt>
<rscale>  0 0.13839528E+03</rscale>
<asrwt>0</asrwt>
<pdfrwt beam="1">  1        1 0.62475395E-01 0.14587717E+03</pdfrwt>
<pdfrwt beam="2">  1       -1 0.69513552E-02 0.14587717E+03</pdfrwt>
<totfact> 0.61046918E+03</totfact>
</mgrwt>
</event>
<event>
 7    1  0.5107591E-006  0.1791864E+03  0.7546771E-02  0.1174237E+00
          1   -1    0    0  501    0  0.00000000000E+00  0.00000000000E+00  0.10803449873E+04  0.10803449873E+04  0.00000000000E+00 0. -1.
         -1   -1    0    0    0  501 -0.00000000000E+00 -0.00000000000E+00 -0.32828390346E+02  0.32828390346E+02  0.00000000000E+00 0.  1.
         23    2    1    2    0    0  0.11804043816E+03  0.50500190969E+02  0.74582293675E+03  0.76227905273E+03  0.91289029605E+02 0.  0.
          5    1    1    2  502    0 -0.10619479623E+03 -0.69524647954E+02  0.30239245540E+03  0.32798521080E+03  0.47000000000E+01 0. -1.
         -5    1    1    2    0  502 -0.11845641938E+02  0.19024456985E+02 -0.69879516028E+00  0.22909114150E+02  0.47000000000E+01 0. -1.
        -11    1    3    3    0    0 -0.22843167174E+01  0.34724935471E+02  0.12774141960E+03  0.13239678821E+03  0.00000000000E+00 0.  1.
         11    1    3    3    0    0  0.12032475488E+03  0.15775255497E+02  0.61808151714E+03  0.62988226452E+03  0.00000000000E+00 0. -1.
<mgrwt>
<rscale>  0 0.17350961E+03</rscale>
<asrwt>0</asrwt>
<pdfrwt beam="1">  1        1 0.16620689E+00 0.17918639E+03</pdfrwt>
<pdfrwt beam="2">  1       -1 0.50505224E-02 0.17918639E+03</pdfrwt>
<totfact> 0.24041417E+03</totfact>
</mgrwt>
</event>
<event>
 7    1  0.5107591E-006  0.1431332E+03  0.7546771E-02  0.1219798E+00
          1   -1    0    0  501    0  0.00000000000E+00  0.00000000000E+00  0.16720214459E+03  0.16720214459E+03  0.00000000000E+00 0.  1.
         -1   -1    0    0    0  501 -0.00000000000E+00 -0.00000000000E+00 -0.14335664222E+03  0.14335664222E+03  0.00000000000E+00 0. -1.
         23    2    1    2    0    0 -0.68998938274E+02  0.10185890082E+02  0.96927680767E+02  0.14984747560E+03  0.90524498367E+02 0.  0.
          5    1    1    2  502    0  0.14947994476E+02  0.34437414571E+02 -0.81603731129E+02  0.89947968267E+02  0.47000000000E+01 0.  1.
         -5    1    1    2    0  502  0.54050943798E+02 -0.44623304653E+02  0.85215527338E+01  0.70763342944E+02  0.47000000000E+01 0.  1.
        -11    1    3    3    0    0 -0.25953499860E+02  0.47817376255E+02  0.31146295300E+02  0.62691126467E+02  0.00000000000E+00 0. -1.
         11    1    3    3    0    0 -0.43045438414E+02 -0.37631486173E+02  0.65781385467E+02  0.87156349131E+02  0.00000000000E+00 0.  1.
<mgrwt>
<rscale>  0 0.13529922E+03</rscale>
<asrwt>0</asrwt>
<pdfrwt beam="1">  1        1 0.25723407E-01 0.14313323E+03</pdfrwt>
<pdfrwt beam="2">  1       -1 0.22054868E-01 0.14313323E+03</pdfrwt>
<totfact> 0.30656424E+03</totfact>
</mgrwt>
</event>
<event>
 7    1  0.5107591E-006  0.1712394E+03  0.7546771E-02  0.1185631E+00
          1   -1    0    0  501    0  0.00000000000E+00  0.00000000000E+00  0.77368370529E+03  0.77368370529E+03  0.00000000000E+00 0. -1.
         -1   -1    0    0    0  501 -0.00000000000E+00 -0.00000000000E+00 -0.40198643336E+02  0.40198643336E+02  0.00000000000E+00 0.  1.
         23    2    1    2    0    0 -0.75710086468E+02 -0.89254576236E+02  0.52914588857E+03  0.54727882388E+03  0.76291173183E+02 0.  0.
          5    1    1    2  502    0  0.30447891459E+02  0.91112384754E+02  0.55702350022E+02  0.11114577161E+03  0.47000000000E+01 0.  1.
         -5    1    1    2    0  502  0.45262195009E+02 -0.18578085176E+01  0.14863682336E+03  0.15545775313E+03  0.47000000000E+01 0.  1.
        -11    1    3    3    0    0 -0.80296220521E+02 -0.99370565616E+02  0.46760570598E+03  0.48474435387E+03  0.00000000000E+00 0.  1.
         11    1    3    3    0    0  0.45861340526E+01  0.10115989380E+02  0.61540182589E+02  0.62534470013E+02  0.00000000000E+00 0. -1.
<mgrwt>
<rscale>  0 0.16274562E+03</rscale>
<asrwt>0</asrwt>
<pdfrwt beam="1">  1        1 0.11902825E+00 0.17123943E+03</pdfrwt>
<pdfrwt beam="2">  1       -1 0.61844072E-02 0.17123943E+03</pdfrwt>
<totfact> 0.30550751E+03</totfact>
</mgrwt>
</event>
<event>
 7    1  0.5107591E-006  0.1998094E+03  0.7546771E-02  0.1154167E+00
         -2   -1    0    0    0  501 -0.00000000000E+00  0.00000000000E+00  0.65600761223E+03  0.65600761223E+03  0.00000000000E+00 0.  1.
          2   -1    0    0  501    0  0.00000000000E+00 -0.00000000000E+00 -0.10455116633E+03  0.10455116633E+03  0.00000000000E+00 0. -1.
         23    2    1    2    0    0  0.15328367136E+03 -0.28357647908E+02  0.72233552166E+01  0.18080585838E+03  0.91315614556E+02 0.  0.
          5    1    1    2  502    0 -0.14750592348E+03  0.93353383264E+01  0.29799001428E+03  0.33266392142E+03  0.47000000000E+01 0. -1.
         -5    1    1    2    0  502 -0.57777478861E+01  0.19022309582E+02  0.24624307641E+03  0.24708899876E+03  0.47000000000E+01 0. -1.
        -11    1    3    3    0    0  0.42433386623E+02  0.16978590704E+02  0.35355710534E+02  0.57783138630E+02  0.00000000000E+00 0.  1.
         11    1    3    3    0    0  0.11085028474E+03 -0.45336238612E+02 -0.28132355317E+02  0.12302271975E+03  0.00000000000E+00 0. -1.
<mgrwt>
<rscale>  0 0.19484009E+03</rscale>
<asrwt>0</asrwt>
<pdfrwt beam="2">  1        2 0.16084795E-01 0.19980939E+03</pdfrwt>
<pdfrwt beam="1">  1       -2 0.10092425E+00 0.19980939E+03</pdfrwt>
<totfact> 0.30134188E+02</totfact>
</mgrwt>
</event>
<event>
 7    1  0.5107591E-006  0.2283098E+03  0.7546771E-02  0.1131075E+00
         -2   -1    0    0    0  501 -0.00000000000E+00  0.00000000000E+00  0.33181426231E+02  0.33181426231E+02  0.00000000000E+00 0.  1.
          2   -1    0    0  501    0  0.00000000000E+00 -0.00000000000E+00 -0.16904973932E+04  0.16904973932E+04  0.00000000000E+00 0. -1.
         23    2    1    2    0    0  0.58005754896E+02 -0.18203547979E+03 -0.11231539336E+04  0.11427705338E+04  0.89152403129E+02 0.  0.
          5    1    1    2  502    0 -0.90264652691E+02  0.97073052322E+02 -0.25732971500E+03  0.28950225774E+03  0.47000000000E+01 0. -1.
         -5    1    1    2    0  502  0.32258897795E+02  0.84962427464E+02 -0.27683231837E+03  0.29140602784E+03  0.47000000000E+01 0. -1.
        -11    1    3    3    0    0 -0.23459953561E+02 -0.51339469496E+02 -0.33251701275E+03  0.33727388621E+03  0.00000000000E+00 0.  1.
         11    1    3    3    0    0  0.81465708457E+02 -0.13069601029E+03 -0.79063692084E+03  0.80549664764E+03  0.00000000000E+00 0. -1.
<mgrwt>
<rscale>  0 0.22380874E+03</rscale>
<asrwt>0</asrwt>
<pdfrwt beam="2">  1        2 0.26007653E+00 0.22830979E+03</pdfrwt>
<pdfrwt beam="1">  1       -2 0.51048346E-02 0.22830979E+03</pdfrwt>
<totfact> 0.20531960E+03</totfact>
</mgrwt>
</event>
<event>
 7    1  0.5107591E-006  0.1919907E+03  0.7546771E-02  0.1164592E+00
         -2   -1    0    0    0  501 -0.00000000000E+00  0.00000000000E+00  0.25578816968E+02  0.25578816968E+02  0.00000000000E+00 0.  1.
          2   -1    0    0  501    0  0.00000000000E+00 -0.00000000000E+00 -0.12702852167E+04  0.12702852167E+04  0.00000000000E+00 0. -1.
         23    2    1    2    0    0 -0.68267308669E+02 -0.10989856527E+03 -0.70972315926E+03  0.72747376695E+03  0.93664287342E+02 0.  0.
          5    1    1    2  502    0  0.22136936322E+02  0.18007520165E+02 -0.38729854657E+03  0.38837683879E+03  0.47000000000E+01 0. -1.
         -5    1    1    2    0  502  0.46130372346E+02  0.91891045110E+02 -0.14768469391E+03  0.18001342794E+03  0.47000000000E+01 0.  1.
        -11    1    3    3    0    0 -0.44136677404E+02 -0.12362992247E+03 -0.55819990988E+03  0.57342788859E+03  0.00000000000E+00 0. -1.
         11    1    3    3    0    0 -0.24130631265E+02  0.13731357201E+02 -0.15152324939E+03  0.15404587836E+03  0.00000000000E+00 0.  1.
<mgrwt>
<rscale>  0 0.18335862E+03</rscale>
<asrwt>0</asrwt>
<pdfrwt beam="2">  1        2 0.19542850E+00 0.19199070E+03</pdfrwt>
<pdfrwt beam="1">  1       -2 0.39352025E-02 0.19199070E+03</pdfrwt>
<totfact> 0.50911308E+03</totfact>
</mgrwt>
</event>
<event>
 7    1  0.5107591E-006  0.1720846E+03  0.7546771E-02  0.1181892E+00
         -1   -1    0    0    0  501 -0.00000000000E+00  0.00000000000E+00  0.20171058539E+04  0.20171058539E+04  0.00000000000E+00 0.  1.
          1   -1    0    0  501    0  0.00000000000E+00 -0.00000000000E+00 -0.15649268927E+02  0.15649268927E+02  0.00000000000E+00 0. -1.
         23    2    1    2    0    0 -0.11592113474E+03 -0.23154985674E+02  0.51295116389E+03  0.53433546123E+03  0.91769416225E+02 0.  0.
          5    1    1    2  502    0  0.13829056710E+03  0.21158010185E+02  0.14002916350E+04  0.14072706546E+04  0.47000000000E+01 0. -1.
         -5    1    1    2    0  502 -0.22369432358E+02  0.19969754883E+01  0.88213786144E+02  0.91149007022E+02  0.47000000000E+01 0. -1.
        -11    1    3    3    0    0 -0.49690328268E+02 -0.55001692160E+02  0.21360699983E+03  0.22610233356E+03  0.00000000000E+00 0.  1.
         11    1    3    3    0    0 -0.66230806472E+02  0.31846706486E+02  0.29934416406E+03  0.30823312768E+03  0.00000000000E+00 0. -1.
<mgrwt>
<rscale>  0 0.16617913E+03</rscale>
<asrwt>0</asrwt>
<pdfrwt beam="2">  1        1 0.24075814E-02 0.17208455E+03</pdfrwt>
<pdfrwt beam="1">  1       -1 0.31032377E+00 0.17208455E+03</pdfrwt>
<totfact> 0.15620891E+02</totfact>
</mgrwt>
</event>
<event>
 7    1  0.5107591E-006  0.1328584E+03  0.7546771E-02  0.1236640E+00
         -3   -1    0    0    0  501 -0.00000000000E+00  0.00000000000E+00  0.16216912172E+03  0.16216912172E+03  0.00000000000E+00 0.  1.
          3   -1    0    0  501    0  0.00000000000E+00 -0.00000000000E+00 -0.12620778266E+03  0.12620778266E+03  0.00000000000E+00 0. -1.
         23    2    1    2    0    0 -0.41801835146E+01  0.44841314646E+02 -0.66350158238E+02  0.12068969563E+03  0.90196683418E+02 0.  0.
          5    1    1    2  502    0  0.12806775625E+02  0.42638327154E+02  0.32096443915E+02  0.55084590917E+02  0.47000000000E+01 0.  1.
         -5    1    1    2    0  502 -0.86265921104E+01 -0.87479641800E+02  0.70215053387E+02  0.11260261783E+03  0.47000000000E+01 0.  1.
        -11    1    3    3    0    0  0.29643156799E+02  0.30893494317E+02  0.23236899000E+01  0.42878016172E+02  0.00000000000E+00 0.  1.
         11    1    3    3    0    0 -0.33823340314E+02  0.13947820329E+02 -0.68673848138E+02  0.77811679458E+02  0.00000000000E+00 0. -1.
<mgrwt>
<rscale>  0 0.12400039E+03</rscale>
<asrwt>0</asrwt>
<pdfrwt beam="2">  1        3 0.19416582E-01 0.13285841E+03</pdfrwt>
<pdfrwt beam="1">  1       -3 0.24949096E-01 0.13285841E+03</pdfrwt>
<totfact> 0.82109572E+02</totfact>
</mgrwt>
</event>
<event>
 7    1  0.5107591E-006  0.2137707E+03  0.7546771E-02  0.1142133E+00
         -1   -1    0    0    0  501 -0.00000000000E+00  0.00000000000E+00  0.26654402698E+03  0.26654402698E+03  0.00000000000E+00 0.  1.
          1   -1    0    0  501    0  0.00000000000E+00 -0.00000000000E+00 -0.17852366577E+03  0.17852366577E+03  0.00000000000E+00 0. -1.
         23    2    1    2    0    0 -0.51480419258E+02  0.16559840664E+03 -0.33421470285E+02  0.19920996582E+03  0.92165882819E+02 0.  0.
          5    1    1    2  502    0  0.31598869829E+02 -0.18050322699E+03  0.86415869610E+02  0.20265659636E+03  0.47000000000E+01 0. -1.
         -5    1    1    2    0  502  0.19881549429E+02  0.14904820341E+02  0.35025961881E+02  0.43201130573E+02  0.47000000000E+01 0. -1.
        -11    1    3    3    0    0  0.54391243834E+01  0.11683133017E+03 -0.40855863105E+02  0.12388843907E+03  0.00000000000E+00 0. -1.
         11    1    3    3    0    0 -0.56919543641E+02  0.48767076469E+02  0.74343928198E+01  0.75321526752E+02  0.00000000000E+00 0.  1.
<mgrwt>
<rscale>  0 0.20928541E+03</rscale>
<asrwt>0</asrwt>
<pdfrwt beam="2">  1        1 0.27465179E-01 0.21377068E+03</pdfrwt>
<pdfrwt beam="1">  1       -1 0.41006773E-01 0.21377068E+03</pdfrwt>
<totfact> 0.99906464E+02</totfact>
</mgrwt>
</event>
<event>
 7    1  0.5107591E-006  0.1690933E+03  0.7546771E-02  0.1187123E+00
         -2   -1    0    0    0  501 -0.00000000000E+00  0.00000000000E+00  0.99137013911E+02  0.99137013911E+02  0.00000000000E+00 0.  1.
          2   -1    0    0  501    0  0.00000000000E+00 -0.00000000000E+00 -0.25603741324E+03  0.25603741324E+03  0.00000000000E+00 0. -1.
         23    2    1    2    0    0 -0.25280165697E+02  0.11102824952E+03 -0.11373644836E+03  0.18065885574E+03  0.82068773008E+02 0.  0.
          5    1    1    2  502    0  0.61283487290E+02 -0.36916138979E+02  0.15382821347E+02  0.73329314221E+02  0.47000000000E+01 0. -1.
         -5    1    1    2    0  502 -0.36003321593E+02 -0.74112110544E+02 -0.58546772319E+02  0.10118625719E+03  0.47000000000E+01 0. -1.
        -11    1    3    3    0    0  0.11000165326E+02  0.37291969652E+02  0.17480132765E+01  0.38919791728E+02  0.00000000000E+00 0.  1.
         11    1    3    3    0    0 -0.36280331023E+02  0.73736279872E+02 -0.11548446164E+03  0.14173906402E+03  0.00000000000E+00 0. -1.
<mgrwt>
<rscale>  0 0.16140154E+03</rscale>
<asrwt>0</asrwt>
<pdfrwt beam="2">  1        2 0.39390371E-01 0.16909334E+03</pdfrwt>
<pdfrwt beam="1">  1       -2 0.15251848E-01 0.16909334E+03</pdfrwt>
<totfact> 0.42066470E+03</totfact>
</mgrwt>
</event>
<event>
 7    1  0.5107591E-006  0.1263808E+03  0.7546771E-02  0.1248551E+00
         -1   -1    0    0    0  501 -0.00000000000E+00  0.00000000000E+00  0.44411322570E+03  0.44411322570E+03  0.00000000000E+00 0.  1.
          1   -1    0    0  501    0  0.00000000000E+00 -0.00000000000E+00 -0.36092537546E+02  0.36092537546E+02  0.00000000000E+00 0. -1.
         23    2    1    2    0    0  0.19202218760E+01  0.18619760036E+02  0.59826742208E+02  0.10978556299E+03  0.90129063245E+02 0.  0.
          5    1    1    2  502    0 -0.37715634028E+02 -0.58880090437E+02  0.23005949779E+03  0.24049697841E+03  0.47000000000E+01 0. -1.
         -5    1    1    2    0  502  0.35795412152E+02  0.40260330401E+02  0.11813444816E+03  0.12992322185E+03  0.47000000000E+01 0. -1.
        -11    1    3    3    0    0  0.73139439976E+01 -0.27280893694E+02 -0.64639759402E+01  0.28974539211E+02  0.00000000000E+00 0. -1.
         11    1    3    3    0    0 -0.53937221216E+01  0.45900653730E+02  0.66290718148E+02  0.80811023777E+02  0.00000000000E+00 0.  1.
<mgrwt>
<rscale>  0 0.11675338E+03</rscale>
<asrwt>0</asrwt>
<pdfrwt beam="2">  1        1 0.55526984E-02 0.12638078E+03</pdfrwt>
<pdfrwt beam="1">  1       -1 0.68325108E-01 0.12638078E+03</pdfrwt>
<totfact> 0.31058628E+03</totfact>
</mgrwt>
</event>
<event>
 7    1  0.5107591E-006  0.1342702E+03  0.7546771E-02  0.1234026E+00
         -2   -1    0    0    0  501 -0.00000000000E+00  0.00000000000E+00  0.35193237902E+02  0.35193237902E+02  0.00000000000E+00 0.  1.
          2   -1    0    0  501    0  0.00000000000E+00 -0.00000000000E+00 -0.41393771635E+03  0.41393771635E+03  0.00000000000E+00 0. -1.
         23    2    1    2    0    0 -0.23894925474E+02 -0.42746844303E+02 -0.20609174470E+03  0.23041322974E+03  0.90654227935E+02 0.  0.
          5    1    1    2  502    0  0.31135324787E+02 -0.39239720605E+02 -0.49977994079E+02  0.70915823446E+02  0.47000000000E+01 0.  1.
         -5    1    1    2    0  502 -0.72403993137E+01  0.81986564908E+02 -0.12267473967E+03  0.14780190107E+03  0.47000000000E+01 0.  1.
        -11    1    3    3    0    0 -0.29922313260E+02 -0.24174480318E+02 -0.20731057308E+03  0.21084929225E+03  0.00000000000E+00 0. -1.
         11    1    3    3    0    0  0.60273877866E+01 -0.18572363984E+02  0.12188283803E+01  0.19563937490E+02  0.00000000000E+00 0.  1.
<mgrwt>
<rscale>  0 0.12567012E+03</rscale>
<asrwt>0</asrwt>
<pdfrwt beam="2">  1        2 0.63682726E-01 0.13427016E+03</pdfrwt>
<pdfrwt beam="1">  1       -2 0.54143442E-02 0.13427016E+03</pdfrwt>
<totfact> 0.12593197E+04</totfact>
</mgrwt>
</event>
<event>
 7    1  0.5107591E-006  0.1361730E+03  0.7546771E-02  0.1231128E+00
          1   -1    0    0  501    0  0.00000000000E+00  0.00000000000E+00  0.42764679995E+02  0.42764679995E+02  0.00000000000E+00 0.  1.
         -1   -1    0    0    0  501 -0.00000000000E+00 -0.00000000000E+00 -0.37752421453E+03  0.37752421453E+03  0.00000000000E+00 0. -1.
         23    2    1    2    0    0  0.53702777212E+02  0.52961618266E+01 -0.81688723643E+02  0.13290775131E+03  0.89885400243E+02 0.  0.
          5    1    1    2  502    0 -0.23926204226E+02 -0.60007311678E+02 -0.17972067198E+03  0.19103651651E+03  0.47000000000E+01 0. -1.
         -5    1    1    2    0  502 -0.29776572987E+02  0.54711149851E+02 -0.73350138908E+02  0.96344626704E+02  0.47000000000E+01 0. -1.
        -11    1    3    3    0    0  0.44546692426E+02 -0.14124181003E+02 -0.96229513270E+02  0.10697672419E+03  0.00000000000E+00 0. -1.
         11    1    3    3    0    0  0.91560847864E+01  0.19420342830E+02  0.14540789626E+02  0.25931027114E+02  0.00000000000E+00 0.  1.
<mgrwt>
<rscale>  0 0.12755574E+03</rscale>
<asrwt>0</asrwt>
<pdfrwt beam="1">  1        1 0.65791814E-02 0.13617300E+03</pdfrwt>
<pdfrwt beam="2">  1       -1 0.58080650E-01 0.13617300E+03</pdfrwt>
<totfact> 0.33858761E+03</totfact>
</mgrwt>
</event>
<event>
 7    1  0.5107591E-006  0.1354616E+03  0.7546771E-02  0.1231864E+00
          2   -1    0    0  501    0  0.00000000000E+00  0.00000000000E+00  0.10050443507E+04  0.10050443507E+04  0.00000000000E+00 0. -1.
         -2   -1    0    0    0  501 -0.00000000000E+00 -0.00000000000E+00 -0.14702972617E+02  0.14702972617E+02  0.00000000000E+00 0.  1.
         23    2    1    2    0    0  0.11756497799E+02  0.50862436826E+02  0.50965833754E+03  0.52034165250E+03  0.90986875872E+02 0.  0.
          5    1    1    2  502    0  0.20281489209E+02 -0.56726706246E+02  0.96782661561E+02  0.11409746529E+03  0.47000000000E+01 0.  1.
         -5    1    1    2    0  502 -0.32037987008E+02  0.58642694195E+01  0.38390037898E+03  0.38530820553E+03  0.47000000000E+01 0.  1.
        -11    1    3    3    0    0  0.37241983441E+02 -0.10196068425E+02  0.20011839327E+03  0.20380946118E+03  0.00000000000E+00 0.  1.
         11    1    3    3    0    0 -0.25485485642E+02  0.61058505251E+02  0.30953994427E+03  0.31653219132E+03  0.00000000000E+00 0. -1.
<mgrwt>
<rscale>  0 0.12707350E+03</rscale>
<asrwt>0</asrwt>
<pdfrwt beam="1">  1        2 0.15462215E+00 0.13546158E+03</pdfrwt>
<pdfrwt beam="2">  1       -2 0.22619966E-02 0.13546158E+03</pdfrwt>
<totfact> 0.16078334E+04</totfact>
</mgrwt>
</event>
<event>
 7    1  0.5107591E-006  0.2004803E+03  0.7546771E-02  0.1153485E+00
         -1   -1    0    0    0  501 -0.00000000000E+00  0.00000000000E+00  0.51045242171E+02  0.51045242171E+02  0.00000000000E+00 0.  1.
          1   -1    0    0  501    0  0.00000000000E+00 -0.00000000000E+00 -0.76420244333E+03  0.76420244333E+03  0.00000000000E+00 0. -1.
         23    2    1    2    0    0  0.15438709794E+03  0.27027771730E+02 -0.44297156763E+03  0.47880654747E+03  0.92010997824E+02 0.  0.
          5    1    1    2  502    0 -0.22223991962E+02 -0.25201293027E+02  0.18289912826E+01  0.33977142288E+02  0.47000000000E+01 0. -1.
         -5    1    1    2    0  502 -0.13216310598E+03 -0.18264787036E+01 -0.27201462482E+03  0.30246399574E+03  0.47000000000E+01 0. -1.
        -11    1    3    3    0    0  0.12702701838E+03 -0.14727923736E+02 -0.35925418367E+03  0.38133494938E+03  0.00000000000E+00 0.  1.
         11    1    3    3    0    0  0.27360079561E+02  0.41755695466E+02 -0.83717383955E+02  0.97471598088E+02  0.00000000000E+00 0. -1.
<mgrwt>
<rscale>  0 0.19562327E+03</rscale>
<asrwt>0</asrwt>
<pdfrwt beam="2">  1        1 0.11756960E+00 0.20048033E+03</pdfrwt>
<pdfrwt beam="1">  1       -1 0.78531145E-02 0.20048033E+03</pdfrwt>
<totfact> 0.21770656E+03</totfact>
</mgrwt>
</event>
<event>
 7    1  0.5107591E-006  0.1269908E+03  0.7546771E-02  0.1251490E+00
          4   -1    0    0  501    0  0.00000000000E+00  0.00000000000E+00  0.12714233785E+03  0.12714233785E+03  0.00000000000E+00 0. -1.
         -4   -1    0    0    0  501 -0.00000000000E+00 -0.00000000000E+00 -0.10318298313E+03  0.10318298313E+03  0.00000000000E+00 0.  1.
         23    2    1    2    0    0 -0.22285950683E+02 -0.23170880376E+01  0.52208867532E+02  0.10023037063E+03  0.82573172717E+02 0.  0.
          5    1    1    2  502    0  0.65674240354E+02  0.72512386551E+01 -0.48135227349E+02  0.81882699150E+02  0.47000000000E+01 0.  1.
         -5    1    1    2    0  502 -0.43388289671E+02 -0.49341506174E+01  0.19885714544E+02  0.48212251200E+02  0.47000000000E+01 0.  1.
        -11    1    3    3    0    0  0.23533468435E+02 -0.71156043593E+01  0.48048032623E+02  0.53972858002E+02  0.00000000000E+00 0. -1.
         11    1    3    3    0    0 -0.45819419119E+02  0.47985163216E+01  0.41608349086E+01  0.46257512627E+02  0.00000000000E+00 0.  1.
<mgrwt>
<rscale>  0 0.11505241E+03</rscale>
<asrwt>0</asrwt>
<pdfrwt beam="1">  1        4 0.19560360E-01 0.12699079E+03</pdfrwt>
<pdfrwt beam="2">  1       -4 0.15874305E-01 0.12699079E+03</pdfrwt>
<totfact> 0.13009151E+03</totfact>
</mgrwt>
</event>
<event>
 7    1  0.5107591E-006  0.1530817E+03  0.7546771E-02  0.1206449E+00
          1   -1    0    0  501    0  0.00000000000E+00  0.00000000000E+00  0.17521070205E+02  0.17521070205E+02  0.00000000000E+00 0. -1.
         -1   -1    0    0    0  501 -0.00000000000E+00 -0.00000000000E+00 -0.13070091627E+04  0.13070091627E+04  0.00000000000E+00 0.  1.
         23    2    1    2    0    0 -0.88363558885E+02  0.12537941482E+01 -0.32307373211E+03  0.34606678999E+03  0.87039624378E+02 0.  0.
          5    1    1    2  502    0 -0.23316016313E+01  0.39519023689E+02 -0.49770057630E+03  0.49929464572E+03  0.47000000000E+01 0.  1.
         -5    1    1    2    0  502  0.90695160516E+02 -0.40772817837E+02 -0.46871378410E+03  0.47916879721E+03  0.47000000000E+01 0.  1.
        -11    1    3    3    0    0 -0.15513334524E+02  0.11454278887E+02 -0.54543733735E+01  0.20040315411E+02  0.00000000000E+00 0. -1.
         11    1    3    3    0    0 -0.72850224361E+02 -0.10200484739E+02 -0.31761935874E+03  0.32602647458E+03  0.00000000000E+00 0.  1.
<mgrwt>
<rscale>  0 0.14523845E+03</rscale>
<asrwt>0</asrwt>
<pdfrwt beam="1">  1        1 0.26955500E-02 0.15308166E+03</pdfrwt>
<pdfrwt beam="2">  1       -1 0.20107828E+00 0.15308166E+03</pdfrwt>
<totfact> 0.64529653E+02</totfact>
</mgrwt>
</event>
<event>
 7    1  0.5107591E-006  0.1311920E+03  0.7546771E-02  0.1238391E+00
         -2   -1    0    0    0  501 -0.00000000000E+00  0.00000000000E+00  0.33635334864E+03  0.33635334864E+03  0.00000000000E+00 0.  1.
          2   -1    0    0  501    0  0.00000000000E+00 -0.00000000000E+00 -0.43021187168E+02  0.43021187168E+02  0.00000000000E+00 0. -1.
         23    2    1    2    0    0  0.37480210619E+02 -0.13492360090E+02  0.79739689233E+02  0.12870924177E+03  0.92848483613E+02 0.  0.
          5    1    1    2  502    0  0.12403464193E+02  0.59638950370E+02  0.12282012192E+03  0.13717697574E+03  0.47000000000E+01 0.  1.
         -5    1    1    2    0  502 -0.49883674812E+02 -0.46146590281E+02  0.90772350318E+02  0.11348831830E+03  0.47000000000E+01 0.  1.
        -11    1    3    3    0    0 -0.61038053459E+01 -0.38247956203E+02  0.66350185112E+02  0.76827792223E+02  0.00000000000E+00 0.  1.
         11    1    3    3    0    0  0.43584015965E+02  0.24755596113E+02  0.13389504121E+02  0.51881449548E+02  0.00000000000E+00 0. -1.
<mgrwt>
<rscale>  0 0.12289842E+03</rscale>
<asrwt>0</asrwt>
<pdfrwt beam="2">  1        2 0.66186444E-02 0.13119202E+03</pdfrwt>
<pdfrwt beam="1">  1       -2 0.51746667E-01 0.13119202E+03</pdfrwt>
<totfact> 0.37064795E+03</totfact>
</mgrwt>
</event>
<event>
 7    1  0.5107591E-006  0.2012524E+03  0.7546771E-02  0.1152855E+00
          1   -1    0    0  501    0  0.00000000000E+00  0.00000000000E+00  0.50096615306E+03  0.50096615306E+03  0.00000000000E+00 0. -1.
         -1   -1    0    0    0  501 -0.00000000000E+00 -0.00000000000E+00 -0.80137096248E+02  0.80137096248E+02  0.00000000000E+00 0.  1.
         23    2    1    2    0    0 -0.11033040245E+03 -0.11271524340E+03  0.28485747889E+03  0.33822306605E+03  0.91507023419E+02 0.  0.
          5    1    1    2  502    0  0.12570192709E+03  0.11650664990E+03  0.14456104756E+03  0.22426493354E+03  0.47000000000E+01 0.  1.
         -5    1    1    2    0  502 -0.15371524644E+02 -0.37914064943E+01 -0.85894696400E+01  0.18615249710E+02  0.47000000000E+01 0.  1.
        -11    1    3    3    0    0 -0.23138796127E+02 -0.48077032184E+02  0.17833561963E+03  0.18614617412E+03  0.00000000000E+00 0. -1.
         11    1    3    3    0    0 -0.87191606318E+02 -0.64638211218E+02  0.10652185926E+03  0.15207689194E+03  0.00000000000E+00 0.  1.
<mgrwt>
<rscale>  0 0.19635024E+03</rscale>
<asrwt>0</asrwt>
<pdfrwt beam="1">  1        1 0.77071714E-01 0.20125236E+03</pdfrwt>
<pdfrwt beam="2">  1       -1 0.12328784E-01 0.20125236E+03</pdfrwt>
<totfact> 0.19622977E+03</totfact>
</mgrwt>
</event>
<event>
 7    1  0.5107591E-006  0.1275301E+03  0.7546771E-02  0.1245286E+00
          3   -1    0    0  501    0  0.00000000000E+00  0.00000000000E+00  0.48771346815E+02  0.48771346815E+02  0.00000000000E+00 0. -1.
         -3   -1    0    0    0  501 -0.00000000000E+00 -0.00000000000E+00 -0.33762851163E+03  0.33762851163E+03  0.00000000000E+00 0.  1.
         23    2    1    2    0    0 -0.17070423996E+02  0.18653642518E+02 -0.34185011978E+02  0.10158089934E+03  0.92253489435E+02 0.  0.
          5    1    1    2  502    0  0.26426839501E+02 -0.60202001134E+02 -0.73841762771E+02  0.98981587761E+02  0.47000000000E+01 0. -1.
         -5    1    1    2    0  502 -0.93564155050E+01  0.41548358616E+02 -0.18083039006E+03  0.18583737133E+03  0.47000000000E+01 0. -1.
        -11    1    3    3    0    0 -0.11556284506E+02  0.51513910375E+02  0.14248305751E+01  0.52813452982E+02  0.00000000000E+00 0. -1.
         11    1    3    3    0    0 -0.55141394898E+01 -0.32860267857E+02 -0.35609842553E+02  0.48767446362E+02  0.00000000000E+00 0.  1.
<mgrwt>
<rscale>  0 0.11868275E+03</rscale>
<asrwt>0</asrwt>
<pdfrwt beam="1">  1        3 0.75032839E-02 0.12753013E+03</pdfrwt>
<pdfrwt beam="2">  1       -3 0.51942849E-01 0.12753013E+03</pdfrwt>
<totfact> 0.10006427E+03</totfact>
</mgrwt>
</event>
<event>
 7    1  0.5107591E-006  0.1310172E+03  0.7546771E-02  0.1239175E+00
          1   -1    0    0  501    0  0.00000000000E+00  0.00000000000E+00  0.18496132025E+03  0.18496132025E+03  0.00000000000E+00 0. -1.
         -1   -1    0    0    0  501 -0.00000000000E+00 -0.00000000000E+00 -0.11306813857E+03  0.11306813857E+03  0.00000000000E+00 0.  1.
         23    2    1    2    0    0  0.26714586224E+02  0.28819426223E+02  0.12210335040E+03  0.15772058603E+03  0.91773234840E+02 0.  0.
          5    1    1    2  502    0 -0.22419794043E+02  0.43104612116E+02 -0.47412865671E+02  0.68049427490E+02  0.47000000000E+01 0. -1.
         -5    1    1    2    0  502 -0.42947921812E+01 -0.71924038339E+02 -0.27973030425E+01  0.72259445300E+02  0.47000000000E+01 0. -1.
        -11    1    3    3    0    0 -0.13723359084E+02  0.36990017441E+02  0.10656885024E+03  0.11363763380E+03  0.00000000000E+00 0. -1.
         11    1    3    3    0    0  0.40437945308E+02 -0.81705912176E+01  0.15534500158E+02  0.44082952224E+02  0.00000000000E+00 0.  1.
<mgrwt>
<rscale>  0 0.12240932E+03</rscale>
<asrwt>0</asrwt>
<pdfrwt beam="1">  1        1 0.28455588E-01 0.13101725E+03</pdfrwt>
<pdfrwt beam="2">  1       -1 0.17395098E-01 0.13101725E+03</pdfrwt>
<totfact> 0.39355379E+03</totfact>
</mgrwt>
</event>
<event>
 7    1  0.5107591E-006  0.1466027E+03  0.7546771E-02  0.1214237E+00
          1   -1    0    0  501    0  0.00000000000E+00  0.00000000000E+00  0.66185323340E+02  0.66185323340E+02  0.00000000000E+00 0. -1.
         -1   -1    0    0    0  501 -0.00000000000E+00 -0.00000000000E+00 -0.44757317588E+03  0.44757317588E+03  0.00000000000E+00 0.  1.
         23    2    1    2    0    0  0.76522350560E+02 -0.34492990615E+01 -0.16763879285E+02  0.12076612414E+03  0.91846944927E+02 0.  0.
          5    1    1    2  502    0 -0.38017547236E+02 -0.57281804782E+02 -0.23246237390E+03  0.24246109860E+03  0.47000000000E+01 0.  1.
         -5    1    1    2    0  502 -0.38504803323E+02  0.60731103844E+02 -0.13216159936E+03  0.15053127648E+03  0.47000000000E+01 0.  1.
        -11    1    3    3    0    0  0.67751537371E+02  0.25161209801E+02  0.18414298182E+02  0.74581791829E+02  0.00000000000E+00 0. -1.
         11    1    3    3    0    0  0.87708131885E+01 -0.28610508863E+02 -0.35178177467E+02  0.46184332314E+02  0.00000000000E+00 0.  1.
<mgrwt>
<rscale>  0 0.13932742E+03</rscale>
<asrwt>0</asrwt>
<pdfrwt beam="1">  1        1 0.10182357E-01 0.14660275E+03</pdfrwt>
<pdfrwt beam="2">  1       -1 0.68857413E-01 0.14660275E+03</pdfrwt>
<totfact> 0.13627437E+03</totfact>
</mgrwt>
</event>
<event>
 7    1  0.5107591E-006  0.1463082E+03  0.7546771E-02  0.1214546E+00
         -2   -1    0    0    0  501 -0.00000000000E+00  0.00000000000E+00  0.29901567048E+02  0.29901567048E+02  0.00000000000E+00 0.  1.
          2   -1    0    0  501    0  0.00000000000E+00 -0.00000000000E+00 -0.59996672274E+03  0.59996672274E+03  0.00000000000E+00 0. -1.
         23    2    1    2    0    0  0.34563642295E+02  0.67724866278E+02 -0.21817770389E+03  0.24877659605E+03  0.92233298680E+02 0.  0.
          5    1    1    2  502    0  0.19721776758E+02 -0.26069562072E+02 -0.27922699260E+03  0.28117320985E+03  0.47000000000E+01 0. -1.
         -5    1    1    2    0  502 -0.54285419053E+02 -0.41655304206E+02 -0.72660459208E+02  0.99918483889E+02  0.47000000000E+01 0. -1.
        -11    1    3    3    0    0  0.30691771534E+02  0.16002723627E+02 -0.18266868517E+03  0.18591912367E+03  0.00000000000E+00 0. -1.
         11    1    3    3    0    0  0.38718707608E+01  0.51722142651E+02 -0.35509018719E+02  0.62857472380E+02  0.00000000000E+00 0.  1.
<mgrwt>
<rscale>  0 0.13909903E+03</rscale>
<asrwt>0</asrwt>
<pdfrwt beam="2">  1        2 0.92302578E-01 0.14630824E+03</pdfrwt>
<pdfrwt beam="1">  1       -2 0.46002408E-02 0.14630824E+03</pdfrwt>
<totfact> 0.10755207E+04</totfact>
</mgrwt>
</event>
<event>
 7    1  0.5107591E-006  0.2368241E+03  0.7546771E-02  0.1124698E+00
         -1   -1    0    0    0  501 -0.00000000000E+00  0.00000000000E+00  0.68621384238E+02  0.68621384238E+02  0.00000000000E+00 0.  1.
          1   -1    0    0  501    0  0.00000000000E+00 -0.00000000000E+00 -0.78552505155E+03  0.78552505155E+03  0.00000000000E+00 0. -1.
         23    2    1    2    0    0 -0.94381022039E+02  0.17763446615E+03 -0.41741281158E+03  0.47233440801E+03  0.91676370107E+02 0.  0.
          5    1    1    2  502    0  0.10503648987E+03 -0.70112984794E+02 -0.18761406027E+03  0.22620703007E+03  0.47000000000E+01 0. -1.
         -5    1    1    2    0  502 -0.10655467832E+02 -0.10752148136E+03 -0.11187679546E+03  0.15560499770E+03  0.47000000000E+01 0. -1.
        -11    1    3    3    0    0 -0.93509997925E+02  0.15488022628E+03 -0.41039881208E+03  0.44850773590E+03  0.00000000000E+00 0. -1.
         11    1    3    3    0    0 -0.87102411443E+00  0.22754239871E+02 -0.70139995019E+01  0.23826672116E+02  0.00000000000E+00 0.  1.
<mgrwt>
<rscale>  0 0.23277999E+03</rscale>
<asrwt>0</asrwt>
<pdfrwt beam="2">  1        1 0.12085001E+00 0.23682409E+03</pdfrwt>
<pdfrwt beam="1">  1       -1 0.10557136E-01 0.23682409E+03</pdfrwt>
<totfact> 0.13277370E+03</totfact>
</mgrwt>
</event>
<event>
 7    1  0.5107591E-006  0.1292978E+03  0.7546771E-02  0.1242199E+00
         -1   -1    0    0    0  501 -0.00000000000E+00  0.00000000000E+00  0.79469053320E+02  0.79469053320E+02  0.00000000000E+00 0.  1.
          1   -1    0    0  501    0  0.00000000000E+00 -0.00000000000E+00 -0.16687749786E+03  0.16687749786E+03  0.00000000000E+00 0. -1.
         23    2    1    2    0    0  0.28158593669E+02 -0.18250335586E+02 -0.58475438001E+02  0.11385107945E+03  0.91742630742E+02 0.  0.
          5    1    1    2  502    0 -0.86182071384E+01  0.67609189855E+02  0.63003965938E+01  0.68608024635E+02  0.47000000000E+01 0. -1.
         -5    1    1    2    0  502 -0.19540386530E+02 -0.49358854269E+02 -0.35233403136E+02  0.63887447100E+02  0.47000000000E+01 0. -1.
        -11    1    3    3    0    0  0.16784574468E+02  0.37135093962E+02 -0.29566971160E+02  0.50348216723E+02  0.00000000000E+00 0.  1.
         11    1    3    3    0    0  0.11374019201E+02 -0.55385429548E+02 -0.28908466841E+02  0.63502862724E+02  0.00000000000E+00 0. -1.
<mgrwt>
<rscale>  0 0.12054586E+03</rscale>
<asrwt>0</asrwt>
<pdfrwt beam="2">  1        1 0.25673461E-01 0.12929784E+03</pdfrwt>
<pdfrwt beam="1">  1       -1 0.12226008E-01 0.12929784E+03</pdfrwt>
<totfact> 0.77569594E+03</totfact>
</mgrwt>
</event>
<event>
 7    1  0.5107591E-006  0.1594549E+03  0.7546771E-02  0.1197058E+00
          2   -1    0    0  501    0  0.00000000000E+00  0.00000000000E+00  0.66850030458E+03  0.66850030458E+03  0.00000000000E+00 0. -1.
         -2   -1    0    0    0  501 -0.00000000000E+00 -0.00000000000E+00 -0.32409539483E+02  0.32409539483E+02  0.00000000000E+00 0.  1.
         23    2    1    2    0    0 -0.92755242380E+02 -0.34590836534E+02  0.27232461472E+03  0.30373020505E+03  0.91056469912E+02 0.  0.
          5    1    1    2  502    0  0.44917838667E+01  0.56825001300E+02  0.74679271323E+02  0.94065617844E+02  0.47000000000E+01 0.  1.
         -5    1    1    2    0  502  0.88263458514E+02 -0.22234164766E+02  0.28908687906E+03  0.30311402118E+03  0.47000000000E+01 0.  1.
        -11    1    3    3    0    0 -0.54833806182E+02  0.27743000403E+02  0.13001720399E+03  0.14380853141E+03  0.00000000000E+00 0.  1.
         11    1    3    3    0    0 -0.37921436199E+02 -0.62333836938E+02  0.14230741073E+03  0.15992167364E+03  0.00000000000E+00 0. -1.
<mgrwt>
<rscale>  0 0.15281366E+03</rscale>
<asrwt>0</asrwt>
<pdfrwt beam="1">  1        2 0.10284619E+00 0.15945486E+03</pdfrwt>
<pdfrwt beam="2">  1       -2 0.49860835E-02 0.15945486E+03</pdfrwt>
<totfact> 0.84508393E+03</totfact>
</mgrwt>
</event>
<event>
 7    1  0.5107591E-006  0.2038547E+03  0.7546771E-02  0.1151639E+00
          2   -1    0    0  501    0  0.00000000000E+00  0.00000000000E+00  0.36659058879E+03  0.36659058879E+03  0.00000000000E+00 0. -1.
         -2   -1    0    0    0  501 -0.00000000000E+00 -0.00000000000E+00 -0.10728742297E+03  0.10728742297E+03  0.00000000000E+00 0.  1.
         23    2    1    2    0    0  0.53158140966E+02 -0.15200618543E+03  0.18053024665E+03  0.25533303292E+03  0.81683042190E+02 0.  0.
          5    1    1    2  502    0 -0.25520964438E+02 -0.21248103086E+01 -0.20448805442E+02  0.33107070072E+02  0.47000000000E+01 0.  1.
         -5    1    1    2    0  502 -0.27637176527E+02  0.15413099574E+03  0.99221724615E+02  0.18543790877E+03  0.47000000000E+01 0.  1.
        -11    1    3    3    0    0  0.63831295615E+02 -0.13069824599E+03  0.11443467927E+03  0.18507231458E+03  0.00000000000E+00 0.  1.
         11    1    3    3    0    0 -0.10673154649E+02 -0.21307939441E+02  0.66095567379E+02  0.70260718332E+02  0.00000000000E+00 0. -1.
<mgrwt>
<rscale>  0 0.19776482E+03</rscale>
<asrwt>0</asrwt>
<pdfrwt beam="1">  1        2 0.56398552E-01 0.20385469E+03</pdfrwt>
<pdfrwt beam="2">  1       -2 0.16505758E-01 0.20385469E+03</pdfrwt>
<totfact> 0.25316012E+03</totfact>
</mgrwt>
</event>
<event>
 7    1  0.5107591E-006  0.2386875E+03  0.7546771E-02  0.1123805E+00
          2   -1    0    0  501    0  0.00000000000E+00  0.00000000000E+00  0.69930094506E+03  0.69930094506E+03  0.00000000000E+00 0. -1.
         -2   -1    0    0    0  501 -0.00000000000E+00 -0.00000000000E+00 -0.77199843643E+02  0.77199843643E+02  0.00000000000E+00 0.  1.
         23    2    1    2    0    0  0.15848833618E+03  0.12738382593E+03  0.35734484742E+03  0.42003538596E+03  0.85960419176E+02 0.  0.
          5    1    1    2  502    0 -0.28577725914E+02 -0.70330152879E+02  0.29271452363E+02  0.81498004551E+02  0.47000000000E+01 0.  1.
         -5    1    1    2    0  502 -0.12991061027E+03 -0.57053673050E+02  0.23548480163E+03  0.27496739819E+03  0.47000000000E+01 0.  1.
        -11    1    3    3    0    0  0.78969929549E+02  0.11037023425E+02  0.12320495524E+03  0.14675669203E+03  0.00000000000E+00 0.  1.
         11    1    3    3    0    0  0.79518406634E+02  0.11634680250E+03  0.23413989218E+03  0.27327869393E+03  0.00000000000E+00 0. -1.
<mgrwt>
<rscale>  0 0.23407318E+03</rscale>
<asrwt>0</asrwt>
<pdfrwt beam="1">  1        2 0.10758476E+00 0.23868747E+03</pdfrwt>
<pdfrwt beam="2">  1       -2 0.11876900E-01 0.23868747E+03</pdfrwt>
<totfact> 0.21041773E+03</totfact>
</mgrwt>
</event>
<event>
 7    1  0.5107591E-006  0.2180614E+03  0.7546771E-02  0.1138737E+00
          2   -1    0    0  501    0  0.00000000000E+00  0.00000000000E+00  0.14206971671E+03  0.14206971671E+03  0.00000000000E+00 0. -1.
         -2   -1    0    0    0  501 -0.00000000000E+00 -0.00000000000E+00 -0.33567362519E+03  0.33567362519E+03  0.00000000000E+00 0.  1.
         23    2    1    2    0    0  0.64632031269E+01  0.17856712383E+03 -0.25516707696E+02  0.20241790810E+03  0.91618319347E+02 0.  0.
          5    1    1    2  502    0 -0.48927697432E+02 -0.16448131042E+03 -0.11984607393E+03  0.20936378027E+03  0.47000000000E+01 0. -1.
         -5    1    1    2    0  502  0.42464494305E+02 -0.14085813411E+02 -0.48241126849E+02  0.65961653524E+02  0.47000000000E+01 0. -1.
        -11    1    3    3    0    0 -0.29807740869E+01  0.10137677747E+03  0.31262690973E+02  0.10612959941E+03  0.00000000000E+00 0. -1.
         11    1    3    3    0    0  0.94439772138E+01  0.77190346367E+02 -0.56779398669E+02  0.96288308694E+02  0.00000000000E+00 0.  1.
<mgrwt>
<rscale>  0 0.21361256E+03</rscale>
<asrwt>0</asrwt>
<pdfrwt beam="1">  1        2 0.21856880E-01 0.21806143E+03</pdfrwt>
<pdfrwt beam="2">  1       -2 0.51642095E-01 0.21806143E+03</pdfrwt>
<totfact> 0.89901114E+02</totfact>
</mgrwt>
</event>
<event>
 7    1  0.5107591E-006  0.1268846E+03  0.7546771E-02  0.1249865E+00
         -1   -1    0    0    0  501 -0.00000000000E+00  0.00000000000E+00  0.63167003938E+03  0.63167003938E+03  0.00000000000E+00 0.  1.
          1   -1    0    0  501    0  0.00000000000E+00 -0.00000000000E+00 -0.33809258856E+02  0.33809258856E+02  0.00000000000E+00 0. -1.
         23    2    1    2    0    0 -0.48211656531E+01  0.21268924968E+02  0.47198397181E+02  0.10038747060E+03  0.85874005091E+02 0.  0.
          5    1    1    2  502    0 -0.23770569949E+02  0.29285821845E+02  0.42364111635E+03  0.42534290263E+03  0.47000000000E+01 0. -1.
         -5    1    1    2    0  502  0.28591735602E+02 -0.50554746813E+02  0.12702126699E+03  0.13974892499E+03  0.47000000000E+01 0. -1.
        -11    1    3    3    0    0  0.37857617392E+01  0.28247392209E+02  0.69702170819E+02  0.75303650479E+02  0.00000000000E+00 0.  1.
         11    1    3    3    0    0 -0.86069273923E+01 -0.69784672406E+01 -0.22503773638E+02  0.25083820126E+02  0.00000000000E+00 0. -1.
<mgrwt>
<rscale>  0 0.11598857E+03</rscale>
<asrwt>0</asrwt>
<pdfrwt beam="2">  1        1 0.52014249E-02 0.12688465E+03</pdfrwt>
<pdfrwt beam="1">  1       -1 0.97179997E-01 0.12688465E+03</pdfrwt>
<totfact> 0.16446516E+03</totfact>
</mgrwt>
</event>
<event>
 7    1  0.5107591E-006  0.1277786E+03  0.7546771E-02  0.1245930E+00
          3   -1    0    0  501    0  0.00000000000E+00  0.00000000000E+00  0.19915219101E+03  0.19915219101E+03  0.00000000000E+00 0. -1.
         -3   -1    0    0    0  501 -0.00000000000E+00 -0.00000000000E+00 -0.66558324559E+02  0.66558324559E+02  0.00000000000E+00 0.  1.
         23    2    1    2    0    0  0.12611582952E+02 -0.23335411153E+02  0.92498588392E+02  0.13178887149E+03  0.90048455597E+02 0.  0.
          5    1    1    2  502    0  0.25331982410E+02  0.46623345370E+02 -0.21780421792E+02  0.57549304425E+02  0.47000000000E+01 0. -1.
         -5    1    1    2    0  502 -0.37943565363E+02 -0.23287934217E+02  0.61875699848E+02  0.76372339654E+02  0.47000000000E+01 0. -1.
        -11    1    3    3    0    0  0.31290945222E+02 -0.18920901245E+02  0.10342772013E+03  0.10970149063E+03  0.00000000000E+00 0. -1.
         11    1    3    3    0    0 -0.18679362270E+02 -0.44145099080E+01 -0.10929131734E+02  0.22087380854E+02  0.00000000000E+00 0.  1.
<mgrwt>
<rscale>  0 0.11829868E+03</rscale>
<asrwt>0</asrwt>
<pdfrwt beam="1">  1        3 0.30638798E-01 0.12777862E+03</pdfrwt>
<pdfrwt beam="2">  1       -3 0.10239742E-01 0.12777862E+03</pdfrwt>
<totfact> 0.16635735E+03</totfact>
</mgrwt>
</event>
<event>
 7    1  0.5107591E-006  0.1799576E+03  0.7546771E-02  0.1173715E+00
          2   -1    0    0  501    0  0.00000000000E+00  0.00000000000E+00  0.47967543522E+03  0.47967543522E+03  0.00000000000E+00 0. -1.
         -2   -1    0    0    0  501 -0.00000000000E+00 -0.00000000000E+00 -0.59879202167E+02  0.59879202167E+02  0.00000000000E+00 0.  1.
         23    2    1    2    0    0  0.56471503915E+02  0.11649788853E+03  0.22231398880E+03  0.27237683548E+03  0.89469783180E+02 0.  0.
          5    1    1    2  502    0 -0.25142716040E+02 -0.26110859240E+02 -0.10644910420E+02  0.38070162306E+02  0.47000000000E+01 0. -1.
         -5    1    1    2    0  502 -0.31328787875E+02 -0.90387029286E+02  0.20812715467E+03  0.22910763960E+03  0.47000000000E+01 0. -1.
        -11    1    3    3    0    0  0.58463266777E+02  0.21628547949E+02  0.82465552809E+02  0.10337463445E+03  0.00000000000E+00 0. -1.
         11    1    3    3    0    0 -0.19917628617E+01  0.94869340577E+02  0.13984843599E+03  0.16900220102E+03  0.00000000000E+00 0.  1.
<mgrwt>
<rscale>  0 0.17402388E+03</rscale>
<asrwt>0</asrwt>
<pdfrwt beam="1">  1        2 0.73796218E-01 0.17995761E+03</pdfrwt>
<pdfrwt beam="2">  1       -2 0.92121853E-02 0.17995761E+03</pdfrwt>
<totfact> 0.48250963E+03</totfact>
</mgrwt>
</event>
<event>
 7    1  0.5107591E-006  0.1445151E+03  0.7546771E-02  0.1221191E+00
          2   -1    0    0  501    0  0.00000000000E+00  0.00000000000E+00  0.78573963641E+03  0.78573963641E+03  0.00000000000E+00 0. -1.
         -2   -1    0    0    0  501 -0.00000000000E+00 -0.00000000000E+00 -0.20285060409E+02  0.20285060409E+02  0.00000000000E+00 0.  1.
         23    2    1    2    0    0 -0.70298603632E+02  0.17883219328E+02  0.31338966590E+03  0.33142243643E+03  0.79787501973E+02 0.  0.
          5    1    1    2  502    0  0.23452493777E+02 -0.60794105614E+02  0.33516124919E+03  0.34146902597E+03  0.47000000000E+01 0.  1.
         -5    1    1    2    0  502  0.46846109855E+02  0.42910886287E+02  0.11690366091E+03  0.13313323441E+03  0.47000000000E+01 0.  1.
        -11    1    3    3    0    0 -0.44891512297E+02  0.24694786533E+02  0.29478310284E+03  0.29920253689E+03  0.00000000000E+00 0. -1.
         11    1    3    3    0    0 -0.25407091335E+02 -0.68115672055E+01  0.18606563061E+02  0.32219899548E+02  0.00000000000E+00 0.  1.
<mgrwt>
<rscale>  0 0.13431420E+03</rscale>
<asrwt>0</asrwt>
<pdfrwt beam="1">  1        2 0.12088300E+00 0.14451513E+03</pdfrwt>
<pdfrwt beam="2">  1       -2 0.31207791E-02 0.14451513E+03</pdfrwt>
<totfact> 0.13890237E+04</totfact>
</mgrwt>
</event>
<event>
 7    1  0.5107591E-006  0.1638082E+03  0.7546771E-02  0.1191359E+00
         -3   -1    0    0    0  501 -0.00000000000E+00  0.00000000000E+00  0.63257050073E+02  0.63257050073E+02  0.00000000000E+00 0.  1.
          3   -1    0    0  501    0  0.00000000000E+00 -0.00000000000E+00 -0.38997144256E+03  0.38997144256E+03  0.00000000000E+00 0. -1.
         23    2    1    2    0    0  0.94635819205E+02 -0.47458210165E+02 -0.20747708127E+03  0.25061883460E+03  0.92492383566E+02 0.  0.
          5    1    1    2  502    0  0.26306140796E+02  0.45042750017E+01 -0.49588375225E+02  0.56510162753E+02  0.47000000000E+01 0.  1.
         -5    1    1    2    0  502 -0.12094196000E+03  0.42953935163E+02 -0.69648935994E+02  0.14609949528E+03  0.47000000000E+01 0.  1.
        -11    1    3    3    0    0 -0.46242588057E+01 -0.40804877817E+02 -0.58198944770E+02  0.71228779264E+02  0.00000000000E+00 0.  1.
         11    1    3    3    0    0  0.99260078011E+02 -0.66533323479E+01 -0.14927813650E+03  0.17939005534E+03  0.00000000000E+00 0. -1.
<mgrwt>
<rscale>  0 0.15766437E+03</rscale>
<asrwt>0</asrwt>
<pdfrwt beam="2">  1        3 0.59995606E-01 0.16380823E+03</pdfrwt>
<pdfrwt beam="1">  1       -3 0.97318539E-02 0.16380823E+03</pdfrwt>
<totfact> 0.50628992E+02</totfact>
</mgrwt>
</event>
<event>
 7    1  0.5107591E-006  0.1316376E+03  0.7546771E-02  0.1239515E+00
          1   -1    0    0  501    0  0.00000000000E+00  0.00000000000E+00  0.41424905144E+03  0.41424905144E+03  0.00000000000E+00 0. -1.
         -1   -1    0    0    0  501 -0.00000000000E+00 -0.00000000000E+00 -0.57167869400E+02  0.57167869400E+02  0.00000000000E+00 0.  1.
         23    2    1    2    0    0  0.28320349932E+02  0.30032265288E+02  0.32008733567E+03  0.33467990345E+03  0.88604492749E+02 0.  0.
          5    1    1    2  502    0 -0.26650708008E+02  0.40145595054E+02  0.44784590730E+02  0.65952093268E+02  0.47000000000E+01 0. -1.
         -5    1    1    2    0  502 -0.16696419243E+01 -0.70177860342E+02 -0.77907443569E+01  0.70784924129E+02  0.47000000000E+01 0. -1.
        -11    1    3    3    0    0 -0.27158396210E+02  0.32072224741E+02  0.12725285670E+03  0.13401304274E+03  0.00000000000E+00 0.  1.
         11    1    3    3    0    0  0.55478746142E+02 -0.20399594533E+01  0.19283447897E+03  0.20066686071E+03  0.00000000000E+00 0. -1.
<mgrwt>
<rscale>  0 0.12219752E+03</rscale>
<asrwt>0</asrwt>
<pdfrwt beam="1">  1        1 0.63730621E-01 0.13163764E+03</pdfrwt>
<pdfrwt beam="2">  1       -1 0.87950571E-02 0.13163764E+03</pdfrwt>
<totfact> 0.41523838E+03</totfact>
</mgrwt>
</event>
<event>
 7    1  0.5107591E-006  0.1362977E+03  0.7546771E-02  0.1230309E+00
         -2   -1    0    0    0  501 -0.00000000000E+00  0.00000000000E+00  0.18981889253E+03  0.18981889253E+03  0.00000000000E+00 0.  1.
          2   -1    0    0  501    0  0.00000000000E+00 -0.00000000000E+00 -0.86410181410E+02  0.86410181410E+02  0.00000000000E+00 0. -1.
         23    2    1    2    0    0  0.30757038264E+02 -0.44767461260E+02  0.20136414951E+01  0.10635258486E+03  0.91414969040E+02 0.  0.
          5    1    1    2  502    0 -0.77460364034E+02  0.37894007925E+02  0.80420309474E+02  0.11800669476E+03  0.47000000000E+01 0.  1.
         -5    1    1    2    0  502  0.46703325769E+02  0.68734533348E+01  0.20974760150E+02  0.51869794313E+02  0.47000000000E+01 0.  1.
        -11    1    3    3    0    0  0.15454274181E+02  0.26878098455E+02 -0.89615701118E+01  0.32273464423E+02  0.00000000000E+00 0. -1.
         11    1    3    3    0    0  0.15302764083E+02 -0.71645559715E+02  0.10975211607E+02  0.74079120440E+02  0.00000000000E+00 0.  1.
<mgrwt>
<rscale>  0 0.12809552E+03</rscale>
<asrwt>0</asrwt>
<pdfrwt beam="2">  1        2 0.13293874E-01 0.13629769E+03</pdfrwt>
<pdfrwt beam="1">  1       -2 0.29202907E-01 0.13629769E+03</pdfrwt>
<totfact> 0.46197708E+03</totfact>
</mgrwt>
</event>
<event>
 7    1  0.5107591E-006  0.1404222E+03  0.7546771E-02  0.1224603E+00
         -1   -1    0    0    0  501 -0.00000000000E+00  0.00000000000E+00  0.30335333960E+02  0.30335333960E+02  0.00000000000E+00 0.  1.
          1   -1    0    0  501    0  0.00000000000E+00 -0.00000000000E+00 -0.51531486727E+03  0.51531486727E+03  0.00000000000E+00 0. -1.
         23    2    1    2    0    0  0.45893172603E+02 -0.44514513078E+02 -0.22287106696E+03  0.24829647682E+03  0.88836381890E+02 0.  0.
          5    1    1    2  502    0 -0.29815584077E+02  0.77628121657E+02 -0.24026711018E+03  0.25429405923E+03  0.47000000000E+01 0.  1.
         -5    1    1    2    0  502 -0.16077588526E+02 -0.33113608579E+02 -0.21841356169E+02  0.43059665178E+02  0.47000000000E+01 0.  1.
        -11    1    3    3    0    0  0.63468240559E+02 -0.30071098696E+02 -0.93491608123E+02  0.11693232798E+03  0.00000000000E+00 0.  1.
         11    1    3    3    0    0 -0.17575067957E+02 -0.14443414382E+02 -0.12937945883E+03  0.13136414884E+03  0.00000000000E+00 0. -1.
<mgrwt>
<rscale>  0 0.13194174E+03</rscale>
<asrwt>0</asrwt>
<pdfrwt beam="2">  1        1 0.79279209E-01 0.14042218E+03</pdfrwt>
<pdfrwt beam="1">  1       -1 0.46669745E-02 0.14042218E+03</pdfrwt>
<totfact> 0.81115865E+03</totfact>
</mgrwt>
</event>
<event>
 7    1  0.5107591E-006  0.2553838E+03  0.7546771E-02  0.1112210E+00
          3   -1    0    0  501    0  0.00000000000E+00  0.00000000000E+00  0.65082118304E+02  0.65082118304E+02  0.00000000000E+00 0. -1.
         -3   -1    0    0    0  501 -0.00000000000E+00 -0.00000000000E+00 -0.10720855287E+04  0.10720855287E+04  0.00000000000E+00 0.  1.
         23    2    1    2    0    0  0.56519314156E+02  0.21540771956E+03 -0.29652629096E+03  0.38218511540E+03  0.92426742224E+02 0.  0.
          5    1    1    2  502    0 -0.22019102354E+02 -0.81244617574E+01 -0.14559863524E+02  0.28016555340E+02  0.47000000000E+01 0.  1.
         -5    1    1    2    0  502 -0.34500211803E+02 -0.20728325780E+03 -0.69591725592E+03  0.72696597628E+03  0.47000000000E+01 0.  1.
        -11    1    3    3    0    0  0.45598811492E+01  0.15837864020E+03 -0.23539201246E+03  0.28374986470E+03  0.00000000000E+00 0.  1.
         11    1    3    3    0    0  0.51959433007E+02  0.57029079366E+02 -0.61134278503E+02  0.98435250697E+02  0.00000000000E+00 0. -1.
<mgrwt>
<rscale>  0 0.25173996E+03</rscale>
<asrwt>0</asrwt>
<pdfrwt beam="1">  1        3 0.10012634E-01 0.25538380E+03</pdfrwt>
<pdfrwt beam="2">  1       -3 0.16493623E+00 0.25538380E+03</pdfrwt>
<totfact> 0.49091274E+01</totfact>
</mgrwt>
</event>
<event>
 7    1  0.5107591E-006  0.2241501E+03  0.7546771E-02  0.1134036E+00
          2   -1    0    0  501    0  0.00000000000E+00  0.00000000000E+00  0.18697823531E+04  0.18697823531E+04  0.00000000000E+00 0. -1.
         -2   -1    0    0    0  501 -0.00000000000E+00 -0.00000000000E+00 -0.25898979747E+02  0.25898979747E+02  0.00000000000E+00 0.  1.
         23    2    1    2    0    0 -0.39510990921E+02  0.18180979897E+03  0.69944351364E+03  0.72949702428E+03  0.91262030745E+02 0.  0.
          5    1    1    2  502    0  0.69668824557E+02 -0.11270083823E+03  0.49803962467E+03  0.51538411092E+03  0.47000000000E+01 0. -1.
         -5    1    1    2    0  502 -0.30157833635E+02 -0.69108960746E+02  0.64640023504E+03  0.65080019764E+03  0.47000000000E+01 0. -1.
        -11    1    3    3    0    0 -0.89374638936E+01  0.89898505579E+02  0.18342465901E+03  0.20446570641E+03  0.00000000000E+00 0.  1.
         11    1    3    3    0    0 -0.30573527028E+02  0.91911293396E+02  0.51601885463E+03  0.52503131787E+03  0.00000000000E+00 0. -1.
<mgrwt>
<rscale>  0 0.21979500E+03</rscale>
<asrwt>0</asrwt>
<pdfrwt beam="1">  1        2 0.28765872E+00 0.22415006E+03</pdfrwt>
<pdfrwt beam="2">  1       -2 0.39844599E-02 0.22415006E+03</pdfrwt>
<totfact> 0.24079040E+03</totfact>
</mgrwt>
</event>
<event>
 7    1  0.5107591E-006  0.2990488E+03  0.7546771E-02  0.1087363E+00
         -1   -1    0    0    0  501 -0.00000000000E+00  0.00000000000E+00  0.42234341225E+02  0.42234341225E+02  0.00000000000E+00 0.  1.
          1   -1    0    0  501    0  0.00000000000E+00 -0.00000000000E+00 -0.22140899008E+04  0.22140899008E+04  0.00000000000E+00 0. -1.
         23    2    1    2    0    0  0.25969518745E+03 -0.79872189958E+02 -0.13913842991E+04  0.14205218907E+04  0.90061184905E+02 0.  0.
          5    1    1    2  502    0 -0.13166095714E+03 -0.63168291145E+01 -0.24177154910E+03  0.27540893580E+03  0.47000000000E+01 0.  1.
         -5    1    1    2    0  502 -0.12803423031E+03  0.86189019072E+02 -0.53869971138E+03  0.56039341554E+03  0.47000000000E+01 0.  1.
        -11    1    3    3    0    0  0.17138875696E+03 -0.22892865670E+02 -0.10200906186E+04  0.10346415125E+04  0.00000000000E+00 0. -1.
         11    1    3    3    0    0  0.88306430496E+02 -0.56979324288E+02 -0.37129368056E+03  0.38588037821E+03  0.00000000000E+00 0.  1.
<mgrwt>
<rscale>  0 0.29579331E+03</rscale>
<asrwt>0</asrwt>
<pdfrwt beam="2">  1        1 0.34062919E+00 0.29904880E+03</pdfrwt>
<pdfrwt beam="1">  1       -1 0.64975915E-02 0.29904880E+03</pdfrwt>
<totfact> 0.28817181E+02</totfact>
</mgrwt>
</event>
<event>
 7    1  0.5107591E-006  0.2280593E+03  0.7546771E-02  0.1128013E+00
         -2   -1    0    0    0  501 -0.00000000000E+00  0.00000000000E+00  0.15042018457E+03  0.15042018457E+03  0.00000000000E+00 0.  1.
          2   -1    0    0  501    0  0.00000000000E+00 -0.00000000000E+00 -0.86442949405E+02  0.86442949405E+02  0.00000000000E+00 0. -1.
         23    2    1    2    0    0 -0.27305986907E+01 -0.30543570308E+02  0.45863590269E+02  0.10681148682E+03  0.91459602817E+02 0.  0.
          5    1    1    2  502    0 -0.42105700257E+02 -0.29990909442E+02  0.16814142364E+02  0.54563266276E+02  0.47000000000E+01 0.  1.
         -5    1    1    2    0  502  0.44836298947E+02  0.60534479750E+02  0.12995025357E+01  0.75488380886E+02  0.47000000000E+01 0.  1.
        -11    1    3    3    0    0  0.32522188546E+02 -0.95152121241E+01  0.55147842942E+02  0.64726475191E+02  0.00000000000E+00 0.  1.
         11    1    3    3    0    0 -0.35252787237E+02 -0.21028358183E+02 -0.92842526729E+01  0.42085011626E+02  0.00000000000E+00 0. -1.
<mgrwt>
<rscale>  0 0.22805933E+03</rscale>
<asrwt>0</asrwt>
<pdfrwt beam="2">  1        2 0.13298915E-01 0.22805933E+03</pdfrwt>
<pdfrwt beam="1">  1       -2 0.23141567E-01 0.22805933E+03</pdfrwt>
<totfact> 0.72003642E+03</totfact>
</mgrwt>
</event>
<event>
 7    1  0.5107591E-006  0.1954684E+03  0.7546771E-02  0.1157393E+00
          2   -1    0    0  501    0  0.00000000000E+00  0.00000000000E+00  0.36762921446E+03  0.36762921446E+03  0.00000000000E+00 0. -1.
         -2   -1    0    0    0  501 -0.00000000000E+00 -0.00000000000E+00 -0.95607611609E+02  0.95607611609E+02  0.00000000000E+00 0.  1.
         23    2    1    2    0    0  0.15025814518E+03 -0.23160818540E+01  0.14291517908E+03  0.22897974126E+03  0.97077799065E+02 0.  0.
          5    1    1    2  502    0 -0.93704891412E+02 -0.45764529047E+02  0.12042897310E+03  0.15937448465E+03  0.47000000000E+01 0. -1.
         -5    1    1    2    0  502 -0.56553253767E+02  0.48080610901E+02  0.86774506689E+01  0.74882600157E+02  0.47000000000E+01 0. -1.
        -11    1    3    3    0    0  0.64379489938E+02  0.26346492516E+02  0.13214487337E+02  0.70805925374E+02  0.00000000000E+00 0.  1.
         11    1    3    3    0    0  0.85878655241E+02 -0.28662574370E+02  0.12970069174E+03  0.15817381589E+03  0.00000000000E+00 0. -1.
<mgrwt>
<rscale>  0 0.19118907E+03</rscale>
<asrwt>0</asrwt>
<pdfrwt beam="1">  1        2 0.56558340E-01 0.19546845E+03</pdfrwt>
<pdfrwt beam="2">  1       -2 0.14708864E-01 0.19546845E+03</pdfrwt>
<totfact> 0.30501310E+03</totfact>
</mgrwt>
</event>
<event>
 7    1  0.5107591E-006  0.1328902E+03  0.7546771E-02  0.1235387E+00
         -1   -1    0    0    0  501 -0.00000000000E+00  0.00000000000E+00  0.44344083296E+03  0.44344083296E+03  0.00000000000E+00 0.  1.
          1   -1    0    0  501    0  0.00000000000E+00 -0.00000000000E+00 -0.50541372393E+02  0.50541372393E+02  0.00000000000E+00 0. -1.
         23    2    1    2    0    0 -0.33908270160E+02  0.29762631575E+02  0.30161002756E+02  0.10766758682E+03  0.92989451770E+02 0.  0.
          5    1    1    2  502    0 -0.31004295244E+02  0.24066508898E+02  0.18957040063E+03  0.19364785042E+03  0.47000000000E+01 0.  1.
         -5    1    1    2    0  502  0.64912565404E+02 -0.53829140473E+02  0.17316805718E+03  0.19266676812E+03  0.47000000000E+01 0.  1.
        -11    1    3    3    0    0 -0.40236844746E+02 -0.17355969452E+02 -0.10554858047E+02  0.45073699417E+02  0.00000000000E+00 0. -1.
         11    1    3    3    0    0  0.63285745860E+01  0.47118601027E+02  0.40715860803E+02  0.62593887401E+02  0.00000000000E+00 0.  1.
<mgrwt>
<rscale>  0 0.12479706E+03</rscale>
<asrwt>0</asrwt>
<pdfrwt beam="2">  1        1 0.77755960E-02 0.13289016E+03</pdfrwt>
<pdfrwt beam="1">  1       -1 0.68221664E-01 0.13289016E+03</pdfrwt>
<totfact> 0.19818638E+03</totfact>
</mgrwt>
</event>
<event>
 7    1  0.5107591E-006  0.1474323E+03  0.7546771E-02  0.1213367E+00
         -2   -1    0    0    0  501 -0.00000000000E+00  0.00000000000E+00  0.30544485016E+02  0.30544485016E+02  0.00000000000E+00 0.  1.
          2   -1    0    0  501    0  0.00000000000E+00 -0.00000000000E+00 -0.59956046931E+03  0.59956046931E+03  0.00000000000E+00 0. -1.
         23    2    1    2    0    0 -0.54819132325E+01  0.77976381448E+02 -0.30562022493E+03  0.32825462657E+03  0.90757977869E+02 0.  0.
          5    1    1    2  502    0 -0.16370541811E+02 -0.43490468418E+02 -0.13529008849E+02  0.48626531470E+02  0.47000000000E+01 0. -1.
         -5    1    1    2    0  502  0.21852455043E+02 -0.34485913030E+02 -0.24986675052E+03  0.25322379628E+03  0.47000000000E+01 0. -1.
        -11    1    3    3    0    0 -0.18710789002E+02  0.54482478188E+02 -0.29277576856E+03  0.29838914978E+03  0.00000000000E+00 0.  1.
         11    1    3    3    0    0  0.13228875769E+02  0.23493903260E+02 -0.12844456370E+02  0.29865476791E+02  0.00000000000E+00 0. -1.
<mgrwt>
<rscale>  0 0.13997199E+03</rscale>
<asrwt>0</asrwt>
<pdfrwt beam="2">  1        2 0.92240069E-01 0.14743234E+03</pdfrwt>
<pdfrwt beam="1">  1       -2 0.46991517E-02 0.14743234E+03</pdfrwt>
<totfact> 0.10430899E+04</totfact>
</mgrwt>
</event>
<event>
 6    1  0.5107591E-006  0.1750042E+03  0.7546771E-02  0.1228111E+00
         -3   -1    0    0    0  501 -0.00000000000E+00  0.00000000000E+00  0.22313875769E+04  0.22313875769E+04  0.00000000000E+00 0.  1.
          3   -1    0    0  501    0  0.00000000000E+00 -0.00000000000E+00 -0.69270433266E+01  0.69270433266E+01  0.00000000000E+00 0. -1.
          5    1    1    2  502    0 -0.20556552412E+02 -0.59601857297E+02  0.69225044801E+03  0.69513144513E+03  0.47000000000E+01 0. -1.
         -5    1    1    2    0  502  0.31201111992E+02  0.10712904136E+03  0.13137006176E+04  0.13184390557E+04  0.47000000000E+01 0.  1.
        -11    1    1    2    0    0 -0.86305272943E+01 -0.31136339627E+02  0.17947369024E+03  0.18235888554E+03  0.00000000000E+00 0. -1.
         11    1    1    2    0    0 -0.20140322855E+01 -0.16390844436E+02  0.39035777749E+02  0.42385233889E+02  0.00000000000E+00 0.  1.
<mgrwt>
<rscale>  0 0.12955957E+03</rscale>
<asrwt>0</asrwt>
<pdfrwt beam="2">  1        3 0.10657007E-02 0.17500424E+03</pdfrwt>
<pdfrwt beam="1">  1       -3 0.34328982E+00 0.17500424E+03</pdfrwt>
<totfact> 0.15795713E+02</totfact>
</mgrwt>
</event>
<event>
 7    1  0.5107591E-006  0.3188142E+03  0.7546771E-02  0.1079251E+00
          3   -1    0    0  501    0  0.00000000000E+00  0.00000000000E+00  0.61377236280E+03  0.61377236280E+03  0.00000000000E+00 0. -1.
         -3   -1    0    0    0  501 -0.00000000000E+00 -0.00000000000E+00 -0.28559145915E+03  0.28559145915E+03  0.00000000000E+00 0.  1.
         23    2    1    2    0    0  0.17642252288E+02  0.27736593755E+03  0.46704137161E+03  0.55162150118E+03  0.94422059880E+02 0.  0.
          5    1    1    2  502    0 -0.11757572664E+02 -0.81104321522E+02  0.31325072629E+02  0.87860694624E+02  0.47000000000E+01 0. -1.
         -5    1    1    2    0  502 -0.58846796239E+01 -0.19626161603E+03 -0.17018554060E+03  0.25988162615E+03  0.47000000000E+01 0.  1.
        -11    1    3    3    0    0  0.37171560384E+02  0.10587974876E+03  0.12161728549E+03  0.16547812613E+03  0.00000000000E+00 0. -1.
         11    1    3    3    0    0 -0.19529308096E+02  0.17148618879E+03  0.34542408612E+03  0.38614337505E+03  0.00000000000E+00 0.  1.
<mgrwt>
<rscale>  0 0.31229540E+03</rscale>
<asrwt>0</asrwt>
<pdfrwt beam="1">  1        3 0.94426517E-01 0.31881420E+03</pdfrwt>
<pdfrwt beam="2">  1       -3 0.43937148E-01 0.31881420E+03</pdfrwt>
<totfact> 0.13287278E+01</totfact>
</mgrwt>
</event>
<event>
 7    1  0.5107591E-006  0.1772297E+03  0.7546771E-02  0.1176515E+00
         -1   -1    0    0    0  501 -0.00000000000E+00  0.00000000000E+00  0.11379536126E+04  0.11379536126E+04  0.00000000000E+00 0.  1.
          1   -1    0    0  501    0  0.00000000000E+00 -0.00000000000E+00 -0.37070213481E+02  0.37070213481E+02  0.00000000000E+00 0. -1.
         23    2    1    2    0    0  0.11924845024E+03  0.39610585717E+02  0.18022474649E+03  0.23746171667E+03  0.90099479759E+02 0.  0.
          5    1    1    2  502    0 -0.14716546854E+01 -0.16943925879E+02  0.49470901006E+03  0.49502359239E+03  0.47000000000E+01 0. -1.
         -5    1    1    2    0  502 -0.11777679555E+03 -0.22666659838E+02  0.42594964261E+03  0.44253851706E+03  0.47000000000E+01 0. -1.
        -11    1    3    3    0    0  0.62016619411E+02  0.21337666572E+02  0.23586209838E+02  0.69696961142E+02  0.00000000000E+00 0. -1.
         11    1    3    3    0    0  0.57231830825E+02  0.18272919145E+02  0.15663853665E+03  0.16776475553E+03  0.00000000000E+00 0.  1.
<mgrwt>
<rscale>  0 0.17128455E+03</rscale>
<asrwt>0</asrwt>
<pdfrwt beam="2">  1        1 0.57031106E-02 0.17722967E+03</pdfrwt>
<pdfrwt beam="1">  1       -1 0.17506976E+00 0.17722967E+03</pdfrwt>
<totfact> 0.34392893E+02</totfact>
</mgrwt>
</event>
<event>
 7    1  0.5107591E-006  0.2552862E+03  0.7546771E-02  0.1112418E+00
         -1   -1    0    0    0  501 -0.00000000000E+00  0.00000000000E+00  0.98610355125E+02  0.98610355125E+02  0.00000000000E+00 0.  1.
          1   -1    0    0  501    0  0.00000000000E+00 -0.00000000000E+00 -0.63623460167E+03  0.63623460167E+03  0.00000000000E+00 0. -1.
         23    2    1    2    0    0  0.21317460446E+03  0.64061281298E+02 -0.20628946554E+03  0.31657021346E+03  0.90078280990E+02 0.  0.
          5    1    1    2  502    0 -0.75642979369E+02 -0.56810309903E+02 -0.55106958247E+02  0.10958165214E+03  0.47000000000E+01 0. -1.
         -5    1    1    2    0  502 -0.13753162509E+03 -0.72509713952E+01 -0.27622782276E+03  0.30869309120E+03  0.47000000000E+01 0. -1.
        -11    1    3    3    0    0  0.17115954427E+03  0.16346040259E+02 -0.12124330910E+03  0.21038707810E+03  0.00000000000E+00 0.  1.
         11    1    3    3    0    0  0.42015060189E+02  0.47715241039E+02 -0.85046156438E+02  0.10618313536E+03  0.00000000000E+00 0. -1.
<mgrwt>
<rscale>  0 0.25140914E+03</rscale>
<asrwt>0</asrwt>
<pdfrwt beam="2">  1        1 0.97882245E-01 0.25528616E+03</pdfrwt>
<pdfrwt beam="1">  1       -1 0.15170824E-01 0.25528616E+03</pdfrwt>
<totfact> 0.10234786E+03</totfact>
</mgrwt>
</event>
<event>
 7    1  0.5107591E-006  0.1514540E+03  0.7546771E-02  0.1207398E+00
          1   -1    0    0  501    0  0.00000000000E+00  0.00000000000E+00  0.19844399747E+03  0.19844399747E+03  0.00000000000E+00 0. -1.
         -1   -1    0    0    0  501 -0.00000000000E+00 -0.00000000000E+00 -0.10570345078E+03  0.10570345078E+03  0.00000000000E+00 0.  1.
         23    2    1    2    0    0  0.18874150015E+02  0.83399401332E+02  0.86772957619E+02  0.15257591318E+03  0.91859509180E+02 0.  0.
          5    1    1    2  502    0 -0.36187725478E+02 -0.83898345551E+02 -0.41767696014E+02  0.10057392451E+03  0.47000000000E+01 0.  1.
         -5    1    1    2    0  502  0.17313575463E+02  0.49894421868E+00  0.47735285081E+02  0.50997610556E+02  0.47000000000E+01 0.  1.
        -11    1    3    3    0    0 -0.10882739528E+02  0.15446826860E+02 -0.16727830147E+02  0.25236061125E+02  0.00000000000E+00 0.  1.
         11    1    3    3    0    0  0.29756889543E+02  0.67952574472E+02  0.10350078777E+03  0.12733985205E+03  0.00000000000E+00 0. -1.
<mgrwt>
<rscale>  0 0.14450078E+03</rscale>
<asrwt>0</asrwt>
<pdfrwt beam="1">  1        1 0.30529846E-01 0.15145401E+03</pdfrwt>
<pdfrwt beam="2">  1       -1 0.16262069E-01 0.15145401E+03</pdfrwt>
<totfact> 0.40419452E+03</totfact>
</mgrwt>
</event>
<event>
 7    1  0.5107591E-006  0.2177852E+03  0.7546771E-02  0.1138962E+00
          2   -1    0    0  501    0  0.00000000000E+00  0.00000000000E+00  0.20666857211E+03  0.20666857211E+03  0.00000000000E+00 0. -1.
         -2   -1    0    0    0  501 -0.00000000000E+00 -0.00000000000E+00 -0.26419852223E+03  0.26419852223E+03  0.00000000000E+00 0.  1.
         23    2    1    2    0    0 -0.16260542704E+03 -0.73247051895E+02  0.77146627270E+02  0.21480426095E+03  0.91562071344E+02 0.  0.
          5    1    1    2  502    0  0.15226936492E+03  0.61584579455E+02 -0.15777747676E+03  0.22780351642E+03  0.47000000000E+01 0.  1.
         -5    1    1    2    0  502  0.10336062127E+02  0.11662472440E+02  0.23100899379E+02  0.28259316974E+02  0.47000000000E+01 0.  1.
        -11    1    3    3    0    0 -0.42086043626E+02 -0.24982409696E+02  0.69171313283E+02  0.84735036694E+02  0.00000000000E+00 0. -1.
         11    1    3    3    0    0 -0.12051938342E+03 -0.48264642199E+02  0.79753139870E+01  0.13006922426E+03  0.00000000000E+00 0.  1.
<mgrwt>
<rscale>  0 0.21332170E+03</rscale>
<asrwt>0</asrwt>
<pdfrwt beam="1">  1        2 0.31795165E-01 0.21778520E+03</pdfrwt>
<pdfrwt beam="2">  1       -2 0.40645926E-01 0.21778520E+03</pdfrwt>
<totfact> 0.94753023E+02</totfact>
</mgrwt>
</event>
<event>
 7    1  0.5107591E-006  0.1333228E+03  0.7546771E-02  0.1235738E+00
          2   -1    0    0  501    0  0.00000000000E+00  0.00000000000E+00  0.10701558518E+03  0.10701558518E+03  0.00000000000E+00 0. -1.
         -2   -1    0    0    0  501 -0.00000000000E+00 -0.00000000000E+00 -0.14162092877E+03  0.14162092877E+03  0.00000000000E+00 0.  1.
         23    2    1    2    0    0  0.39447882526E+02 -0.24362604444E+02  0.21700226884E+02  0.10391166578E+03  0.90427111569E+02 0.  0.
          5    1    1    2  502    0  0.14612758549E+02  0.44255172526E+02  0.18353597343E+02  0.50309020495E+02  0.47000000000E+01 0. -1.
         -5    1    1    2    0  502 -0.54060641075E+02 -0.19892568082E+02 -0.74659167815E+02  0.94415827683E+02  0.47000000000E+01 0. -1.
        -11    1    3    3    0    0 -0.44243258533E+01 -0.43117580667E+02 -0.12612722699E+02  0.45141789903E+02  0.00000000000E+00 0.  1.
         11    1    3    3    0    0  0.43872208379E+02  0.18754976223E+02  0.34312949583E+02  0.58769875874E+02  0.00000000000E+00 0. -1.
<mgrwt>
<rscale>  0 0.12457292E+03</rscale>
<asrwt>0</asrwt>
<pdfrwt beam="1">  1        2 0.16463936E-01 0.13332278E+03</pdfrwt>
<pdfrwt beam="2">  1       -2 0.21787835E-01 0.13332278E+03</pdfrwt>
<totfact> 0.59925903E+03</totfact>
</mgrwt>
</event>
<event>
 7    1  0.5107591E-006  0.1403729E+03  0.7546771E-02  0.1223832E+00
         -1   -1    0    0    0  501 -0.00000000000E+00  0.00000000000E+00  0.25132280627E+02  0.25132280627E+02  0.00000000000E+00 0.  1.
          1   -1    0    0  501    0  0.00000000000E+00 -0.00000000000E+00 -0.72959542242E+03  0.72959542242E+03  0.00000000000E+00 0. -1.
         23    2    1    2    0    0  0.45008171861E+02  0.45358762714E+02 -0.45557403458E+03  0.46898247737E+03  0.91179549311E+02 0.  0.
          5    1    1    2  502    0 -0.72312661495E+02 -0.60162474134E+02 -0.11716629645E+03  0.15032855793E+03  0.47000000000E+01 0. -1.
         -5    1    1    2    0  502  0.27304489634E+02  0.14803711420E+02 -0.13172281077E+03  0.13541666775E+03  0.47000000000E+01 0. -1.
        -11    1    3    3    0    0  0.28624639324E+02 -0.25468178406E+02 -0.14050547054E+03  0.14563579690E+03  0.00000000000E+00 0.  1.
         11    1    3    3    0    0  0.16383532537E+02  0.70826941120E+02 -0.31506856404E+03  0.32334668047E+03  0.00000000000E+00 0. -1.
<mgrwt>
<rscale>  0 0.13247270E+03</rscale>
<asrwt>0</asrwt>
<pdfrwt beam="2">  1        1 0.11224545E+00 0.14037288E+03</pdfrwt>
<pdfrwt beam="1">  1       -1 0.38665047E-02 0.14037288E+03</pdfrwt>
<totfact> 0.66332557E+03</totfact>
</mgrwt>
</event>
<event>
 7    1  0.5107591E-006  0.1277906E+03  0.7546771E-02  0.1245432E+00
          2   -1    0    0  501    0  0.00000000000E+00  0.00000000000E+00  0.31648059475E+03  0.31648059475E+03  0.00000000000E+00 0. -1.
         -2   -1    0    0    0  501 -0.00000000000E+00 -0.00000000000E+00 -0.39467981877E+02  0.39467981877E+02  0.00000000000E+00 0.  1.
         23    2    1    2    0    0 -0.34145448103E+01 -0.26342185990E+02  0.13428826626E+03  0.16437437710E+03  0.90994656506E+02 0.  0.
          5    1    1    2  502    0  0.16041080064E+02  0.15389785634E+02 -0.18572181066E+02  0.29345828681E+02  0.47000000000E+01 0. -1.
         -5    1    1    2    0  502 -0.12626535254E+02  0.10952400356E+02  0.16129652768E+03  0.16222837085E+03  0.47000000000E+01 0. -1.
        -11    1    3    3    0    0  0.41828451590E+02 -0.24314522985E+02  0.81910591659E+02  0.95132331078E+02  0.00000000000E+00 0.  1.
         11    1    3    3    0    0 -0.45242996401E+02 -0.20276630045E+01  0.52377674597E+02  0.69242046018E+02  0.00000000000E+00 0. -1.
<mgrwt>
<rscale>  0 0.11859531E+03</rscale>
<asrwt>0</asrwt>
<pdfrwt beam="1">  1        2 0.48689321E-01 0.12779059E+03</pdfrwt>
<pdfrwt beam="2">  1       -2 0.60719974E-02 0.12779059E+03</pdfrwt>
<totfact> 0.14030570E+04</totfact>
</mgrwt>
</event>
<event>
 7    1  0.5107591E-006  0.1336283E+03  0.7546771E-02  0.1236387E+00
          2   -1    0    0  501    0  0.00000000000E+00  0.00000000000E+00  0.31333739277E+03  0.31333739277E+03  0.00000000000E+00 0. -1.
         -2   -1    0    0    0  501 -0.00000000000E+00 -0.00000000000E+00 -0.73375430559E+02  0.73375430559E+02  0.00000000000E+00 0.  1.
         23    2    1    2    0    0 -0.45754702511E+02 -0.11866174884E+02  0.23243347854E+03  0.25287266467E+03  0.87663924651E+02 0.  0.
          5    1    1    2  502    0  0.81557619789E+02 -0.93642928104E+01 -0.18819380686E+02  0.84353982804E+02  0.47000000000E+01 0.  1.
         -5    1    1    2    0  502 -0.35802917277E+02  0.21230467695E+02  0.26347864357E+02  0.49486175850E+02  0.47000000000E+01 0.  1.
        -11    1    3    3    0    0  0.40569702390E+00 -0.21609224617E+02  0.72444755027E+01  0.22794859156E+02  0.00000000000E+00 0.  1.
         11    1    3    3    0    0 -0.46160399535E+02  0.97430497332E+01  0.22518900303E+03  0.23007780552E+03  0.00000000000E+00 0. -1.
<mgrwt>
<rscale>  0 0.12416055E+03</rscale>
<asrwt>0</asrwt>
<pdfrwt beam="1">  1        2 0.48205752E-01 0.13362825E+03</pdfrwt>
<pdfrwt beam="2">  1       -2 0.11288528E-01 0.13362825E+03</pdfrwt>
<totfact> 0.54467725E+03</totfact>
</mgrwt>
</event>
<event>
 7    1  0.5107591E-006  0.1262532E+03  0.7546771E-02  0.1247309E+00
         -4   -1    0    0    0  501 -0.00000000000E+00  0.00000000000E+00  0.17873275959E+03  0.17873275959E+03  0.00000000000E+00 0.  1.
          4   -1    0    0  501    0  0.00000000000E+00 -0.00000000000E+00 -0.69695176299E+02  0.69695176299E+02  0.00000000000E+00 0. -1.
         23    2    1    2    0    0  0.12773181709E+02 -0.12345372941E+02  0.29245964602E+02  0.99074097823E+02  0.92977352134E+02 0.  0.
          5    1    1    2  502    0  0.48226702077E+02 -0.59940435177E+01  0.69078704994E+02  0.84591375652E+02  0.47000000000E+01 0.  1.
         -5    1    1    2    0  502 -0.60999883786E+02  0.18339416458E+02  0.10712913692E+02  0.64762462412E+02  0.47000000000E+01 0.  1.
        -11    1    3    3    0    0 -0.21539674677E+02  0.22375093367E+02  0.38421354854E+02  0.49404482562E+02  0.00000000000E+00 0.  1.
         11    1    3    3    0    0  0.34312856386E+02 -0.34720466307E+02 -0.91753902517E+01  0.49669615261E+02  0.00000000000E+00 0. -1.
<mgrwt>
<rscale>  0 0.11748228E+03</rscale>
<asrwt>0</asrwt>
<pdfrwt beam="2">  1        4 0.10722335E-01 0.12625318E+03</pdfrwt>
<pdfrwt beam="1">  1       -4 0.27497347E-01 0.12625318E+03</pdfrwt>
<totfact> 0.13699037E+03</totfact>
</mgrwt>
</event>
<event>
 7    1  0.5107591E-006  0.1829908E+03  0.7546771E-02  0.1178420E+00
          2   -1    0    0  501    0  0.00000000000E+00  0.00000000000E+00  0.62563897907E+03  0.62563897907E+03  0.00000000000E+00 0. -1.
         -2   -1    0    0    0  501 -0.00000000000E+00 -0.00000000000E+00 -0.60896343319E+02  0.60896343319E+02  0.00000000000E+00 0.  1.
         23    2    1    2    0    0  0.68549705797E+02  0.76269147896E+02  0.45199736731E+03  0.47160018042E+03  0.87115239961E+02 0.  0.
          5    1    1    2  502    0  0.23404785291E+01 -0.14804574230E+02  0.11970767438E+03  0.12073388324E+03  0.47000000000E+01 0. -1.
         -5    1    1    2    0  502 -0.70890184326E+02 -0.61464573666E+02 -0.69624059321E+01  0.94201258729E+02  0.47000000000E+01 0.  1.
        -11    1    3    3    0    0  0.19605667922E+02 -0.14120446749E+02  0.37982853359E+02  0.45016290166E+02  0.00000000000E+00 0.  1.
         11    1    3    3    0    0  0.48944037875E+02  0.90389594645E+02  0.41401451395E+03  0.42658389025E+03  0.00000000000E+00 0. -1.
<mgrwt>
<rscale>  0 0.16945213E+03</rscale>
<asrwt>0</asrwt>
<pdfrwt beam="1">  1        2 0.96252146E-01 0.18299076E+03</pdfrwt>
<pdfrwt beam="2">  1       -2 0.93686686E-02 0.18299076E+03</pdfrwt>
<totfact> 0.34829441E+03</totfact>
</mgrwt>
</event>
<event>
 7    1  0.5107591E-006  0.1710980E+03  0.7546771E-02  0.1182937E+00
         -2   -1    0    0    0  501 -0.00000000000E+00  0.00000000000E+00  0.30477183857E+03  0.30477183857E+03  0.00000000000E+00 0.  1.
          2   -1    0    0  501    0  0.00000000000E+00 -0.00000000000E+00 -0.86045251676E+02  0.86045251676E+02  0.00000000000E+00 0. -1.
         23    2    1    2    0    0 -0.31506383987E+02 -0.11250254949E+03  0.13262086668E+03  0.19927405129E+03  0.92045517889E+02 0.  0.
          5    1    1    2  502    0  0.79061209914E+02  0.64134404509E+02  0.40459939805E+02  0.10964941169E+03  0.47000000000E+01 0. -1.
         -5    1    1    2    0  502 -0.47554825927E+02  0.48368144982E+02  0.45645780409E+02  0.81893627268E+02  0.47000000000E+01 0. -1.
        -11    1    3    3    0    0 -0.35897783457E+02 -0.21635121492E+02  0.45201838358E+01  0.42156392173E+02  0.00000000000E+00 0. -1.
         11    1    3    3    0    0  0.43913994700E+01 -0.90867428000E+02  0.12810068284E+03  0.15711765911E+03  0.00000000000E+00 0.  1.
<mgrwt>
<rscale>  0 0.16521005E+03</rscale>
<asrwt>0</asrwt>
<pdfrwt beam="2">  1        2 0.13237731E-01 0.17109804E+03</pdfrwt>
<pdfrwt beam="1">  1       -2 0.46887975E-01 0.17109804E+03</pdfrwt>
<totfact> 0.19378166E+03</totfact>
</mgrwt>
</event>
<event>
 7    1  0.5107591E-006  0.1404864E+03  0.7546771E-02  0.1223587E+00
         -1   -1    0    0    0  501 -0.00000000000E+00  0.00000000000E+00  0.31287491610E+03  0.31287491610E+03  0.00000000000E+00 0.  1.
          1   -1    0    0  501    0  0.00000000000E+00 -0.00000000000E+00 -0.51041344669E+02  0.51041344669E+02  0.00000000000E+00 0. -1.
         23    2    1    2    0    0  0.63055762262E+02  0.11538588017E+02  0.10342415296E+03  0.15218534141E+03  0.91403799464E+02 0.  0.
          5    1    1    2  502    0  0.80761678586E+01  0.19106112330E+01 -0.18340770421E+02  0.20672415974E+02  0.47000000000E+01 0. -1.
         -5    1    1    2    0  502 -0.71131930121E+02 -0.13449199250E+02  0.17675018889E+03  0.19105850339E+03  0.47000000000E+01 0. -1.
        -11    1    3    3    0    0  0.49356798584E+02 -0.35986450130E+02  0.67633652347E+02  0.91134126919E+02  0.00000000000E+00 0. -1.
         11    1    3    3    0    0  0.13698963678E+02  0.47525038146E+02  0.35790500612E+02  0.61051214490E+02  0.00000000000E+00 0.  1.
<mgrwt>
<rscale>  0 0.13264235E+03</rscale>
<asrwt>0</asrwt>
<pdfrwt beam="2">  1        1 0.78525147E-02 0.14048643E+03</pdfrwt>
<pdfrwt beam="1">  1       -1 0.48134601E-01 0.14048643E+03</pdfrwt>
<totfact> 0.37806931E+03</totfact>
</mgrwt>
</event>
<event>
 6    1  0.5107591E-006  0.1610769E+03  0.7546771E-02  0.1207288E+00
          1   -1    0    0  501    0  0.00000000000E+00  0.00000000000E+00  0.55005026715E+03  0.55005026715E+03  0.00000000000E+00 0. -1.
         -1   -1    0    0    0  501 -0.00000000000E+00 -0.00000000000E+00 -0.39107948178E+02  0.39107948178E+02  0.00000000000E+00 0.  1.
          5    1    1    2  502    0 -0.10550096314E+03  0.51843373906E+02  0.17886325727E+03  0.21408489775E+03  0.47000000000E+01 0. -1.
         -5    1    1    2    0  502  0.23660529723E+02  0.83452654536E+01 -0.14194157386E+01  0.25564992926E+02  0.47000000000E+01 0. -1.
        -11    1    1    2    0    0  0.64125710813E+02 -0.33326716560E+02  0.23845411753E+03  0.24916489117E+03  0.00000000000E+00 0. -1.
         11    1    1    2    0    0  0.17714722606E+02 -0.26861922799E+02  0.95044359910E+02  0.10034343349E+03  0.00000000000E+00 0.  1.
<mgrwt>
<rscale>  0 0.14458605E+03</rscale>
<asrwt>0</asrwt>
<pdfrwt beam="1">  1        1 0.84623113E-01 0.16107685E+03</pdfrwt>
<pdfrwt beam="2">  1       -1 0.60166078E-02 0.16107685E+03</pdfrwt>
<totfact> 0.51390247E+03</totfact>
</mgrwt>
</event>
<event>
 7    1  0.5107591E-006  0.1332452E+03  0.7546771E-02  0.1245693E+00
         -1   -1    0    0    0  501 -0.00000000000E+00  0.00000000000E+00  0.11682339801E+03  0.11682339801E+03  0.00000000000E+00 0.  1.
          1   -1    0    0  501    0  0.00000000000E+00 -0.00000000000E+00 -0.10297280861E+03  0.10297280861E+03  0.00000000000E+00 0. -1.
         23    2    1    2    0    0 -0.45625731961E+02 -0.69995686474E+01 -0.12067027148E+02  0.84053811083E+02  0.69200640424E+02 0.  0.
          5    1    1    2  502    0  0.27282516364E+02 -0.10956327083E+01  0.76374564960E+02  0.81244693876E+02  0.47000000000E+01 0.  1.
         -5    1    1    2    0  502  0.18343215597E+02  0.80952013557E+01 -0.50456948412E+02  0.54497701663E+02  0.47000000000E+01 0.  1.
        -11    1    3    3    0    0 -0.78529275560E+01 -0.15998699282E+02 -0.34771729132E+02  0.39073008545E+02  0.00000000000E+00 0. -1.
         11    1    3    3    0    0 -0.37772804405E+02  0.89991306350E+01  0.22704701984E+02  0.44980802538E+02  0.00000000000E+00 0.  1.
<mgrwt>
<rscale>  0 0.11843973E+03</rscale>
<asrwt>0</asrwt>
<pdfrwt beam="2">  1        1 0.15841971E-01 0.13324517E+03</pdfrwt>
<pdfrwt beam="1">  1       -1 0.17972831E-01 0.13324517E+03</pdfrwt>
<totfact> 0.78532952E+03</totfact>
</mgrwt>
</event>
<event>
 7    1  0.5107591E-006  0.1432265E+03  0.7546771E-02  0.1220191E+00
         -3   -1    0    0    0  501 -0.00000000000E+00  0.00000000000E+00  0.13633467977E+03  0.13633467977E+03  0.00000000000E+00 0.  1.
          3   -1    0    0  501    0  0.00000000000E+00 -0.00000000000E+00 -0.12971738966E+03  0.12971738966E+03  0.00000000000E+00 0. -1.
         23    2    1    2    0    0 -0.58930518268E+02 -0.37617198656E+02 -0.32290318358E+02  0.11763496102E+03  0.88923898797E+02 0.  0.
          5    1    1    2  502    0  0.17014668459E+02  0.78761484086E+02  0.38654853386E+02  0.89493899281E+02  0.47000000000E+01 0.  1.
         -5    1    1    2    0  502  0.41915849809E+02 -0.41144285429E+02  0.25275507760E+00  0.58923209127E+02  0.47000000000E+01 0.  1.
        -11    1    3    3    0    0  0.18344275498E+02  0.76386818999E+01  0.52190777424E+01  0.20545088883E+02  0.00000000000E+00 0. -1.
         11    1    3    3    0    0 -0.77274793766E+02 -0.45255880556E+02 -0.37509396101E+02  0.97089872141E+02  0.00000000000E+00 0.  1.
<mgrwt>
<rscale>  0 0.13502027E+03</rscale>
<asrwt>0</asrwt>
<pdfrwt beam="2">  1        3 0.19956521E-01 0.14322652E+03</pdfrwt>
<pdfrwt beam="1">  1       -3 0.20974566E-01 0.14322652E+03</pdfrwt>
<totfact> 0.10794873E+03</totfact>
</mgrwt>
</event>
<event>
 7    1  0.5107591E-006  0.1322763E+03  0.7546771E-02  0.1237346E+00
         -2   -1    0    0    0  501 -0.00000000000E+00  0.00000000000E+00  0.21782630206E+02  0.21782630206E+02  0.00000000000E+00 0. -1.
          2   -1    0    0  501    0  0.00000000000E+00 -0.00000000000E+00 -0.64020767528E+03  0.64020767528E+03  0.00000000000E+00 0.  1.
         23    2    1    2    0    0 -0.31629446199E+02 -0.29400622732E+02 -0.32235880318E+03  0.33771843252E+03  0.90960008750E+02 0.  0.
          5    1    1    2  502    0  0.23331136632E+01 -0.20827033730E+02  0.10298450772E+01  0.21502542507E+02  0.47000000000E+01 0.  1.
         -5    1    1    2    0  502  0.29296332536E+02  0.50227656463E+02 -0.29709608697E+03  0.30276933046E+03  0.47000000000E+01 0.  1.
        -11    1    3    3    0    0  0.31809398302E+02 -0.14101030792E+02 -0.94637605938E+02  0.10083131134E+03  0.00000000000E+00 0. -1.
         11    1    3    3    0    0 -0.63438844502E+02 -0.15299591940E+02 -0.22772119724E+03  0.23688712118E+03  0.00000000000E+00 0.  1.
<mgrwt>
<rscale>  0 0.12355449E+03</rscale>
<asrwt>0</asrwt>
<pdfrwt beam="2">  1        2 0.98493504E-01 0.13227633E+03</pdfrwt>
<pdfrwt beam="1">  1       -2 0.33511733E-02 0.13227633E+03</pdfrwt>
<totfact> 0.15870226E+04</totfact>
</mgrwt>
</event>
<event>
 7    1  0.5107591E-006  0.1330590E+03  0.7546771E-02  0.1236291E+00
          4   -1    0    0  501    0  0.00000000000E+00  0.00000000000E+00  0.43734982296E+02  0.43734982296E+02  0.00000000000E+00 0. -1.
         -4   -1    0    0    0  501 -0.00000000000E+00 -0.00000000000E+00 -0.33963980579E+03  0.33963980579E+03  0.00000000000E+00 0.  1.
         23    2    1    2    0    0  0.34430958041E+01  0.45470071492E+02 -0.76451896145E+02  0.12673440498E+03  0.90207176390E+02 0.  0.
          5    1    1    2  502    0 -0.30123340271E+02  0.10079679749E+02 -0.18105360493E+03  0.18387907285E+03  0.47000000000E+01 0.  1.
         -5    1    1    2    0  502  0.26680244467E+02 -0.55549751242E+02 -0.38399322420E+02  0.72761310256E+02  0.47000000000E+01 0.  1.
        -11    1    3    3    0    0  0.96660763001E+01  0.31963829670E+02 -0.96304505008E+02  0.10192976564E+03  0.00000000000E+00 0.  1.
         11    1    3    3    0    0 -0.62229804960E+01  0.13506241822E+02  0.19852608863E+02  0.24804639346E+02  0.00000000000E+00 0. -1.
<mgrwt>
<rscale>  0 0.12422160E+03</rscale>
<asrwt>0</asrwt>
<pdfrwt beam="1">  1        4 0.67284590E-02 0.13305901E+03</pdfrwt>
<pdfrwt beam="2">  1       -4 0.52252277E-01 0.13305901E+03</pdfrwt>
<totfact> 0.85839752E+02</totfact>
</mgrwt>
</event>
<event>
 7    1  0.5107591E-006  0.1792856E+03  0.7546771E-02  0.1174320E+00
          1   -1    0    0  501    0  0.00000000000E+00  0.00000000000E+00  0.38651630331E+02  0.38651630331E+02  0.00000000000E+00 0.  1.
         -1   -1    0    0    0  501 -0.00000000000E+00 -0.00000000000E+00 -0.73842340958E+03  0.73842340958E+03  0.00000000000E+00 0. -1.
         23    2    1    2    0    0 -0.11767187477E+03 -0.51673363245E+02 -0.36484283675E+03  0.39717937947E+03  0.90135217146E+02 0.  0.
          5    1    1    2  502    0  0.88403061116E+02 -0.27586142655E+02 -0.14713162940E+03  0.17391349243E+03  0.47000000000E+01 0.  1.
         -5    1    1    2    0  502  0.29268813651E+02  0.79259505900E+02 -0.18779731311E+03  0.20598216801E+03  0.47000000000E+01 0.  1.
        -11    1    3    3    0    0 -0.29192558084E+02 -0.46328406141E+02 -0.67570407176E+02  0.86972907213E+02  0.00000000000E+00 0.  1.
         11    1    3    3    0    0 -0.88479316683E+02 -0.53449571038E+01 -0.29727242957E+03  0.31020647226E+03  0.00000000000E+00 0. -1.
<mgrwt>
<rscale>  0 0.17342698E+03</rscale>
<asrwt>0</asrwt>
<pdfrwt beam="1">  1        1 0.59464052E-02 0.17928557E+03</pdfrwt>
<pdfrwt beam="2">  1       -1 0.11360359E+00 0.17928557E+03</pdfrwt>
<totfact> 0.97602583E+02</totfact>
</mgrwt>
</event>
<event>
 7    1  0.5107591E-006  0.1682436E+03  0.7546771E-02  0.1186155E+00
         -1   -1    0    0    0  501 -0.00000000000E+00  0.00000000000E+00  0.76682425101E+02  0.76682425101E+02  0.00000000000E+00 0.  1.
          1   -1    0    0  501    0  0.00000000000E+00 -0.00000000000E+00 -0.33504752364E+03  0.33504752364E+03  0.00000000000E+00 0. -1.
         23    2    1    2    0    0  0.11234183382E+03 -0.77931974223E+01 -0.16211555734E+03  0.21790046172E+03  0.92291579995E+02 0.  0.
          5    1    1    2  502    0 -0.12339005813E+03  0.43206036353E+02 -0.73311508545E+02  0.14996177949E+03  0.47000000000E+01 0.  1.
         -5    1    1    2    0  502  0.11048224312E+02 -0.35412838931E+02 -0.22938032654E+02  0.43867707526E+02  0.47000000000E+01 0.  1.
        -11    1    3    3    0    0  0.10762228517E+03  0.25909361515E+02 -0.11336885263E+03  0.15844982810E+03  0.00000000000E+00 0.  1.
         11    1    3    3    0    0  0.47195486490E+01 -0.33702558938E+02 -0.48746704709E+02  0.59450633625E+02  0.00000000000E+00 0. -1.
<mgrwt>
<rscale>  0 0.16227203E+03</rscale>
<asrwt>0</asrwt>
<pdfrwt beam="2">  1        1 0.51545773E-01 0.16824356E+03</pdfrwt>
<pdfrwt beam="1">  1       -1 0.11797296E-01 0.16824356E+03</pdfrwt>
<totfact> 0.34974700E+03</totfact>
</mgrwt>
</event>
<event>
 7    1  0.5107591E-006  0.2285870E+03  0.7546771E-02  0.1127638E+00
          2   -1    0    0  501    0  0.00000000000E+00  0.00000000000E+00  0.34785870858E+02  0.34785870858E+02  0.00000000000E+00 0. -1.
         -2   -1    0    0    0  501 -0.00000000000E+00 -0.00000000000E+00 -0.37552610804E+03  0.37552610804E+03  0.00000000000E+00 0.  1.
         23    2    1    2    0    0 -0.16163420522E+02 -0.23998707064E+02 -0.11624102167E+03  0.15173615961E+03  0.93138031496E+02 0.  0.
          5    1    1    2  502    0  0.23626390912E+02  0.71922444663E+02 -0.16551543578E+03  0.18206727843E+03  0.47000000000E+01 0. -1.
         -5    1    1    2    0  502 -0.74629703898E+01 -0.47923737599E+02 -0.58983779732E+02  0.76508540856E+02  0.47000000000E+01 0. -1.
        -11    1    3    3    0    0 -0.47032973738E+02 -0.39940861240E+02 -0.63178974042E+02  0.88311696712E+02  0.00000000000E+00 0. -1.
         11    1    3    3    0    0  0.30869553216E+02  0.15942154176E+02 -0.53062047627E+02  0.63424462898E+02  0.00000000000E+00 0.  1.
<mgrwt>
<rscale>  0 0.22858699E+03</rscale>
<asrwt>0</asrwt>
<pdfrwt beam="1">  1        2 0.53516725E-02 0.22858699E+03</pdfrwt>
<pdfrwt beam="2">  1       -2 0.57773246E-01 0.22858699E+03</pdfrwt>
<totfact> 0.40506603E+03</totfact>
</mgrwt>
</event>
<event>
 7    1  0.5107591E-006  0.1585319E+03  0.7546771E-02  0.1198472E+00
          2   -1    0    0  501    0  0.00000000000E+00  0.00000000000E+00  0.50631524674E+03  0.50631524674E+03  0.00000000000E+00 0.  1.
         -2   -1    0    0    0  501 -0.00000000000E+00 -0.00000000000E+00 -0.48083987363E+02  0.48083987363E+02  0.00000000000E+00 0. -1.
         23    2    1    2    0    0 -0.60287405740E+02  0.76632540226E+02  0.31063155200E+03  0.33779352063E+03  0.90029905948E+02 0.  0.
          5    1    1    2  502    0 -0.38146047192E+02 -0.27962701333E+02  0.56631176421E+02  0.73933846951E+02  0.47000000000E+01 0.  1.
         -5    1    1    2    0  502  0.98433452932E+02 -0.48669838893E+02  0.90968530952E+02  0.14267186652E+03  0.47000000000E+01 0.  1.
        -11    1    3    3    0    0 -0.54348732943E+02 -0.47049530916E+00  0.10794602073E+03  0.12085673142E+03  0.00000000000E+00 0.  1.
         11    1    3    3    0    0 -0.59386727970E+01  0.77103035535E+02  0.20268553127E+03  0.21693678920E+03  0.00000000000E+00 0. -1.
<mgrwt>
<rscale>  0 0.15164047E+03</rscale>
<asrwt>0</asrwt>
<pdfrwt beam="1">  1        2 0.77894650E-01 0.15853189E+03</pdfrwt>
<pdfrwt beam="2">  1       -2 0.73975368E-02 0.15853189E+03</pdfrwt>
<totfact> 0.63553179E+03</totfact>
</mgrwt>
</event>
<event>
 7    1  0.5107591E-006  0.1381665E+03  0.7546771E-02  0.1227364E+00
         -2   -1    0    0    0  501 -0.00000000000E+00  0.00000000000E+00  0.17834335916E+03  0.17834335916E+03  0.00000000000E+00 0.  1.
          2   -1    0    0  501    0  0.00000000000E+00 -0.00000000000E+00 -0.88428899471E+02  0.88428899471E+02  0.00000000000E+00 0. -1.
         23    2    1    2    0    0 -0.54271359453E+02  0.22803330992E+02  0.14765241445E+02  0.10949101946E+03  0.91131216532E+02 0.  0.
          5    1    1    2  502    0  0.52439605932E+02  0.16834849059E+02  0.97070369042E+02  0.11170528617E+03  0.47000000000E+01 0. -1.
         -5    1    1    2    0  502  0.18317535209E+01 -0.39638180051E+02 -0.21921150801E+02  0.45575952992E+02  0.47000000000E+01 0. -1.
        -11    1    3    3    0    0  0.25867852012E+02  0.53102095969E+01  0.51283265095E+01  0.26900628738E+02  0.00000000000E+00 0. -1.
         11    1    3    3    0    0 -0.80139211466E+02  0.17493121395E+02  0.96369149359E+01  0.82590390724E+02  0.00000000000E+00 0.  1.
<mgrwt>
<rscale>  0 0.13006199E+03</rscale>
<asrwt>0</asrwt>
<pdfrwt beam="2">  1        2 0.13604446E-01 0.13816651E+03</pdfrwt>
<pdfrwt beam="1">  1       -2 0.27437440E-01 0.13816651E+03</pdfrwt>
<totfact> 0.50275879E+03</totfact>
</mgrwt>
</event>
<event>
 7    1  0.5107591E-006  0.1784266E+03  0.7546771E-02  0.1176130E+00
          2   -1    0    0  501    0  0.00000000000E+00  0.00000000000E+00  0.77147425801E+03  0.77147425801E+03  0.00000000000E+00 0. -1.
         -2   -1    0    0    0  501 -0.00000000000E+00 -0.00000000000E+00 -0.35893130644E+02  0.35893130644E+02  0.00000000000E+00 0.  1.
         23    2    1    2    0    0  0.94556970340E+02  0.85262397471E+02  0.37821918775E+03  0.40793830700E+03  0.84576659156E+02 0.  0.
          5    1    1    2  502    0 -0.19524287698E+02 -0.26751007052E+02  0.42821155248E+01  0.33722999597E+02  0.47000000000E+01 0. -1.
         -5    1    1    2    0  502 -0.75032682642E+02 -0.58511390419E+02  0.35307982410E+03  0.36570608206E+03  0.47000000000E+01 0. -1.
        -11    1    3    3    0    0  0.25644719066E+02 -0.66210216310E+00  0.18217633730E+02  0.31463823257E+02  0.00000000000E+00 0.  1.
         11    1    3    3    0    0  0.68912251275E+02  0.85924499634E+02  0.36000155402E+03  0.37647448374E+03  0.00000000000E+00 0. -1.
<mgrwt>
<rscale>  0 0.17165751E+03</rscale>
<asrwt>0</asrwt>
<pdfrwt beam="1">  1        2 0.11868833E+00 0.17842655E+03</pdfrwt>
<pdfrwt beam="2">  1       -2 0.55220207E-02 0.17842655E+03</pdfrwt>
<totfact> 0.61238828E+03</totfact>
</mgrwt>
</event>
<event>
 7    1  0.5107591E-006  0.4597958E+03  0.7546771E-02  0.1025417E+00
         -1   -1    0    0    0  501 -0.00000000000E+00  0.00000000000E+00  0.11345026297E+03  0.11345026297E+03  0.00000000000E+00 0.  1.
          1   -1    0    0  501    0  0.00000000000E+00 -0.00000000000E+00 -0.21468455875E+04  0.21468455875E+04  0.00000000000E+00 0. -1.
         23    2    1    2    0    0 -0.41029720494E+03 -0.16565689791E+03 -0.14421964280E+04  0.15113443740E+04  0.91898181663E+02 0.  0.
          5    1    1    2  502    0  0.40532350166E+03  0.13329928582E+03 -0.55029844488E+03  0.69635214442E+03  0.47000000000E+01 0.  1.
         -5    1    1    2    0  502  0.49737032744E+01  0.32357612088E+02 -0.40900451696E+02  0.52599332061E+02  0.47000000000E+01 0.  1.
        -11    1    3    3    0    0 -0.21647210485E+03 -0.13649561594E+03 -0.81781293756E+03  0.85691844780E+03  0.00000000000E+00 0.  1.
         11    1    3    3    0    0 -0.19382510009E+03 -0.29161281973E+02 -0.62438349044E+03  0.65442592623E+03  0.00000000000E+00 0. -1.
<mgrwt>
<rscale>  0 0.45781396E+03</rscale>
<asrwt>0</asrwt>
<pdfrwt beam="2">  1        1 0.33028391E+00 0.45979580E+03</pdfrwt>
<pdfrwt beam="1">  1       -1 0.17453888E-01 0.45979580E+03</pdfrwt>
<totfact> 0.65540282E+01</totfact>
</mgrwt>
</event>
<event>
 7    1  0.5107591E-006  0.5261909E+03  0.7546771E-02  0.1007160E+00
         -1   -1    0    0    0  501 -0.00000000000E+00  0.00000000000E+00  0.83880047526E+02  0.83880047526E+02  0.00000000000E+00 0.  1.
          1   -1    0    0  501    0  0.00000000000E+00 -0.00000000000E+00 -0.82521674286E+03  0.82521674286E+03  0.00000000000E+00 0. -1.
         23    2    1    2    0    0 -0.71197155989E+02 -0.15812437384E+03 -0.32845571315E+03  0.38273685555E+03  0.92368785139E+02 0.  0.
          5    1    1    2  502    0 -0.22349471798E+02 -0.72210611967E+02 -0.72608535634E+02  0.10491882966E+03  0.47000000000E+01 0. -1.
         -5    1    1    2    0  502  0.93546627788E+02  0.23033498581E+03 -0.34027244655E+03  0.42144110518E+03  0.47000000000E+01 0.  1.
        -11    1    3    3    0    0 -0.15560178925E+02  0.37922329618E+01 -0.50237018952E+01  0.16785046314E+02  0.00000000000E+00 0.  1.
         11    1    3    3    0    0 -0.55636977064E+02 -0.16191660680E+03 -0.32343201126E+03  0.36595180923E+03  0.00000000000E+00 0. -1.
<mgrwt>
<rscale>  0 0.52619091E+03</rscale>
<asrwt>0</asrwt>
<pdfrwt beam="2">  1        1 0.12695642E+00 0.52619091E+03</pdfrwt>
<pdfrwt beam="1">  1       -1 0.12904623E-01 0.52619091E+03</pdfrwt>
<totfact> 0.89201868E+02</totfact>
</mgrwt>
</event>
<event>
 7    1  0.5107591E-006  0.1361411E+03  0.7546771E-02  0.1229795E+00
         -2   -1    0    0    0  501 -0.00000000000E+00  0.00000000000E+00  0.65452619528E+03  0.65452619528E+03  0.00000000000E+00 0.  1.
          2   -1    0    0  501    0  0.00000000000E+00 -0.00000000000E+00 -0.23595127107E+02  0.23595127107E+02  0.00000000000E+00 0. -1.
         23    2    1    2    0    0  0.42819888664E+02 -0.32802051715E+02  0.21594673075E+03  0.24137607543E+03  0.93380414473E+02 0.  0.
          5    1    1    2  502    0  0.23448050445E+02 -0.25662556722E+02  0.49304998579E+02  0.60509922922E+02  0.47000000000E+01 0.  1.
         -5    1    1    2    0  502 -0.66267939109E+02  0.58464608436E+02  0.36567933885E+03  0.37623532404E+03  0.47000000000E+01 0.  1.
        -11    1    3    3    0    0 -0.45512241836E-02 -0.45055989076E+02  0.17556094865E+03  0.18125034859E+03  0.00000000000E+00 0.  1.
         11    1    3    3    0    0  0.42824439889E+02  0.12253937362E+02  0.40385782099E+02  0.60125726843E+02  0.00000000000E+00 0. -1.
<mgrwt>
<rscale>  0 0.12843601E+03</rscale>
<asrwt>0</asrwt>
<pdfrwt beam="2">  1        2 0.36300200E-02 0.13614114E+03</pdfrwt>
<pdfrwt beam="1">  1       -2 0.10069632E+00 0.13614114E+03</pdfrwt>
<totfact> 0.19576739E+03</totfact>
</mgrwt>
</event>
<event>
 7    1  0.5107591E-006  0.1276216E+03  0.7546771E-02  0.1245494E+00
          1   -1    0    0  501    0  0.00000000000E+00  0.00000000000E+00  0.14193990675E+03  0.14193990675E+03  0.00000000000E+00 0. -1.
         -1   -1    0    0    0  501 -0.00000000000E+00 -0.00000000000E+00 -0.87335131538E+02  0.87335131538E+02  0.00000000000E+00 0.  1.
         23    2    1    2    0    0 -0.23231492454E+02 -0.11042572015E+02  0.23978801443E+02  0.98030114674E+02  0.91505627292E+02 0.  0.
          5    1    1    2  502    0  0.55162615802E+02  0.66396673227E+00  0.63343387289E+02  0.84129838626E+02  0.47000000000E+01 0.  1.
         -5    1    1    2    0  502 -0.31931123348E+02  0.10378605283E+02 -0.32717413520E+02  0.47115084987E+02  0.47000000000E+01 0.  1.
        -11    1    3    3    0    0 -0.35384787918E+02 -0.41810123690E+02 -0.36977770701E+01  0.54898480983E+02  0.00000000000E+00 0.  1.
         11    1    3    3    0    0  0.12153295464E+02  0.30767551675E+02  0.27676578513E+02  0.43131633691E+02  0.00000000000E+00 0. -1.
<mgrwt>
<rscale>  0 0.11855879E+03</rscale>
<asrwt>0</asrwt>
<pdfrwt beam="1">  1        1 0.21836909E-01 0.12762163E+03</pdfrwt>
<pdfrwt beam="2">  1       -1 0.13436174E-01 0.12762163E+03</pdfrwt>
<totfact> 0.82067364E+03</totfact>
</mgrwt>
</event>
<event>
 7    1  0.5107591E-006  0.2125019E+03  0.7546771E-02  0.1143088E+00
          3   -1    0    0  501    0  0.00000000000E+00  0.00000000000E+00  0.10823312497E+03  0.10823312497E+03  0.00000000000E+00 0. -1.
         -3   -1    0    0    0  501 -0.00000000000E+00 -0.00000000000E+00 -0.41357445795E+03  0.41357445795E+03  0.00000000000E+00 0.  1.
         23    2    1    2    0    0  0.95353830927E+02 -0.14296511825E+03 -0.77374307478E+02  0.21015708242E+03  0.92993751009E+02 0.  0.
          5    1    1    2  502    0 -0.91059610760E+02  0.12344227176E+03 -0.24215601118E+03  0.28669054906E+03  0.47000000000E+01 0.  1.
         -5    1    1    2    0  502 -0.42942201670E+01  0.19522846488E+02  0.14188985673E+02  0.24959951448E+02  0.47000000000E+01 0.  1.
        -11    1    3    3    0    0  0.99521238626E+01 -0.97035929912E+02 -0.28831874053E+02  0.10171673129E+03  0.00000000000E+00 0.  1.
         11    1    3    3    0    0  0.85401707065E+02 -0.45929188337E+02 -0.48542433426E+02  0.10844035113E+03  0.00000000000E+00 0. -1.
<mgrwt>
<rscale>  0 0.20808968E+03</rscale>
<asrwt>0</asrwt>
<pdfrwt beam="1">  1        3 0.16651250E-01 0.21250193E+03</pdfrwt>
<pdfrwt beam="2">  1       -3 0.63626838E-01 0.21250193E+03</pdfrwt>
<totfact> 0.18530853E+02</totfact>
</mgrwt>
</event>
<event>
 7    1  0.5107591E-006  0.1277283E+03  0.7546771E-02  0.1245796E+00
          2   -1    0    0  501    0  0.00000000000E+00  0.00000000000E+00  0.25252756121E+03  0.25252756121E+03  0.00000000000E+00 0. -1.
         -2   -1    0    0    0  501 -0.00000000000E+00 -0.00000000000E+00 -0.74945906972E+02  0.74945906972E+02  0.00000000000E+00 0.  1.
         23    2    1    2    0    0  0.25543481591E+02 -0.74775740432E+01  0.17610736978E+03  0.19973669709E+03  0.90402206321E+02 0.  0.
          5    1    1    2  502    0 -0.19627900641E+02 -0.51775410846E+02  0.28178864901E+02  0.62306388750E+02  0.47000000000E+01 0.  1.
         -5    1    1    2    0  502 -0.59155809493E+01  0.59252984890E+02 -0.26704580447E+02  0.65430382340E+02  0.47000000000E+01 0.  1.
        -11    1    3    3    0    0  0.13847243580E+02 -0.43692611659E+02  0.49180920024E+02  0.67227623509E+02  0.00000000000E+00 0.  1.
         11    1    3    3    0    0  0.11696238011E+02  0.36215037616E+02  0.12692644976E+03  0.13250907358E+03  0.00000000000E+00 0. -1.
<mgrwt>
<rscale>  0 0.11837845E+03</rscale>
<asrwt>0</asrwt>
<pdfrwt beam="1">  1        2 0.38850394E-01 0.12772826E+03</pdfrwt>
<pdfrwt beam="2">  1       -2 0.11530140E-01 0.12772826E+03</pdfrwt>
<totfact> 0.65998359E+03</totfact>
</mgrwt>
</event>
<event>
 7    1  0.5107591E-006  0.1428065E+03  0.7546771E-02  0.1222492E+00
         -1   -1    0    0    0  501 -0.00000000000E+00  0.00000000000E+00  0.88977951993E+03  0.88977951993E+03  0.00000000000E+00 0.  1.
          1   -1    0    0  501    0  0.00000000000E+00 -0.00000000000E+00 -0.18367360575E+02  0.18367360575E+02  0.00000000000E+00 0. -1.
         23    2    1    2    0    0  0.67649031372E+01  0.68725892908E+02  0.29807797401E+03  0.31729514060E+03  0.84004258153E+02 0.  0.
          5    1    1    2  502    0 -0.39793586368E+02 -0.66218054495E+02  0.53234714551E+03  0.53794417330E+03  0.47000000000E+01 0.  1.
         -5    1    1    2    0  502  0.33028683231E+02 -0.25078384128E+01  0.40987039834E+02  0.52907566603E+02  0.47000000000E+01 0.  1.
        -11    1    3    3    0    0 -0.17273242825E+01  0.20398790570E+02  0.62987075552E+01  0.21418870717E+02  0.00000000000E+00 0. -1.
         11    1    3    3    0    0  0.84922274196E+01  0.48327102337E+02  0.29177926646E+03  0.29587626988E+03  0.00000000000E+00 0.  1.
<mgrwt>
<rscale>  0 0.13340264E+03</rscale>
<asrwt>0</asrwt>
<pdfrwt beam="2">  1        1 0.28257485E-02 0.14280648E+03</pdfrwt>
<pdfrwt beam="1">  1       -1 0.13688912E+00 0.14280648E+03</pdfrwt>
<totfact> 0.17301852E+03</totfact>
</mgrwt>
</event>
<event>
 7    1  0.5107591E-006  0.1250712E+03  0.7546771E-02  0.1254207E+00
         -2   -1    0    0    0  501 -0.00000000000E+00  0.00000000000E+00  0.51454646515E+02  0.51454646515E+02  0.00000000000E+00 0.  1.
          2   -1    0    0  501    0  0.00000000000E+00 -0.00000000000E+00 -0.21946608019E+03  0.21946608019E+03  0.00000000000E+00 0. -1.
         23    2    1    2    0    0  0.18970767232E+01 -0.38660419385E+01 -0.89098625392E+02  0.12303555420E+03  0.84738641542E+02 0.  0.
          5    1    1    2  502    0 -0.58422685169E+02 -0.16386893398E+02 -0.21135168418E+02  0.64424574207E+02  0.47000000000E+01 0.  1.
         -5    1    1    2    0  502  0.56525608446E+02  0.20252935336E+02 -0.57777639867E+02  0.83460598299E+02  0.47000000000E+01 0.  1.
        -11    1    3    3    0    0 -0.38723869080E+02 -0.13900722320E+02 -0.57009485530E+02  0.70305402054E+02  0.00000000000E+00 0. -1.
         11    1    3    3    0    0  0.40620945804E+02  0.10034680381E+02 -0.32089139862E+02  0.52730152147E+02  0.00000000000E+00 0.  1.
<mgrwt>
<rscale>  0 0.11350847E+03</rscale>
<asrwt>0</asrwt>
<pdfrwt beam="2">  1        2 0.33764013E-01 0.12507115E+03</pdfrwt>
<pdfrwt beam="1">  1       -2 0.79160994E-02 0.12507115E+03</pdfrwt>
<totfact> 0.13775785E+04</totfact>
</mgrwt>
</event>
<event>
 7    1  0.5107591E-006  0.1513615E+03  0.7546771E-02  0.1208534E+00
         -2   -1    0    0    0  501 -0.00000000000E+00  0.00000000000E+00  0.31119395981E+03  0.31119395981E+03  0.00000000000E+00 0.  1.
          2   -1    0    0  501    0  0.00000000000E+00 -0.00000000000E+00 -0.65848967867E+02  0.65848967867E+02  0.00000000000E+00 0. -1.
         23    2    1    2    0    0  0.58339214099E+02 -0.62312216332E+02  0.56674489379E+02  0.13516100347E+03  0.88148867876E+02 0.  0.
          5    1    1    2  502    0  0.30508419370E+02 -0.40242299864E+01  0.12240708162E+02  0.33449708755E+02  0.47000000000E+01 0.  1.
         -5    1    1    2    0  502 -0.88847633470E+02  0.66336446318E+02  0.17642979440E+03  0.20843221544E+03  0.47000000000E+01 0.  1.
        -11    1    3    3    0    0 -0.15389300611E+02  0.10712672259E+02  0.11389506124E+02  0.21938841582E+02  0.00000000000E+00 0.  1.
         11    1    3    3    0    0  0.73728514711E+02 -0.73024888591E+02  0.45284983255E+02  0.11322216189E+03  0.00000000000E+00 0. -1.
<mgrwt>
<rscale>  0 0.14362402E+03</rscale>
<asrwt>0</asrwt>
<pdfrwt beam="2">  1        2 0.10130611E-01 0.15136151E+03</pdfrwt>
<pdfrwt beam="1">  1       -2 0.47875993E-01 0.15136151E+03</pdfrwt>
<totfact> 0.25576980E+03</totfact>
</mgrwt>
</event>
<event>
 7    1  0.5107591E-006  0.1441116E+03  0.7546771E-02  0.1217708E+00
         -1   -1    0    0    0  501 -0.00000000000E+00  0.00000000000E+00  0.95324479956E+02  0.95324479956E+02  0.00000000000E+00 0.  1.
          1   -1    0    0  501    0  0.00000000000E+00 -0.00000000000E+00 -0.34981181680E+03  0.34981181680E+03  0.00000000000E+00 0. -1.
         23    2    1    2    0    0 -0.71378003348E+02  0.76388483922E+01 -0.27567525051E+03  0.29947545020E+03  0.92387932970E+02 0.  0.
          5    1    1    2  502    0  0.59011125286E+02  0.44451047304E+02  0.45264203321E+02  0.86770655271E+02  0.47000000000E+01 0. -1.
         -5    1    1    2    0  502  0.12366878063E+02 -0.52089895696E+02 -0.24076289654E+02  0.58890191290E+02  0.47000000000E+01 0. -1.
        -11    1    3    3    0    0 -0.35203424978E+02 -0.19479912832E+02 -0.31358658136E+02  0.51010916226E+02  0.00000000000E+00 0.  1.
         11    1    3    3    0    0 -0.36174578370E+02  0.27118761224E+02 -0.24431659238E+03  0.24846453397E+03  0.00000000000E+00 0. -1.
<mgrwt>
<rscale>  0 0.13679477E+03</rscale>
<asrwt>0</asrwt>
<pdfrwt beam="2">  1        1 0.53817202E-01 0.14411160E+03</pdfrwt>
<pdfrwt beam="1">  1       -1 0.14665305E-01 0.14411160E+03</pdfrwt>
<totfact> 0.23466268E+03</totfact>
</mgrwt>
</event>
<event>
 7    1  0.5107591E-006  0.1514707E+03  0.7546771E-02  0.1207073E+00
          2   -1    0    0  501    0  0.00000000000E+00  0.00000000000E+00  0.16344648163E+03  0.16344648163E+03  0.00000000000E+00 0. -1.
         -2   -1    0    0    0  501 -0.00000000000E+00 -0.00000000000E+00 -0.12025938272E+03  0.12025938272E+03  0.00000000000E+00 0.  1.
         23    2    1    2    0    0  0.75089457702E+02 -0.40981818131E+02  0.38844803709E+02  0.13217297552E+03  0.92966879088E+02 0.  0.
          5    1    1    2  502    0 -0.41354200911E+01  0.22554610164E+02  0.56688990462E+02  0.61331425701E+02  0.47000000000E+01 0. -1.
         -5    1    1    2    0  502 -0.70954037611E+02  0.18427207967E+02 -0.52346695262E+02  0.90201463135E+02  0.47000000000E+01 0. -1.
        -11    1    3    3    0    0  0.56757643464E+02 -0.86362297023E+01 -0.21491352260E+02  0.61301653950E+02  0.00000000000E+00 0.  1.
         11    1    3    3    0    0  0.18331814238E+02 -0.32345588429E+02  0.60336155969E+02  0.70871321570E+02  0.00000000000E+00 0. -1.
<mgrwt>
<rscale>  0 0.14475319E+03</rscale>
<asrwt>0</asrwt>
<pdfrwt beam="1">  1        2 0.25145613E-01 0.15147066E+03</pdfrwt>
<pdfrwt beam="2">  1       -2 0.18501443E-01 0.15147066E+03</pdfrwt>
<totfact> 0.49387147E+03</totfact>
</mgrwt>
</event>
<event>
 7    1  0.5107591E-006  0.1591600E+03  0.7546771E-02  0.1197325E+00
         -2   -1    0    0    0  501 -0.00000000000E+00  0.00000000000E+00  0.18797048411E+03  0.18797048411E+03  0.00000000000E+00 0. -1.
          2   -1    0    0  501    0  0.00000000000E+00 -0.00000000000E+00 -0.13753434575E+03  0.13753434575E+03  0.00000000000E+00 0.  1.
         23    2    1    2    0    0 -0.85409403459E+02 -0.49091984062E+02 -0.42717551706E+02  0.14108812755E+03  0.91522026933E+02 0.  0.
          5    1    1    2  502    0  0.56658600542E+02  0.21967983764E+02 -0.20253528161E+02  0.64226822505E+02  0.47000000000E+01 0.  1.
         -5    1    1    2    0  502  0.28750802917E+02  0.27124000298E+02  0.11340721823E+03  0.12018987980E+03  0.47000000000E+01 0.  1.
        -11    1    3    3    0    0 -0.48478120706E+02 -0.51676201462E+02  0.15087083436E+02  0.72444310138E+02  0.00000000000E+00 0. -1.
         11    1    3    3    0    0 -0.36931282753E+02  0.25842173993E+01 -0.57804635141E+02  0.68643817414E+02  0.00000000000E+00 0.  1.
<mgrwt>
<rscale>  0 0.15259085E+03</rscale>
<asrwt>0</asrwt>
<pdfrwt beam="2">  1        2 0.21159130E-01 0.15916001E+03</pdfrwt>
<pdfrwt beam="1">  1       -2 0.28918536E-01 0.15916001E+03</pdfrwt>
<totfact> 0.27691439E+03</totfact>
</mgrwt>
</event>
<event>
 7    1  0.5107591E-006  0.1463021E+03  0.7546771E-02  0.1214759E+00
         -2   -1    0    0    0  501 -0.00000000000E+00  0.00000000000E+00  0.57587732447E+02  0.57587732447E+02  0.00000000000E+00 0.  1.
          2   -1    0    0  501    0  0.00000000000E+00 -0.00000000000E+00 -0.40577710780E+03  0.40577710780E+03  0.00000000000E+00 0. -1.
         23    2    1    2    0    0 -0.47912475722E+02 -0.57927804899E+02 -0.27527362221E+03  0.29989918667E+03  0.92264398183E+02 0.  0.
          5    1    1    2  502    0  0.47644202051E+02  0.19881216653E+02 -0.10261825249E+03  0.11496881538E+03  0.47000000000E+01 0. -1.
         -5    1    1    2    0  502  0.26827367030E+00  0.38046588246E+02  0.29702499346E+02  0.48496838199E+02  0.47000000000E+01 0.  1.
        -11    1    3    3    0    0 -0.60659190530E+02 -0.29144150811E+02 -0.92251703484E+02  0.11418973561E+03  0.00000000000E+00 0.  1.
         11    1    3    3    0    0  0.12746714808E+02 -0.28783654088E+02 -0.18302191872E+03  0.18570945106E+03  0.00000000000E+00 0. -1.
<mgrwt>
<rscale>  0 0.13894280E+03</rscale>
<asrwt>0</asrwt>
<pdfrwt beam="2">  1        2 0.62427249E-01 0.14630213E+03</pdfrwt>
<pdfrwt beam="1">  1       -2 0.88596509E-02 0.14630213E+03</pdfrwt>
<totfact> 0.60864634E+03</totfact>
</mgrwt>
</event>
<event>
 7    1  0.5107591E-006  0.1421534E+03  0.7546771E-02  0.1219670E+00
         -1   -1    0    0    0  501 -0.00000000000E+00  0.00000000000E+00  0.19757916771E+03  0.19757916771E+03  0.00000000000E+00 0.  1.
          1   -1    0    0  501    0  0.00000000000E+00 -0.00000000000E+00 -0.11634425258E+03  0.11634425258E+03  0.00000000000E+00 0. -1.
         23    2    1    2    0    0 -0.51164919902E+02 -0.44350697530E+02 -0.43507110995E+02  0.12479872522E+03  0.95378297891E+02 0.  0.
          5    1    1    2  502    0  0.22790686425E+02  0.16851569213E+02  0.14263148953E+03  0.14549646930E+03  0.47000000000E+01 0. -1.
         -5    1    1    2    0  502  0.28374233478E+02  0.27499128317E+02 -0.17889463408E+02  0.43628225779E+02  0.47000000000E+01 0. -1.
        -11    1    3    3    0    0  0.63624526056E+01 -0.15433267874E+02  0.25462056824E+02  0.30446393845E+02  0.00000000000E+00 0.  1.
         11    1    3    3    0    0 -0.57527372508E+02 -0.28917429657E+02 -0.68969167819E+02  0.94352331372E+02  0.00000000000E+00 0. -1.
<mgrwt>
<rscale>  0 0.13538980E+03</rscale>
<asrwt>0</asrwt>
<pdfrwt beam="2">  1        1 0.17899116E-01 0.14215336E+03</pdfrwt>
<pdfrwt beam="1">  1       -1 0.30396795E-01 0.14215336E+03</pdfrwt>
<totfact> 0.28567499E+03</totfact>
</mgrwt>
</event>
<event>
 7    1  0.5107591E-006  0.1329964E+03  0.7546771E-02  0.1236052E+00
         -2   -1    0    0    0  501 -0.00000000000E+00  0.00000000000E+00  0.98565034299E+03  0.98565034299E+03  0.00000000000E+00 0.  1.
          2   -1    0    0  501    0  0.00000000000E+00 -0.00000000000E+00 -0.33719694570E+02  0.33719694570E+02  0.00000000000E+00 0. -1.
         23    2    1    2    0    0 -0.44089625360E+02  0.10946362292E+02  0.61079626077E+02  0.11864611367E+03  0.91008030719E+02 0.  0.
          5    1    1    2  502    0  0.26102230762E+02 -0.25971855058E+02  0.67563336999E+02  0.77089287274E+02  0.47000000000E+01 0. -1.
         -5    1    1    2    0  502  0.17987394599E+02  0.15025492766E+02  0.82328768534E+03  0.82363463662E+03  0.47000000000E+01 0. -1.
        -11    1    3    3    0    0 -0.48409720507E+02 -0.43915753101E+01  0.80184926772E+02  0.93767848726E+02  0.00000000000E+00 0.  1.
         11    1    3    3    0    0  0.43200951463E+01  0.15337937602E+02 -0.19105300695E+02  0.24878264944E+02  0.00000000000E+00 0. -1.
<mgrwt>
<rscale>  0 0.12437338E+03</rscale>
<asrwt>0</asrwt>
<pdfrwt beam="2">  1        2 0.51876461E-02 0.13299640E+03</pdfrwt>
<pdfrwt beam="1">  1       -2 0.15163849E+00 0.13299640E+03</pdfrwt>
<totfact> 0.45277062E+02</totfact>
</mgrwt>
</event>
<event>
 7    1  0.5107591E-006  0.1879055E+03  0.7546771E-02  0.1165320E+00
         -1   -1    0    0    0  501 -0.00000000000E+00  0.00000000000E+00  0.31702882981E+03  0.31702882981E+03  0.00000000000E+00 0.  1.
          1   -1    0    0  501    0  0.00000000000E+00 -0.00000000000E+00 -0.15278869113E+03  0.15278869113E+03  0.00000000000E+00 0. -1.
         23    2    1    2    0    0 -0.37153893278E+02  0.13528885093E+03 -0.59372491680E+02  0.17773687688E+03  0.91552278312E+02 0.  0.
          5    1    1    2  502    0 -0.17043536668E+02 -0.12681883852E+03  0.12389038180E+03  0.17816962886E+03  0.47000000000E+01 0.  1.
         -5    1    1    2    0  502  0.54197429945E+02 -0.84700124138E+01  0.99722248572E+02  0.11391101520E+03  0.47000000000E+01 0.  1.
        -11    1    3    3    0    0 -0.16958105512E+02  0.76061908983E+02  0.16225336332E+02  0.79600583413E+02  0.00000000000E+00 0.  1.
         11    1    3    3    0    0 -0.20195787765E+02  0.59226941950E+02 -0.75597828012E+02  0.98136293472E+02  0.00000000000E+00 0. -1.
<mgrwt>
<rscale>  0 0.18258955E+03</rscale>
<asrwt>0</asrwt>
<pdfrwt beam="2">  1        1 0.23505953E-01 0.18790555E+03</pdfrwt>
<pdfrwt beam="1">  1       -1 0.48773666E-01 0.18790555E+03</pdfrwt>
<totfact> 0.88848886E+02</totfact>
</mgrwt>
</event>
<event>
 7    1  0.7162327E-006  0.1830493E+03  0.7546771E-02  0.1170331E+00
          2   -1    0    0  501    0  0.00000000000E+00  0.00000000000E+00  0.13243816709E+04  0.13243816709E+04  0.00000000000E+00 0. -1.
         -2   -1    0    0    0  501 -0.00000000000E+00 -0.00000000000E+00 -0.22623468579E+02  0.22623468579E+02  0.00000000000E+00 0.  1.
         23    2    1    2    0    0  0.13030253454E+03  0.30053688360E+02  0.67556259749E+03  0.69460344930E+03  0.90593343901E+02 0.  0.
          5    1    1    2  502    0  0.16760575948E+02 -0.27390936873E+02  0.71573389760E+02  0.78587660932E+02  0.47000000000E+01 0.  1.
         -5    1    1    2    0  502 -0.14706311049E+03 -0.26627514872E+01  0.55462221505E+03  0.57381402923E+03  0.47000000000E+01 0.  1.
        -11    1    3    3    0    0  0.56134054779E+02  0.53144205184E+02  0.23918483777E+03  0.25136572015E+03  0.00000000000E+00 0. -1.
         11    1    3    3    0    0  0.74168479761E+02 -0.23090516824E+02  0.43637775973E+03  0.44323772915E+03  0.00000000000E+00 0.  1.
<mgrwt>
<rscale>  0 0.17741218E+03</rscale>
<asrwt>0</asrwt>
<pdfrwt beam="1">  1        2 0.20375097E+00 0.18304926E+03</pdfrwt>
<pdfrwt beam="2">  1       -2 0.34805347E-02 0.18304926E+03</pdfrwt>
<totfact> 0.57053560E+03</totfact>
</mgrwt>
</event>
<event>
 7    1  0.5107591E-006  0.1527831E+03  0.7546771E-02  0.1205761E+00
         -2   -1    0    0    0  501 -0.00000000000E+00  0.00000000000E+00  0.78597536181E+02  0.78597536181E+02  0.00000000000E+00 0.  1.
          2   -1    0    0  501    0  0.00000000000E+00 -0.00000000000E+00 -0.27957865803E+03  0.27957865803E+03  0.00000000000E+00 0. -1.
         23    2    1    2    0    0 -0.50910672016E+02  0.71691427123E+02 -0.15178243488E+03  0.19766706364E+03  0.91119719396E+02 0.  0.
          5    1    1    2  502    0  0.41523289070E+02 -0.94849214638E+01  0.34979081825E+02  0.55315218843E+02  0.47000000000E+01 0. -1.
         -5    1    1    2    0  502  0.93873829455E+01 -0.62206505659E+02 -0.84177768792E+02  0.10519391172E+03  0.47000000000E+01 0. -1.
        -11    1    3    3    0    0 -0.31600061890E+02  0.33471374010E+02 -0.68467351304E+01  0.46537883187E+02  0.00000000000E+00 0.  1.
         11    1    3    3    0    0 -0.19310610126E+02  0.38220053113E+02 -0.14493569975E+03  0.15112918045E+03  0.00000000000E+00 0. -1.
<mgrwt>
<rscale>  0 0.14577663E+03</rscale>
<asrwt>0</asrwt>
<pdfrwt beam="2">  1        2 0.43012102E-01 0.15278308E+03</pdfrwt>
<pdfrwt beam="1">  1       -2 0.12091929E-01 0.15278308E+03</pdfrwt>
<totfact> 0.55522276E+03</totfact>
</mgrwt>
</event>
<event>
 7    1  0.5107591E-006  0.1398738E+03  0.7546771E-02  0.1217436E+00
          2   -1    0    0  501    0  0.00000000000E+00  0.00000000000E+00  0.66040768580E+03  0.66040768580E+03  0.00000000000E+00 0. -1.
         -2   -1    0    0    0  501 -0.00000000000E+00 -0.00000000000E+00 -0.28309707452E+02  0.28309707452E+02  0.00000000000E+00 0.  1.
         23    2    1    2    0    0 -0.67462613210E+01  0.62404655515E+02  0.36819532289E+03  0.39003813373E+03  0.11234810585E+03 0.  0.
          5    1    1    2  502    0  0.24577324404E+02 -0.21758580806E+02  0.22379796394E+01  0.33235211244E+02  0.47000000000E+01 0. -1.
         -5    1    1    2    0  502 -0.17831063083E+02 -0.40646074708E+02  0.26166467582E+03  0.26544404829E+03  0.47000000000E+01 0. -1.
        -11    1    3    3    0    0  0.32848193111E+02  0.71823601759E+02  0.30348199197E+03  0.31359042239E+03  0.00000000000E+00 0.  1.
         11    1    3    3    0    0 -0.39594454432E+02 -0.94189462447E+01  0.64713330923E+02  0.76447711341E+02  0.00000000000E+00 0. -1.
<mgrwt>
<rscale>  0 0.13699076E+03</rscale>
<asrwt>0</asrwt>
<pdfrwt beam="1">  1        2 0.10160117E+00 0.13987383E+03</pdfrwt>
<pdfrwt beam="2">  1       -2 0.43553401E-02 0.13987383E+03</pdfrwt>
<totfact> 0.10417487E+04</totfact>
</mgrwt>
</event>
<event>
 7    1  0.5107591E-006  0.1117947E+03  0.7546771E-02  0.1276277E+00
          1   -1    0    0  501    0  0.00000000000E+00  0.00000000000E+00  0.46574549829E+03  0.46574549829E+03  0.00000000000E+00 0. -1.
         -1   -1    0    0    0  501 -0.00000000000E+00 -0.00000000000E+00 -0.19846709571E+02  0.19846709571E+02  0.00000000000E+00 0.  1.
         23    2    1    2    0    0  0.12418786743E+01  0.10638736999E+02  0.22709827424E+03  0.23988561327E+03  0.76529447304E+02 0.  0.
          5    1    1    2  502    0 -0.25874286594E+02 -0.30743601366E+01  0.21789538934E+03  0.21949811182E+03  0.47000000000E+01 0. -1.
         -5    1    1    2    0  502  0.24632407919E+02 -0.75643768624E+01  0.90512513401E+00  0.26208482763E+02  0.47000000000E+01 0.  1.
        -11    1    3    3    0    0  0.95583723473E+01 -0.28973033951E+02  0.14710355517E+03  0.15023400122E+03  0.00000000000E+00 0. -1.
         11    1    3    3    0    0 -0.83164936730E+01  0.39611770951E+02  0.79994719070E+02  0.89651612054E+02  0.00000000000E+00 0.  1.
<mgrwt>
<rscale>  0 0.10193570E+03</rscale>
<asrwt>0</asrwt>
<pdfrwt beam="1">  1        1 0.71653146E-01 0.11179475E+03</pdfrwt>
<pdfrwt beam="2">  1       -1 0.30533403E-02 0.11179475E+03</pdfrwt>
<totfact> 0.16902748E+04</totfact>
</mgrwt>
</event>
<event>
 7    1  0.5107591E-006  0.2866118E+03  0.7546771E-02  0.1092132E+00
         -1   -1    0    0    0  501 -0.00000000000E+00  0.00000000000E+00  0.20113982911E+02  0.20113982911E+02  0.00000000000E+00 0.  1.
          1   -1    0    0  501    0  0.00000000000E+00 -0.00000000000E+00 -0.10210098629E+04  0.10210098629E+04  0.00000000000E+00 0. -1.
         23    2    1    2    0    0 -0.17291122929E+02 -0.18497098684E+02 -0.34138224873E+03  0.35511963683E+03  0.94482755679E+02 0.  0.
          5    1    1    2  502    0  0.98831378575E+02  0.28036273474E+02 -0.29764031435E+03  0.31490557434E+03  0.47000000000E+01 0. -1.
         -5    1    1    2    0  502 -0.81540255646E+02 -0.95391747903E+01 -0.36187331688E+03  0.37109863462E+03  0.47000000000E+01 0.  1.
        -11    1    3    3    0    0 -0.42290305315E+02  0.23382218860E+02 -0.14841562757E+03  0.15608458153E+03  0.00000000000E+00 0.  1.
         11    1    3    3    0    0  0.24999182385E+02 -0.41879317544E+02 -0.19296662115E+03  0.19903505530E+03  0.00000000000E+00 0. -1.
<mgrwt>
<rscale>  0 0.28661176E+03</rscale>
<asrwt>0</asrwt>
<pdfrwt beam="2">  1        1 0.15707841E+00 0.28661176E+03</pdfrwt>
<pdfrwt beam="1">  1       -1 0.30944595E-02 0.28661176E+03</pdfrwt>
<totfact> 0.55589464E+03</totfact>
</mgrwt>
</event>
<event>
 7    1  0.5107591E-006  0.2027403E+03  0.7546771E-02  0.1151858E+00
          2   -1    0    0  501    0  0.00000000000E+00  0.00000000000E+00  0.11007139156E+04  0.11007139156E+04  0.00000000000E+00 0. -1.
         -2   -1    0    0    0  501 -0.00000000000E+00 -0.00000000000E+00 -0.38130733349E+02  0.38130733349E+02  0.00000000000E+00 0.  1.
         23    2    1    2    0    0  0.40731258521E+02 -0.15432794931E+03  0.70001833722E+03  0.72344494874E+03  0.88717360538E+02 0.  0.
          5    1    1    2  502    0  0.31679360137E+02  0.29315460396E+02  0.16491475923E+03  0.17053429534E+03  0.47000000000E+01 0.  1.
         -5    1    1    2    0  502 -0.72410618659E+02  0.12501248892E+03  0.19765008581E+03  0.24486540487E+03  0.47000000000E+01 0.  1.
        -11    1    3    3    0    0  0.38677735151E+02 -0.99974524576E+02  0.60086945166E+03  0.61035642923E+03  0.00000000000E+00 0. -1.
         11    1    3    3    0    0  0.20535233708E+01 -0.54353424739E+02  0.99148885558E+02  0.11308851952E+03  0.00000000000E+00 0.  1.
<mgrwt>
<rscale>  0 0.19750909E+03</rscale>
<asrwt>0</asrwt>
<pdfrwt beam="1">  1        2 0.16934058E+00 0.20274034E+03</pdfrwt>
<pdfrwt beam="2">  1       -2 0.58662675E-02 0.20274034E+03</pdfrwt>
<totfact> 0.34750186E+03</totfact>
</mgrwt>
</event>
<event>
 7    1  0.5107591E-006  0.1355708E+03  0.7546771E-02  0.1225350E+00
          2   -1    0    0  501    0  0.00000000000E+00  0.00000000000E+00  0.56041156647E+03  0.56041156647E+03  0.00000000000E+00 0. -1.
         -2   -1    0    0    0  501 -0.00000000000E+00 -0.00000000000E+00 -0.30570561648E+02  0.30570561648E+02  0.00000000000E+00 0.  1.
         23    2    1    2    0    0 -0.43383512556E+02 -0.29537470597E+02  0.31442200922E+03  0.33645358156E+03  0.10763466604E+03 0.  0.
          5    1    1    2  502    0  0.42824852195E+02 -0.44099486577E+02  0.10364733347E+03  0.12059681761E+03  0.47000000000E+01 0. -1.
         -5    1    1    2    0  502  0.55866036165E+00  0.73636957174E+02  0.11177166213E+03  0.13393172895E+03  0.47000000000E+01 0. -1.
        -11    1    3    3    0    0 -0.26417474477E+01 -0.63815816358E+02  0.20581141882E+03  0.21549426295E+03  0.00000000000E+00 0.  1.
         11    1    3    3    0    0 -0.40741765109E+02  0.34278345761E+02  0.10861059040E+03  0.12095931861E+03  0.00000000000E+00 0. -1.
<mgrwt>
<rscale>  0 0.13142940E+03</rscale>
<asrwt>0</asrwt>
<pdfrwt beam="1">  1        2 0.86217157E-01 0.13557078E+03</pdfrwt>
<pdfrwt beam="2">  1       -2 0.47031637E-02 0.13557078E+03</pdfrwt>
<totfact> 0.11181067E+04</totfact>
</mgrwt>
</event>
<event>
 7    1  0.5107591E-006  0.1285628E+03  0.7546771E-02  0.1244054E+00
         -2   -1    0    0    0  501 -0.00000000000E+00  0.00000000000E+00  0.67035338913E+03  0.67035338913E+03  0.00000000000E+00 0.  1.
          2   -1    0    0  501    0  0.00000000000E+00 -0.00000000000E+00 -0.19086374447E+02  0.19086374447E+02  0.00000000000E+00 0. -1.
         23    2    1    2    0    0  0.25767396769E+02  0.15147043638E+02  0.23409885189E+03  0.25291064738E+03  0.90929266114E+02 0.  0.
          5    1    1    2  502    0 -0.68105092596E+01  0.49857697826E+02  0.98461961079E+02  0.11067529466E+03  0.47000000000E+01 0. -1.
         -5    1    1    2    0  502 -0.18956887509E+02 -0.65004741464E+02  0.31870620171E+03  0.32585382153E+03  0.47000000000E+01 0. -1.
        -11    1    3    3    0    0  0.59842936777E+01 -0.31823503628E+02  0.15824847557E+03  0.16152748118E+03  0.00000000000E+00 0.  1.
         11    1    3    3    0    0  0.19783103091E+02  0.46970547267E+02  0.75850376318E+02  0.91383166207E+02  0.00000000000E+00 0. -1.
<mgrwt>
<rscale>  0 0.11942148E+03</rscale>
<asrwt>0</asrwt>
<pdfrwt beam="2">  1        2 0.29363658E-02 0.12856280E+03</pdfrwt>
<pdfrwt beam="1">  1       -2 0.10313127E+00 0.12856280E+03</pdfrwt>
<totfact> 0.24499203E+03</totfact>
</mgrwt>
</event>
<event>
 7    1  0.5107591E-006  0.1287621E+03  0.7546771E-02  0.1244245E+00
         -1   -1    0    0    0  501 -0.00000000000E+00  0.00000000000E+00  0.78066936048E+02  0.78066936048E+02  0.00000000000E+00 0.  1.
          1   -1    0    0  501    0  0.00000000000E+00 -0.00000000000E+00 -0.16085137962E+03  0.16085137962E+03  0.00000000000E+00 0. -1.
         23    2    1    2    0    0  0.71589232982E+01 -0.30051062008E+02 -0.42628449135E+02  0.10403992918E+03  0.89737426291E+02 0.  0.
          5    1    1    2  502    0  0.47793914993E+02  0.24073908881E+02  0.15887738322E+02  0.56020724988E+02  0.47000000000E+01 0. -1.
         -5    1    1    2    0  502 -0.54952838292E+02  0.59771531272E+01 -0.56043732756E+02  0.78857661499E+02  0.47000000000E+01 0. -1.
        -11    1    3    3    0    0  0.86265640070E+01 -0.48778447846E+02  0.78737601540E+01  0.50157259492E+02  0.00000000000E+00 0.  1.
         11    1    3    3    0    0 -0.14676407088E+01  0.18727385837E+02 -0.50502209289E+02  0.53882669687E+02  0.00000000000E+00 0. -1.
<mgrwt>
<rscale>  0 0.11930654E+03</rscale>
<asrwt>0</asrwt>
<pdfrwt beam="2">  1        1 0.24746366E-01 0.12876209E+03</pdfrwt>
<pdfrwt beam="1">  1       -1 0.12010298E-01 0.12876209E+03</pdfrwt>
<totfact> 0.83460867E+03</totfact>
</mgrwt>
</event>
<event>
 7    1  0.5107591E-006  0.2194501E+03  0.7546771E-02  0.1134294E+00
          1   -1    0    0  501    0  0.00000000000E+00  0.00000000000E+00  0.10895857829E+03  0.10895857829E+03  0.00000000000E+00 0. -1.
         -1   -1    0    0    0  501 -0.00000000000E+00 -0.00000000000E+00 -0.11049686453E+03  0.11049686453E+03  0.00000000000E+00 0.  1.
         23    2    1    2    0    0 -0.41064900375E+02  0.11941182545E+02 -0.84570191575E+00  0.87345741214E+02  0.76155403046E+02 0.  0.
          5    1    1    2  502    0  0.77835574254E+02  0.22609342368E+02  0.34809985390E+01  0.81263560915E+02  0.47000000000E+01 0. -1.
         -5    1    1    2    0  502 -0.36770673879E+02 -0.34550524913E+02 -0.41735828611E+01  0.50846140691E+02  0.47000000000E+01 0. -1.
        -11    1    3    3    0    0  0.67997833516E+00  0.38060331258E+02 -0.15507781084E+01  0.38097980245E+02  0.00000000000E+00 0.  1.
         11    1    3    3    0    0 -0.41744878711E+02 -0.26119148713E+02  0.70507619262E+00  0.49247760969E+02  0.00000000000E+00 0. -1.
<mgrwt>
<rscale>  0 0.21945005E+03</rscale>
<asrwt>0</asrwt>
<pdfrwt beam="1">  1        1 0.16762858E-01 0.21945005E+03</pdfrwt>
<pdfrwt beam="2">  1       -1 0.16999518E-01 0.21945005E+03</pdfrwt>
<totfact> 0.82587582E+03</totfact>
</mgrwt>
</event>
<event>
 7    1  0.5107591E-006  0.1906139E+03  0.7546771E-02  0.1162644E+00
         -2   -1    0    0    0  501 -0.00000000000E+00  0.00000000000E+00  0.69008022435E+02  0.69008022435E+02  0.00000000000E+00 0.  1.
          2   -1    0    0  501    0  0.00000000000E+00 -0.00000000000E+00 -0.63169858135E+03  0.63169858135E+03  0.00000000000E+00 0. -1.
         23    2    1    2    0    0  0.39715648241E+02 -0.13831332078E+03 -0.44514860939E+03  0.47676514238E+03  0.91868433798E+02 0.  0.
          5    1    1    2  502    0  0.18407742388E+02  0.52281043687E+02 -0.10556127228E+03  0.11932068016E+03  0.47000000000E+01 0. -1.
         -5    1    1    2    0  502 -0.58123390629E+02  0.86032277097E+02 -0.11980677250E+02  0.10462078124E+03  0.47000000000E+01 0. -1.
        -11    1    3    3    0    0 -0.64041375603E+01 -0.10541413076E+03 -0.21220721786E+03  0.23703386942E+03  0.00000000000E+00 0.  1.
         11    1    3    3    0    0  0.46119785802E+02 -0.32899190020E+02 -0.23294139153E+03  0.23973127296E+03  0.00000000000E+00 0. -1.
<mgrwt>
<rscale>  0 0.18543493E+03</rscale>
<asrwt>0</asrwt>
<pdfrwt beam="2">  1        2 0.97184399E-01 0.19061392E+03</pdfrwt>
<pdfrwt beam="1">  1       -2 0.10616619E-01 0.19061392E+03</pdfrwt>
<totfact> 0.28291412E+03</totfact>
</mgrwt>
</event>
<event>
 7    1  0.5107591E-006  0.1559169E+03  0.7546771E-02  0.1214891E+00
          2   -1    0    0  501    0  0.00000000000E+00  0.00000000000E+00  0.11154102534E+02  0.11154102534E+02  0.00000000000E+00 0. -1.
         -2   -1    0    0    0  501 -0.00000000000E+00 -0.00000000000E+00 -0.20862655536E+04  0.20862655536E+04  0.00000000000E+00 0.  1.
         23    2    1    2    0    0 -0.23380003112E+02  0.27909021516E+02 -0.30316107112E+03  0.31862280926E+03  0.91040219207E+02 0.  0.
          5    1    1    2  502    0 -0.25473986903E+02 -0.59188551074E+02 -0.36714941287E+03  0.37279081260E+03  0.47000000000E+01 0. -1.
         -5    1    1    2    0  502  0.48853990015E+02  0.31279529558E+02 -0.14048009671E+04  0.14060060343E+04  0.47000000000E+01 0.  1.
        -11    1    3    3    0    0  0.33905116923E+02  0.66222270208E+01 -0.77844277229E+02  0.85165382296E+02  0.00000000000E+00 0.  1.
         11    1    3    3    0    0 -0.57285120035E+02  0.21286794495E+02 -0.22531679389E+03  0.23345742697E+03  0.00000000000E+00 0. -1.
<mgrwt>
<rscale>  0 0.13884558E+03</rscale>
<asrwt>0</asrwt>
<pdfrwt beam="1">  1        2 0.17160151E-02 0.15591688E+03</pdfrwt>
<pdfrwt beam="2">  1       -2 0.32096406E+00 0.15591688E+03</pdfrwt>
<totfact> 0.18702944E+02</totfact>
</mgrwt>
</event>
<event>
 7    1  0.5107591E-006  0.1297353E+03  0.7546771E-02  0.1240476E+00
         -3   -1    0    0    0  501 -0.00000000000E+00  0.00000000000E+00  0.23346924970E+02  0.23346924970E+02  0.00000000000E+00 0.  1.
          3   -1    0    0  501    0  0.00000000000E+00 -0.00000000000E+00 -0.56657926988E+03  0.56657926988E+03  0.00000000000E+00 0. -1.
         23    2    1    2    0    0 -0.23780202285E+02  0.25275165623E+02 -0.22606605950E+03  0.24725186645E+03  0.93932370279E+02 0.  0.
          5    1    1    2  502    0 -0.42835838896E+02 -0.24909580661E+02 -0.65314197858E+02  0.82118394678E+02  0.47000000000E+01 0.  1.
         -5    1    1    2    0  502  0.66616041181E+02 -0.36558496270E+00 -0.25185208755E+03  0.26055593372E+03  0.47000000000E+01 0.  1.
        -11    1    3    3    0    0 -0.58473187970E+01  0.50509705469E+02 -0.20125448352E+03  0.20757839150E+03  0.00000000000E+00 0. -1.
         11    1    3    3    0    0 -0.17932883488E+02 -0.25234539846E+02 -0.24811575985E+02  0.39673474946E+02  0.00000000000E+00 0.  1.
<mgrwt>
<rscale>  0 0.12160273E+03</rscale>
<asrwt>0</asrwt>
<pdfrwt beam="2">  1        3 0.87166042E-01 0.12973528E+03</pdfrwt>
<pdfrwt beam="1">  1       -3 0.35918346E-02 0.12973528E+03</pdfrwt>
<totfact> 0.10880634E+03</totfact>
</mgrwt>
</event>
<event>
 7    1  0.5107591E-006  0.1293909E+03  0.7546771E-02  0.1242075E+00
          1   -1    0    0  501    0  0.00000000000E+00  0.00000000000E+00  0.35599758951E+02  0.35599758951E+02  0.00000000000E+00 0. -1.
         -1   -1    0    0    0  501 -0.00000000000E+00 -0.00000000000E+00 -0.38491441794E+03  0.38491441794E+03  0.00000000000E+00 0.  1.
         23    2    1    2    0    0  0.33405291914E+02  0.79452640079E+00 -0.10115148874E+03  0.14064461080E+03  0.91829941040E+02 0.  0.
          5    1    1    2  502    0 -0.40141407997E+02 -0.43407439494E+02 -0.51729580739E+02  0.78699288198E+02  0.47000000000E+01 0. -1.
         -5    1    1    2    0  502  0.67361160824E+01  0.42612913094E+02 -0.19643358950E+03  0.20117027789E+03  0.47000000000E+01 0. -1.
        -11    1    3    3    0    0  0.34317853645E+02 -0.32893301909E+02 -0.95220315608E+02  0.10642646707E+03  0.00000000000E+00 0.  1.
         11    1    3    3    0    0 -0.91256173111E+00  0.33687828310E+02 -0.59311731355E+01  0.34218143724E+02  0.00000000000E+00 0. -1.
<mgrwt>
<rscale>  0 0.12062137E+03</rscale>
<asrwt>0</asrwt>
<pdfrwt beam="1">  1        1 0.54768859E-02 0.12939094E+03</pdfrwt>
<pdfrwt beam="2">  1       -1 0.59217604E-01 0.12939094E+03</pdfrwt>
<totfact> 0.41731215E+03</totfact>
</mgrwt>
</event>
<event>
 7    1  0.5107591E-006  0.1344784E+03  0.7546771E-02  0.1233918E+00
         -1   -1    0    0    0  501 -0.00000000000E+00  0.00000000000E+00  0.46640503292E+02  0.46640503292E+02  0.00000000000E+00 0.  1.
          1   -1    0    0  501    0  0.00000000000E+00 -0.00000000000E+00 -0.39766043892E+03  0.39766043892E+03  0.00000000000E+00 0. -1.
         23    2    1    2    0    0 -0.43607986442E+02 -0.23321082557E+02 -0.26608230882E+03  0.28524487891E+03  0.90107249996E+02 0.  0.
          5    1    1    2  502    0 -0.26840638613E+02 -0.33711611866E+02 -0.22029185636E+02  0.48623735722E+02  0.47000000000E+01 0. -1.
         -5    1    1    2    0  502  0.70448625055E+02  0.57032694423E+02 -0.62908441174E+02  0.11043232759E+03  0.47000000000E+01 0. -1.
        -11    1    3    3    0    0 -0.68862733003E+02 -0.10421683620E+02 -0.22336545030E+03  0.23397181855E+03  0.00000000000E+00 0. -1.
         11    1    3    3    0    0  0.25254746561E+02 -0.12899398937E+02 -0.42716858520E+02  0.51273060359E+02  0.00000000000E+00 0.  1.
<mgrwt>
<rscale>  0 0.12573964E+03</rscale>
<asrwt>0</asrwt>
<pdfrwt beam="2">  1        1 0.61178531E-01 0.13447837E+03</pdfrwt>
<pdfrwt beam="1">  1       -1 0.71754618E-02 0.13447837E+03</pdfrwt>
<totfact> 0.59487895E+03</totfact>
</mgrwt>
</event>
<event>
 7    1  0.5107591E-006  0.1260319E+03  0.7546771E-02  0.1249057E+00
          1   -1    0    0  501    0  0.00000000000E+00  0.00000000000E+00  0.17550482313E+02  0.17550482313E+02  0.00000000000E+00 0. -1.
         -1   -1    0    0    0  501 -0.00000000000E+00 -0.00000000000E+00 -0.85658402706E+03  0.85658402706E+03  0.00000000000E+00 0.  1.
         23    2    1    2    0    0 -0.10022933630E+02  0.12588404120E+02 -0.16911920867E+03  0.19246797729E+03  0.90463740928E+02 0.  0.
          5    1    1    2  502    0  0.79911599871E+01 -0.42192337803E+02 -0.63113161402E+03  0.63260829604E+03  0.47000000000E+01 0. -1.
         -5    1    1    2    0  502  0.20317736427E+01  0.29603933683E+02 -0.38782722057E+02  0.49058236044E+02  0.47000000000E+01 0. -1.
        -11    1    3    3    0    0 -0.37835349065E+02 -0.24833979292E+02 -0.83591000649E+02  0.95056275731E+02  0.00000000000E+00 0. -1.
         11    1    3    3    0    0  0.27812415435E+02  0.37422383413E+02 -0.85528208024E+02  0.97411701558E+02  0.00000000000E+00 0.  1.
<mgrwt>
<rscale>  0 0.11645819E+03</rscale>
<asrwt>0</asrwt>
<pdfrwt beam="1">  1        1 0.27000743E-02 0.12603191E+03</pdfrwt>
<pdfrwt beam="2">  1       -1 0.13178215E+00 0.12603191E+03</pdfrwt>
<totfact> 0.20111654E+03</totfact>
</mgrwt>
</event>
<event>
 7    1  0.5107591E-006  0.1753928E+03  0.7546771E-02  0.1177496E+00
          1   -1    0    0  501    0  0.00000000000E+00  0.00000000000E+00  0.83641542252E+02  0.83641542252E+02  0.00000000000E+00 0. -1.
         -1   -1    0    0    0  501 -0.00000000000E+00 -0.00000000000E+00 -0.34914601213E+03  0.34914601213E+03  0.00000000000E+00 0.  1.
         23    2    1    2    0    0  0.43685826185E+02  0.11623169165E+03 -0.72681573442E+02  0.17212821856E+03  0.94484151869E+02 0.  0.
          5    1    1    2  502    0 -0.35044742945E+02 -0.91564314375E+02 -0.40736606787E+02  0.10627190978E+03  0.47000000000E+01 0. -1.
         -5    1    1    2    0  502 -0.86410832400E+01 -0.24667377274E+02 -0.15208628964E+03  0.15438742604E+03  0.47000000000E+01 0.  1.
        -11    1    3    3    0    0  0.41478424854E+02  0.67734105725E+02 -0.90503241861E+02  0.12041264715E+03  0.00000000000E+00 0.  1.
         11    1    3    3    0    0  0.22074013308E+01  0.48497585924E+02  0.17821668419E+02  0.51715571411E+02  0.00000000000E+00 0. -1.
<mgrwt>
<rscale>  0 0.17033783E+03</rscale>
<asrwt>0</asrwt>
<pdfrwt beam="1">  1        1 0.12867930E-01 0.17539276E+03</pdfrwt>
<pdfrwt beam="2">  1       -1 0.53714770E-01 0.17539276E+03</pdfrwt>
<totfact> 0.16178397E+03</totfact>
</mgrwt>
</event>
<event>
 7    1  0.5107591E-006  0.1163349E+03  0.7546771E-02  0.1259534E+00
         -2   -1    0    0    0  501 -0.00000000000E+00  0.00000000000E+00  0.42238307012E+02  0.42238307012E+02  0.00000000000E+00 0.  1.
          2   -1    0    0  501    0  0.00000000000E+00 -0.00000000000E+00 -0.30867470831E+03  0.30867470831E+03  0.00000000000E+00 0. -1.
         23    2    1    2    0    0  0.15907595606E+02 -0.23863331857E+02 -0.18803024887E+03  0.21062280973E+03  0.90465923331E+02 0.  0.
          5    1    1    2  502    0 -0.77197481411E+01  0.66799101071E+02 -0.66625936365E+02  0.94777739009E+02  0.47000000000E+01 0. -1.
         -5    1    1    2    0  502 -0.81878474653E+01 -0.42935769214E+02 -0.11780216069E+02  0.45512466586E+02  0.47000000000E+01 0.  1.
        -11    1    3    3    0    0  0.19559701779E+02  0.24043623639E+02 -0.22606829274E+02  0.38363348410E+02  0.00000000000E+00 0. -1.
         11    1    3    3    0    0 -0.36521061726E+01 -0.47906955496E+02 -0.16542341959E+03  0.17225946132E+03  0.00000000000E+00 0.  1.
<mgrwt>
<rscale>  0 0.11056118E+03</rscale>
<asrwt>0</asrwt>
<pdfrwt beam="2">  1        2 0.47488415E-01 0.11633493E+03</pdfrwt>
<pdfrwt beam="1">  1       -2 0.64982012E-02 0.11633493E+03</pdfrwt>
<totfact> 0.12894143E+04</totfact>
</mgrwt>
</event>
<event>
 7    1  0.5107591E-006  0.2029456E+03  0.7546771E-02  0.1176563E+00
          1   -1    0    0  501    0  0.00000000000E+00  0.00000000000E+00  0.10630504600E+03  0.10630504600E+03  0.00000000000E+00 0. -1.
         -1   -1    0    0    0  501 -0.00000000000E+00 -0.00000000000E+00 -0.39833821502E+03  0.39833821502E+03  0.00000000000E+00 0.  1.
         23    2    1    2    0    0  0.29337443149E+02 -0.39414405338E+02  0.44161821160E+02  0.11194239463E+03  0.90369532188E+02 0.  0.
          5    1    1    2  502    0  0.80354837180E+02  0.31540567935E+02 -0.10048776153E+03  0.13255786473E+03  0.47000000000E+01 0. -1.
         -5    1    1    2    0  502 -0.10969228033E+03  0.78738374035E+01 -0.23570722864E+03  0.26014300166E+03  0.47000000000E+01 0.  1.
        -11    1    3    3    0    0 -0.15223468519E+02 -0.41540373080E+02 -0.61872964073E+01  0.44672578012E+02  0.00000000000E+00 0.  1.
         11    1    3    3    0    0  0.44560911668E+02  0.21259677419E+01  0.50349117568E+02  0.67269816615E+02  0.00000000000E+00 0. -1.
<mgrwt>
<rscale>  0 0.17123780E+03</rscale>
<asrwt>0</asrwt>
<pdfrwt beam="1">  1        1 0.16354623E-01 0.20294556E+03</pdfrwt>
<pdfrwt beam="2">  1       -1 0.61282802E-01 0.20294556E+03</pdfrwt>
<totfact> 0.92385794E+02</totfact>
</mgrwt>
</event>
<event>
 7    1  0.5107591E-006  0.4037366E+03  0.7546771E-02  0.1042493E+00
          2   -1    0    0  501    0  0.00000000000E+00  0.00000000000E+00  0.13398249940E+03  0.13398249940E+03  0.00000000000E+00 0. -1.
         -2   -1    0    0    0  501 -0.00000000000E+00 -0.00000000000E+00 -0.30415017554E+03  0.30415017554E+03  0.00000000000E+00 0.  1.
         23    2    1    2    0    0 -0.66011114836E+02 -0.23441279170E+02  0.38548783476E+02  0.12067965057E+03  0.90391418305E+02 0.  0.
          5    1    1    2  502    0 -0.55550342276E+02  0.24602142957E+02  0.15037549818E+02  0.62764033248E+02  0.47000000000E+01 0. -1.
         -5    1    1    2    0  502  0.12156145711E+03 -0.11608637868E+01 -0.22375400943E+03  0.25468899112E+03  0.47000000000E+01 0.  1.
        -11    1    3    3    0    0 -0.40525719187E+02 -0.55492935294E+02  0.40358602236E+02  0.79690755785E+02  0.00000000000E+00 0. -1.
         11    1    3    3    0    0 -0.25485395649E+02  0.32051656124E+02 -0.18098187601E+01  0.40988894784E+02  0.00000000000E+00 0.  1.
<mgrwt>
<rscale>  0 0.40373655E+03</rscale>
<asrwt>0</asrwt>
<pdfrwt beam="1">  1        2 0.20612692E-01 0.40373655E+03</pdfrwt>
<pdfrwt beam="2">  1       -2 0.46792334E-01 0.40373655E+03</pdfrwt>
<totfact> 0.11843395E+03</totfact>
</mgrwt>
</event>
<event>
 7    1  0.5107591E-006  0.2168774E+03  0.7546771E-02  0.1136233E+00
          2   -1    0    0  501    0  0.00000000000E+00  0.00000000000E+00  0.37997605417E+03  0.37997605417E+03  0.00000000000E+00 0. -1.
         -2   -1    0    0    0  501 -0.00000000000E+00 -0.00000000000E+00 -0.30946550405E+02  0.30946550405E+02  0.00000000000E+00 0.  1.
         23    2    1    2    0    0 -0.15061759531E+02  0.41840663592E+01  0.15329155410E+03  0.17807327451E+03  0.89260447717E+02 0.  0.
          5    1    1    2  502    0  0.55789727298E+02 -0.41389932632E+02  0.93402464180E+02  0.11649777041E+03  0.47000000000E+01 0.  1.
         -5    1    1    2    0  502 -0.40727967767E+02  0.37205866273E+02  0.10233548548E+03  0.11635155965E+03  0.47000000000E+01 0.  1.
        -11    1    3    3    0    0  0.15099710105E+02  0.31945086401E+02  0.24713931772E+02  0.43119232531E+02  0.00000000000E+00 0.  1.
         11    1    3    3    0    0 -0.30161469636E+02 -0.27761020042E+02  0.12857762233E+03  0.13495404198E+03  0.00000000000E+00 0. -1.
<mgrwt>
<rscale>  0 0.21687737E+03</rscale>
<asrwt>0</asrwt>
<pdfrwt beam="1">  1        2 0.58457851E-01 0.21687737E+03</pdfrwt>
<pdfrwt beam="2">  1       -2 0.47610080E-02 0.21687737E+03</pdfrwt>
<totfact> 0.17388564E+04</totfact>
</mgrwt>
</event>
<event>
 7    1  0.5107591E-006  0.2401515E+03  0.7546771E-02  0.1122418E+00
         -2   -1    0    0    0  501 -0.00000000000E+00  0.00000000000E+00  0.61358703502E+02  0.61358703502E+02  0.00000000000E+00 0.  1.
          2   -1    0    0  501    0  0.00000000000E+00 -0.00000000000E+00 -0.89421040111E+03  0.89421040111E+03  0.00000000000E+00 0. -1.
         23    2    1    2    0    0 -0.16151444345E+03 -0.12633633344E+03 -0.46454799696E+03  0.51588701132E+03  0.91031765753E+02 0.  0.
          5    1    1    2  502    0  0.14714188678E+03  0.15105265161E+03 -0.31697750318E+03  0.38074199391E+03  0.47000000000E+01 0. -1.
         -5    1    1    2    0  502  0.14372556673E+02 -0.24716318169E+02 -0.51326197472E+02  0.58940099390E+02  0.47000000000E+01 0. -1.
        -11    1    3    3    0    0 -0.40975655437E+02 -0.58941237583E+02 -0.25510412509E+03  0.26501167609E+03  0.00000000000E+00 0. -1.
         11    1    3    3    0    0 -0.12053878801E+03 -0.67395095860E+02 -0.20944387187E+03  0.25087533523E+03  0.00000000000E+00 0.  1.
<mgrwt>
<rscale>  0 0.23610067E+03</rscale>
<asrwt>0</asrwt>
<pdfrwt beam="2">  1        2 0.13757083E+00 0.24015147E+03</pdfrwt>
<pdfrwt beam="1">  1       -2 0.94398008E-02 0.24015147E+03</pdfrwt>
<totfact> 0.22241169E+03</totfact>
</mgrwt>
</event>
<event>
 7    1  0.5107591E-006  0.1783985E+03  0.7546771E-02  0.1175258E+00
         -1   -1    0    0    0  501 -0.00000000000E+00  0.00000000000E+00  0.72139519395E+02  0.72139519395E+02  0.00000000000E+00 0.  1.
          1   -1    0    0  501    0  0.00000000000E+00 -0.00000000000E+00 -0.41529610091E+03  0.41529610091E+03  0.00000000000E+00 0. -1.
         23    2    1    2    0    0  0.94049282426E+02 -0.85745463535E+02 -0.22380123423E+03  0.27279237593E+03  0.90172811212E+02 0.  0.
          5    1    1    2  502    0 -0.41140970585E+02 -0.62709960364E+01 -0.97580044533E+02  0.10618785214E+03  0.47000000000E+01 0. -1.
         -5    1    1    2    0  502 -0.52908311841E+02  0.92016459572E+02 -0.21775302754E+02  0.10845539223E+03  0.47000000000E+01 0. -1.
        -11    1    3    3    0    0  0.96515650834E+02 -0.59776050755E+02 -0.11769057151E+03  0.16352222394E+03  0.00000000000E+00 0.  1.
         11    1    3    3    0    0 -0.24663684075E+01 -0.25969412780E+02 -0.10611066273E+03  0.10927015200E+03  0.00000000000E+00 0. -1.
<mgrwt>
<rscale>  0 0.17250760E+03</rscale>
<asrwt>0</asrwt>
<pdfrwt beam="2">  1        1 0.63891707E-01 0.17839850E+03</pdfrwt>
<pdfrwt beam="1">  1       -1 0.11098388E-01 0.17839850E+03</pdfrwt>
<totfact> 0.29373323E+03</totfact>
</mgrwt>
</event>
<event>
 7    1  0.5107591E-006  0.2946384E+03  0.7546771E-02  0.1089551E+00
          2   -1    0    0  501    0  0.00000000000E+00  0.00000000000E+00  0.22815127930E+04  0.22815127930E+04  0.00000000000E+00 0. -1.
         -2   -1    0    0    0  501 -0.00000000000E+00 -0.00000000000E+00 -0.36621295415E+02  0.36621295415E+02  0.00000000000E+00 0.  1.
         23    2    1    2    0    0  0.25040083850E+03  0.92127574578E+02  0.10288965605E+04  0.10669524628E+04  0.92581616613E+02 0.  0.
          5    1    1    2  502    0 -0.17057142137E+03 -0.95305654057E+02  0.10348533833E+04  0.10531483241E+04  0.47000000000E+01 0.  1.
         -5    1    1    2    0  502 -0.79829417133E+02  0.31780794795E+01  0.18114155373E+03  0.19803330154E+03  0.47000000000E+01 0.  1.
        -11    1    3    3    0    0  0.11633650852E+03  0.77668340050E+02  0.39971481953E+03  0.42348375555E+03  0.00000000000E+00 0. -1.
         11    1    3    3    0    0  0.13406432998E+03  0.14459234528E+02  0.62918174095E+03  0.64346870723E+03  0.00000000000E+00 0.  1.
<mgrwt>
<rscale>  0 0.29153435E+03</rscale>
<asrwt>0</asrwt>
<pdfrwt beam="1">  1        2 0.35100186E+00 0.29463838E+03</pdfrwt>
<pdfrwt beam="2">  1       -2 0.56340472E-02 0.29463838E+03</pdfrwt>
<totfact> 0.85604728E+02</totfact>
</mgrwt>
</event>
<event>
 7    1  0.5107591E-006  0.2592373E+03  0.7546771E-02  0.1109916E+00
          2   -1    0    0  501    0  0.00000000000E+00  0.00000000000E+00  0.13137295299E+03  0.13137295299E+03  0.00000000000E+00 0.  1.
         -2   -1    0    0    0  501 -0.00000000000E+00 -0.00000000000E+00 -0.62992969618E+03  0.62992969618E+03  0.00000000000E+00 0. -1.
         23    2    1    2    0    0 -0.20362002899E+02 -0.22620574243E+03 -0.59627654828E+02  0.25153531062E+03  0.90171537626E+02 0.  0.
          5    1    1    2  502    0  0.32738684089E+01  0.15761505848E+03 -0.39762430415E+03  0.42776208589E+03  0.47000000000E+01 0.  1.
         -5    1    1    2    0  502  0.17088134490E+02  0.68590683944E+02 -0.41304784210E+02  0.82005252654E+02  0.47000000000E+01 0.  1.
        -11    1    3    3    0    0 -0.47142098635E+02 -0.66884980179E+02 -0.94845992876E+01  0.82376790790E+02  0.00000000000E+00 0. -1.
         11    1    3    3    0    0  0.26780095736E+02 -0.15932076225E+03 -0.50143055540E+02  0.16915851983E+03  0.00000000000E+00 0.  1.
<mgrwt>
<rscale>  0 0.25543663E+03</rscale>
<asrwt>0</asrwt>
<pdfrwt beam="1">  1        2 0.20211223E-01 0.25923733E+03</pdfrwt>
<pdfrwt beam="2">  1       -2 0.96912263E-01 0.25923733E+03</pdfrwt>
<totfact> 0.25400975E+02</totfact>
</mgrwt>
</event>
<event>
 7    1  0.5107591E-006  0.1348596E+03  0.7546771E-02  0.1232607E+00
          2   -1    0    0  501    0  0.00000000000E+00  0.00000000000E+00  0.34810266835E+03  0.34810266835E+03  0.00000000000E+00 0. -1.
         -2   -1    0    0    0  501 -0.00000000000E+00 -0.00000000000E+00 -0.43659489913E+02  0.43659489913E+02  0.00000000000E+00 0.  1.
         23    2    1    2    0    0  0.45553610531E+02  0.22075324894E+02  0.18013308432E+03  0.20834978115E+03  0.91647432227E+02 0.  0.
          5    1    1    2  502    0 -0.53692518288E+02  0.12510138453E+02  0.13623447431E+01  0.55347412473E+02  0.47000000000E+01 0.  1.
         -5    1    1    2    0  502  0.81389077573E+01 -0.34585463346E+02  0.12294774937E+03  0.12806496465E+03  0.47000000000E+01 0.  1.
        -11    1    3    3    0    0 -0.28047761525E+02  0.29529997751E+01  0.57674023692E+02  0.64200390521E+02  0.00000000000E+00 0.  1.
         11    1    3    3    0    0  0.73601372056E+02  0.19122325119E+02  0.12245906063E+03  0.14414939062E+03  0.00000000000E+00 0. -1.
<mgrwt>
<rscale>  0 0.12658903E+03</rscale>
<asrwt>0</asrwt>
<pdfrwt beam="1">  1        2 0.53554255E-01 0.13485956E+03</pdfrwt>
<pdfrwt beam="2">  1       -2 0.67168448E-02 0.13485956E+03</pdfrwt>
<totfact> 0.10926381E+04</totfact>
</mgrwt>
</event>
<event>
 7    1  0.5107591E-006  0.1794615E+03  0.7546771E-02  0.1172595E+00
         -2   -1    0    0    0  501 -0.00000000000E+00  0.00000000000E+00  0.71966524163E+03  0.71966524163E+03  0.00000000000E+00 0. -1.
          2   -1    0    0  501    0  0.00000000000E+00 -0.00000000000E+00 -0.48425682260E+02  0.48425682260E+02  0.00000000000E+00 0.  1.
         23    2    1    2    0    0 -0.22911169469E+01  0.12874909022E+03  0.16850629567E+03  0.23428649284E+03  0.99570134074E+02 0.  0.
          5    1    1    2  502    0  0.32733188926E+02 -0.80872369387E+02  0.44203109987E+03  0.45058338301E+03  0.47000000000E+01 0. -1.
         -5    1    1    2    0  502 -0.30442071979E+02 -0.47876720830E+02  0.60702163831E+02  0.83221048045E+02  0.47000000000E+01 0. -1.
        -11    1    3    3    0    0  0.48549146827E+02  0.58814768152E+02  0.76077239371E+02  0.10772159932E+03  0.00000000000E+00 0.  1.
         11    1    3    3    0    0 -0.50840263774E+02  0.69934322066E+02  0.92429056300E+02  0.12656489352E+03  0.00000000000E+00 0. -1.
<mgrwt>
<rscale>  0 0.17513607E+03</rscale>
<asrwt>0</asrwt>
<pdfrwt beam="2">  1        2 0.74501055E-02 0.17946152E+03</pdfrwt>
<pdfrwt beam="1">  1       -2 0.11071772E+00 0.17946152E+03</pdfrwt>
<totfact> 0.62129193E+02</totfact>
</mgrwt>
</event>
<event>
 7    1  0.5107591E-006  0.3319832E+03  0.7546771E-02  0.1073150E+00
         -1   -1    0    0    0  501 -0.00000000000E+00  0.00000000000E+00  0.16743732020E+04  0.16743732020E+04  0.00000000000E+00 0.  1.
          1   -1    0    0  501    0  0.00000000000E+00 -0.00000000000E+00 -0.61065583372E+02  0.61065583372E+02  0.00000000000E+00 0. -1.
         23    2    1    2    0    0 -0.86264329562E+02 -0.28001144342E+03  0.73230669146E+03  0.79396361614E+03  0.90869083836E+02 0.  0.
          5    1    1    2  502    0  0.83237842022E+02  0.14354536389E+03  0.28315570839E+03  0.32822713939E+03  0.47000000000E+01 0. -1.
         -5    1    1    2    0  502  0.30264875401E+01  0.13646607953E+03  0.59784521882E+03  0.61324802989E+03  0.47000000000E+01 0.  1.
        -11    1    3    3    0    0  0.21874026779E+01 -0.12907193950E+03  0.25967348387E+03  0.28999080765E+03  0.00000000000E+00 0.  1.
         11    1    3    3    0    0 -0.88451732240E+02 -0.15093950392E+03  0.47263320759E+03  0.50397280849E+03  0.00000000000E+00 0. -1.
<mgrwt>
<rscale>  0 0.32549084E+03</rscale>
<asrwt>0</asrwt>
<pdfrwt beam="2">  1        1 0.93947064E-02 0.33198322E+03</pdfrwt>
<pdfrwt beam="1">  1       -1 0.25759584E+00 0.33198322E+03</pdfrwt>
<totfact> 0.49175877E+01</totfact>
</mgrwt>
</event>
<event>
 7    1  0.5107591E-006  0.1383478E+03  0.7546771E-02  0.1221794E+00
         -1   -1    0    0    0  501 -0.00000000000E+00  0.00000000000E+00  0.17497665431E+03  0.17497665431E+03  0.00000000000E+00 0.  1.
          1   -1    0    0  501    0  0.00000000000E+00 -0.00000000000E+00 -0.96372714954E+02  0.96372714954E+02  0.00000000000E+00 0. -1.
         23    2    1    2    0    0 -0.56643126251E+02  0.17521698900E+02  0.37511892111E+02  0.12702797121E+03  0.10589386071E+03 0.  0.
          5    1    1    2  502    0  0.69078119352E+02 -0.35867035541E+02 -0.18865691309E+02  0.80226149853E+02  0.47000000000E+01 0.  1.
         -5    1    1    2    0  502 -0.12434993101E+02  0.18345336640E+02  0.59957738555E+02  0.64095248205E+02  0.47000000000E+01 0.  1.
        -11    1    3    3    0    0  0.61047698338E+01 -0.27958638632E+02  0.40363201353E+02  0.49478699582E+02  0.00000000000E+00 0.  1.
         11    1    3    3    0    0 -0.62747896084E+02  0.45480337532E+02 -0.28513092421E+01  0.77549271624E+02  0.00000000000E+00 0. -1.
<mgrwt>
<rscale>  0 0.13389078E+03</rscale>
<asrwt>0</asrwt>
<pdfrwt beam="2">  1        1 0.14826572E-01 0.13834778E+03</pdfrwt>
<pdfrwt beam="1">  1       -1 0.26919485E-01 0.13834778E+03</pdfrwt>
<totfact> 0.44548907E+03</totfact>
</mgrwt>
</event>
<event>
 7    1  0.5107591E-006  0.1405972E+03  0.7546771E-02  0.1223213E+00
          2   -1    0    0  501    0  0.00000000000E+00  0.00000000000E+00  0.11714382726E+03  0.11714382726E+03  0.00000000000E+00 0. -1.
         -2   -1    0    0    0  501 -0.00000000000E+00 -0.00000000000E+00 -0.13703959086E+03  0.13703959086E+03  0.00000000000E+00 0.  1.
         23    2    1    2    0    0 -0.38034858323E+02 -0.51904472363E+02 -0.48498345318E+00  0.11225258805E+03  0.91976538394E+02 0.  0.
          5    1    1    2  502    0 -0.17909188552E+02  0.69045464806E+02  0.16167940863E+02  0.73290569357E+02  0.47000000000E+01 0. -1.
         -5    1    1    2    0  502  0.55944046875E+02 -0.17140992443E+02 -0.35578721004E+02  0.68640260715E+02  0.47000000000E+01 0. -1.
        -11    1    3    3    0    0  0.14300634365E+02  0.19158263686E+02 -0.19412341104E+01  0.23985737441E+02  0.00000000000E+00 0.  1.
         11    1    3    3    0    0 -0.52335492688E+02 -0.71062736049E+02  0.14562506572E+01  0.88266850605E+02  0.00000000000E+00 0. -1.
<mgrwt>
<rscale>  0 0.13290174E+03</rscale>
<asrwt>0</asrwt>
<pdfrwt beam="1">  1        2 0.18022127E-01 0.14059723E+03</pdfrwt>
<pdfrwt beam="2">  1       -2 0.21083014E-01 0.14059723E+03</pdfrwt>
<totfact> 0.57324296E+03</totfact>
</mgrwt>
</event>
<event>
 7    1  0.5107591E-006  0.1604813E+03  0.7546771E-02  0.1195837E+00
          3   -1    0    0  501    0  0.00000000000E+00  0.00000000000E+00  0.12278791988E+03  0.12278791988E+03  0.00000000000E+00 0. -1.
         -3   -1    0    0    0  501 -0.00000000000E+00 -0.00000000000E+00 -0.17902828437E+03  0.17902828437E+03  0.00000000000E+00 0.  1.
         23    2    1    2    0    0 -0.70177523259E-01  0.10063150194E+03 -0.16662604410E+02  0.13652661430E+03  0.90747836988E+02 0.  0.
          5    1    1    2  502    0 -0.35820310378E+02 -0.92326490114E+02 -0.66535050441E+02  0.11939965808E+03  0.47000000000E+01 0. -1.
         -5    1    1    2    0  502  0.35890487901E+02 -0.83050118281E+01  0.26957290368E+02  0.45889931872E+02  0.47000000000E+01 0. -1.
        -11    1    3    3    0    0 -0.31036148437E+02  0.78273273775E+02 -0.38438978929E+02  0.92560807031E+02  0.00000000000E+00 0.  1.
         11    1    3    3    0    0  0.30965970914E+02  0.22358228167E+02  0.21776374519E+02  0.43965807267E+02  0.00000000000E+00 0. -1.
<mgrwt>
<rscale>  0 0.15383599E+03</rscale>
<asrwt>0</asrwt>
<pdfrwt beam="1">  1        3 0.18890449E-01 0.16048131E+03</pdfrwt>
<pdfrwt beam="2">  1       -3 0.27542813E-01 0.16048131E+03</pdfrwt>
<totfact> 0.74009279E+02</totfact>
</mgrwt>
</event>
<event>
 7    1  0.5107591E-006  0.3359566E+03  0.7546771E-02  0.1068665E+00
          1   -1    0    0  501    0  0.00000000000E+00  0.00000000000E+00  0.11197310964E+04  0.11197310964E+04  0.00000000000E+00 0. -1.
         -1   -1    0    0    0  501 -0.00000000000E+00 -0.00000000000E+00 -0.10242374694E+03  0.10242374694E+03  0.00000000000E+00 0.  1.
         23    2    1    2    0    0  0.20868134914E+03 -0.23172085427E+03  0.59303301656E+03  0.68097505355E+03  0.12164047454E+03 0.  0.
          5    1    1    2  502    0 -0.11192444312E+03  0.62671787923E+02  0.24415322307E+03  0.27584002665E+03  0.47000000000E+01 0. -1.
         -5    1    1    2    0  502 -0.96756906020E+02  0.16904906635E+03  0.18012110985E+03  0.26533976315E+03  0.47000000000E+01 0. -1.
        -11    1    3    3    0    0  0.53789787102E+02 -0.33927494278E+02  0.44409351255E+02  0.77566787631E+02  0.00000000000E+00 0.  1.
         11    1    3    3    0    0  0.15489156204E+03 -0.19779336000E+03  0.54862366531E+03  0.60340826592E+03  0.00000000000E+00 0. -1.
<mgrwt>
<rscale>  0 0.33564756E+03</rscale>
<asrwt>0</asrwt>
<pdfrwt beam="1">  1        1 0.17226631E+00 0.33595663E+03</pdfrwt>
<pdfrwt beam="2">  1       -1 0.15757500E-01 0.33595663E+03</pdfrwt>
<totfact> 0.38706108E+02</totfact>
</mgrwt>
</event>
<event>
 7    1  0.5107591E-006  0.1304528E+03  0.7546771E-02  0.1240906E+00
          1   -1    0    0  501    0  0.00000000000E+00  0.00000000000E+00  0.89382587296E+02  0.89382587296E+02  0.00000000000E+00 0. -1.
         -1   -1    0    0    0  501 -0.00000000000E+00 -0.00000000000E+00 -0.14672339484E+03  0.14672339484E+03  0.00000000000E+00 0.  1.
         23    2    1    2    0    0  0.30043184154E+02 -0.22144077533E+02 -0.35179907267E+02  0.10378423114E+03  0.90225205314E+02 0.  0.
          5    1    1    2  502    0 -0.39819830655E+02  0.58496089505E+02  0.21858436667E+02  0.74211135649E+02  0.47000000000E+01 0.  1.
         -5    1    1    2    0  502  0.97766465004E+01 -0.36352011972E+02 -0.44019336943E+02  0.58110615348E+02  0.47000000000E+01 0.  1.
        -11    1    3    3    0    0 -0.77663794028E-01  0.17374538966E+02 -0.49181464037E+02  0.52160301387E+02  0.00000000000E+00 0.  1.
         11    1    3    3    0    0  0.30120847948E+02 -0.39518616500E+02  0.14001556770E+02  0.51623929753E+02  0.00000000000E+00 0. -1.
<mgrwt>
<rscale>  0 0.12133802E+03</rscale>
<asrwt>0</asrwt>
<pdfrwt beam="1">  1        1 0.13751167E-01 0.13045283E+03</pdfrwt>
<pdfrwt beam="2">  1       -1 0.22572830E-01 0.13045283E+03</pdfrwt>
<totfact> 0.65316159E+03</totfact>
</mgrwt>
</event>
<event>
 7    1  0.5107591E-006  0.1863286E+03  0.7546771E-02  0.1186772E+00
         -1   -1    0    0    0  501 -0.00000000000E+00  0.00000000000E+00  0.21369422719E+02  0.21369422719E+02  0.00000000000E+00 0.  1.
          1   -1    0    0  501    0  0.00000000000E+00 -0.00000000000E+00 -0.10473023987E+04  0.10473023987E+04  0.00000000000E+00 0. -1.
         23    2    1    2    0    0  0.45709833980E+02  0.23203009858E+02 -0.48986874528E+03  0.50114807404E+03  0.92467485775E+02 0.  0.
          5    1    1    2  502    0 -0.69986382550E+02  0.60198178473E+02 -0.19907184822E+03  0.21948486323E+03  0.47000000000E+01 0. -1.
         -5    1    1    2    0  502  0.24276548571E+02 -0.83401188332E+02 -0.33699238246E+03  0.34803888412E+03  0.47000000000E+01 0.  1.
        -11    1    3    3    0    0  0.11371375139E+02  0.56613725190E+02 -0.25854456583E+03  0.26491454201E+03  0.00000000000E+00 0. -1.
         11    1    3    3    0    0  0.34338458841E+02 -0.33410715332E+02 -0.23132417945E+03  0.23623353202E+03  0.00000000000E+00 0.  1.
<mgrwt>
<rscale>  0 0.16171681E+03</rscale>
<asrwt>0</asrwt>
<pdfrwt beam="2">  1        1 0.16112346E+00 0.18632859E+03</pdfrwt>
<pdfrwt beam="1">  1       -1 0.32876032E-02 0.18632859E+03</pdfrwt>
<totfact> 0.47998774E+03</totfact>
</mgrwt>
</event>
<event>
 7    1  0.5107591E-006  0.2475789E+03  0.7546771E-02  0.1117421E+00
          1   -1    0    0  501    0  0.00000000000E+00  0.00000000000E+00  0.16766514516E+03  0.16766514516E+03  0.00000000000E+00 0. -1.
         -1   -1    0    0    0  501 -0.00000000000E+00 -0.00000000000E+00 -0.68094500654E+03  0.68094500654E+03  0.00000000000E+00 0.  1.
         23    2    1    2    0    0  0.13936330171E+03  0.16201091226E+03  0.46399684471E+02  0.23661628398E+03  0.90358561126E+02 0.  0.
          5    1    1    2  502    0 -0.45698497431E+02 -0.11171164036E+02 -0.25480057199E+03  0.25914970395E+03  0.47000000000E+01 0. -1.
         -5    1    1    2    0  502 -0.93664804281E+02 -0.15083974823E+03 -0.30487897386E+03  0.35284416378E+03  0.47000000000E+01 0. -1.
        -11    1    3    3    0    0  0.91461651683E+02  0.43098910790E+02  0.38451845211E+02  0.10817252072E+03  0.00000000000E+00 0.  1.
         11    1    3    3    0    0  0.47901650029E+02  0.11891200147E+03  0.79478392599E+01  0.12844376325E+03  0.00000000000E+00 0. -1.
<mgrwt>
<rscale>  0 0.24359457E+03</rscale>
<asrwt>0</asrwt>
<pdfrwt beam="1">  1        1 0.25794638E-01 0.24757888E+03</pdfrwt>
<pdfrwt beam="2">  1       -1 0.10476077E+00 0.24757888E+03</pdfrwt>
<totfact> 0.16821856E+02</totfact>
</mgrwt>
</event>
<event>
 7    1  0.5107591E-006  0.1378000E+03  0.7546771E-02  0.1228011E+00
         -1   -1    0    0    0  501 -0.00000000000E+00  0.00000000000E+00  0.65588443766E+03  0.65588443766E+03  0.00000000000E+00 0.  1.
          1   -1    0    0  501    0  0.00000000000E+00 -0.00000000000E+00 -0.23011713700E+02  0.23011713700E+02  0.00000000000E+00 0. -1.
         23    2    1    2    0    0 -0.21190672789E+02  0.53982624214E+02  0.28018807597E+03  0.30024684610E+03  0.90992540066E+02 0.  0.
          5    1    1    2  502    0  0.24865075110E+02 -0.62846945719E+02  0.76220468653E+02  0.10197872517E+03  0.47000000000E+01 0. -1.
         -5    1    1    2    0  502 -0.36744023210E+01  0.88643215048E+01  0.27646417934E+03  0.27667058009E+03  0.47000000000E+01 0. -1.
        -11    1    3    3    0    0 -0.60096248520E+01  0.53591187810E+02  0.27991080476E+03  0.28505822146E+03  0.00000000000E+00 0.  1.
         11    1    3    3    0    0 -0.15181047937E+02  0.39143640414E+00  0.27727120397E+00  0.15188624633E+02  0.00000000000E+00 0. -1.
<mgrwt>
<rscale>  0 0.12962659E+03</rscale>
<asrwt>0</asrwt>
<pdfrwt beam="2">  1        1 0.35402641E-02 0.13779998E+03</pdfrwt>
<pdfrwt beam="1">  1       -1 0.10090528E+00 0.13779998E+03</pdfrwt>
<totfact> 0.25781503E+03</totfact>
</mgrwt>
</event>
<event>
 7    1  0.5107591E-006  0.1578410E+03  0.7546771E-02  0.1205190E+00
         -2   -1    0    0    0  501 -0.00000000000E+00  0.00000000000E+00  0.38305170545E+03  0.38305170545E+03  0.00000000000E+00 0.  1.
          2   -1    0    0  501    0  0.00000000000E+00 -0.00000000000E+00 -0.53975979782E+02  0.53975979782E+02  0.00000000000E+00 0. -1.
         23    2    1    2    0    0 -0.73094208443E+02  0.18871363611E+01  0.76440435123E+02  0.13913783202E+03  0.90387341959E+02 0.  0.
          5    1    1    2  502    0  0.98472374497E+01 -0.13540336636E+02 -0.14772455473E+02  0.22817191815E+02  0.47000000000E+01 0. -1.
         -5    1    1    2    0  502  0.63246970993E+02  0.11653200275E+02  0.26740774602E+03  0.27507266140E+03  0.47000000000E+01 0.  1.
        -11    1    3    3    0    0 -0.10891962047E+02  0.39671288381E+02  0.41394377754E+02  0.58360435817E+02  0.00000000000E+00 0.  1.
         11    1    3    3    0    0 -0.62202246396E+02 -0.37784152020E+02  0.35046057369E+02  0.80777396206E+02  0.00000000000E+00 0. -1.
<mgrwt>
<rscale>  0 0.14622500E+03</rscale>
<asrwt>0</asrwt>
<pdfrwt beam="2">  1        2 0.83039971E-02 0.15784098E+03</pdfrwt>
<pdfrwt beam="1">  1       -2 0.58931030E-01 0.15784098E+03</pdfrwt>
<totfact> 0.21627438E+03</totfact>
</mgrwt>
</event>
<event>
 7    1  0.5107591E-006  0.2388736E+03  0.7546771E-02  0.1120545E+00
          1   -1    0    0  501    0  0.00000000000E+00  0.00000000000E+00  0.28516474222E+03  0.28516474222E+03  0.00000000000E+00 0. -1.
         -1   -1    0    0    0  501 -0.00000000000E+00 -0.00000000000E+00 -0.50024230642E+02  0.50024230642E+02  0.00000000000E+00 0.  1.
         23    2    1    2    0    0 -0.98901853510E+01 -0.31304677647E+02  0.10578252373E+03  0.14323783612E+03  0.90825859536E+02 0.  0.
          5    1    1    2  502    0 -0.24288235614E+02 -0.46529417213E+02  0.72281579341E+02  0.89451784596E+02  0.47000000000E+01 0. -1.
         -5    1    1    2    0  502  0.34178420965E+02  0.77834094860E+02  0.57076408508E+02  0.10249935215E+03  0.47000000000E+01 0.  1.
        -11    1    3    3    0    0 -0.40898231335E+02 -0.40814699735E+02  0.90528768165E+02  0.10739628907E+03  0.00000000000E+00 0.  1.
         11    1    3    3    0    0  0.31008045984E+02  0.95100220881E+01  0.15253755560E+02  0.35841547044E+02  0.00000000000E+00 0. -1.
<mgrwt>
<rscale>  0 0.23887358E+03</rscale>
<asrwt>0</asrwt>
<pdfrwt beam="1">  1        1 0.43871498E-01 0.23887358E+03</pdfrwt>
<pdfrwt beam="2">  1       -1 0.76960356E-02 0.23887358E+03</pdfrwt>
<totfact> 0.84041901E+03</totfact>
</mgrwt>
</event>
<event>
 7    1  0.5107591E-006  0.2237275E+03  0.7546771E-02  0.1134261E+00
         -1   -1    0    0    0  501 -0.00000000000E+00  0.00000000000E+00  0.10592610421E+03  0.10592610421E+03  0.00000000000E+00 0.  1.
          1   -1    0    0  501    0  0.00000000000E+00 -0.00000000000E+00 -0.55803036175E+03  0.55803036175E+03  0.00000000000E+00 0. -1.
         23    2    1    2    0    0  0.46399344481E+02 -0.17965467379E+03 -0.37288515277E+03  0.42661780040E+03  0.92361839939E+02 0.  0.
          5    1    1    2  502    0 -0.56688221768E+02  0.15935091732E+02 -0.13749768269E+02  0.60651692171E+02  0.47000000000E+01 0. -1.
         -5    1    1    2    0  502  0.10288877287E+02  0.16371958205E+03 -0.65469336502E+02  0.17668697339E+03  0.47000000000E+01 0. -1.
        -11    1    3    3    0    0  0.28564286649E+01 -0.32369469732E+02 -0.12404986168E+02  0.34782545008E+02  0.00000000000E+00 0.  1.
         11    1    3    3    0    0  0.43542915816E+02 -0.14728520405E+03 -0.36048016661E+03  0.39183525539E+03  0.00000000000E+00 0. -1.
<mgrwt>
<rscale>  0 0.21949355E+03</rscale>
<asrwt>0</asrwt>
<pdfrwt beam="2">  1        1 0.85850825E-01 0.22372746E+03</pdfrwt>
<pdfrwt beam="1">  1       -1 0.16296324E-01 0.22372746E+03</pdfrwt>
<totfact> 0.10949007E+03</totfact>
</mgrwt>
</event>
<event>
 7    1  0.5107591E-006  0.1404138E+03  0.7546771E-02  0.1222810E+00
         -2   -1    0    0    0  501 -0.00000000000E+00  0.00000000000E+00  0.75549001163E+02  0.75549001163E+02  0.00000000000E+00 0.  1.
          2   -1    0    0  501    0  0.00000000000E+00 -0.00000000000E+00 -0.22598289601E+03  0.22598289601E+03  0.00000000000E+00 0. -1.
         23    2    1    2    0    0  0.17356001599E+02  0.61532464216E+02 -0.10284970782E+03  0.15327441166E+03  0.93954818547E+02 0.  0.
          5    1    1    2  502    0 -0.33959870589E+02 -0.57269113431E+02 -0.84264583517E+02  0.10749713577E+03  0.47000000000E+01 0.  1.
         -5    1    1    2    0  502  0.16603868991E+02 -0.42633507851E+01  0.36680396481E+02  0.40760349746E+02  0.47000000000E+01 0.  1.
        -11    1    3    3    0    0  0.52438269160E+01  0.34807578967E+02  0.10063906089E+02  0.36610756344E+02  0.00000000000E+00 0.  1.
         11    1    3    3    0    0  0.12112174682E+02  0.26724885249E+02 -0.11291361390E+03  0.11666365532E+03  0.00000000000E+00 0. -1.
<mgrwt>
<rscale>  0 0.13318153E+03</rscale>
<asrwt>0</asrwt>
<pdfrwt beam="2">  1        2 0.34766599E-01 0.14041377E+03</pdfrwt>
<pdfrwt beam="1">  1       -2 0.11622923E-01 0.14041377E+03</pdfrwt>
<totfact> 0.73839185E+03</totfact>
</mgrwt>
</event>
<event>
 7    1  0.5107591E-006  0.1426899E+03  0.7546771E-02  0.1219965E+00
          2   -1    0    0  501    0  0.00000000000E+00  0.00000000000E+00  0.60343948089E+03  0.60343948089E+03  0.00000000000E+00 0. -1.
         -2   -1    0    0    0  501 -0.00000000000E+00 -0.00000000000E+00 -0.36655090377E+02  0.36655090377E+02  0.00000000000E+00 0.  1.
         23    2    1    2    0    0  0.35806244858E+02  0.58757411866E+02  0.41975941745E+03  0.43521229285E+03  0.92071986435E+02 0.  0.
          5    1    1    2  502    0  0.52604550993E+01  0.36753233274E+02  0.51159500073E+02  0.63386567912E+02  0.47000000000E+01 0.  1.
         -5    1    1    2    0  502 -0.41066699958E+02 -0.95510645141E+02  0.95865472986E+02  0.14149571051E+03  0.47000000000E+01 0.  1.
        -11    1    3    3    0    0 -0.21193677796E+02  0.52758473726E+02  0.23421839546E+03  0.24102050805E+03  0.00000000000E+00 0.  1.
         11    1    3    3    0    0  0.56999922655E+02  0.59989381404E+01  0.18554102199E+03  0.19419178480E+03  0.00000000000E+00 0. -1.
<mgrwt>
<rscale>  0 0.13518081E+03</rscale>
<asrwt>0</asrwt>
<pdfrwt beam="1">  1        2 0.92836836E-01 0.14268989E+03</pdfrwt>
<pdfrwt beam="2">  1       -2 0.56392451E-02 0.14268989E+03</pdfrwt>
<totfact> 0.78514437E+03</totfact>
</mgrwt>
</event>
<event>
 7    1  0.5107591E-006  0.1915517E+03  0.7546771E-02  0.1161896E+00
         -2   -1    0    0    0  501 -0.00000000000E+00  0.00000000000E+00  0.51057551689E+03  0.51057551689E+03  0.00000000000E+00 0.  1.
          2   -1    0    0  501    0  0.00000000000E+00 -0.00000000000E+00 -0.71386656713E+02  0.71386656713E+02  0.00000000000E+00 0. -1.
         23    2    1    2    0    0  0.36515244136E+01  0.14441368842E+03  0.29921324228E+03  0.34471710732E+03  0.91829585050E+02 0.  0.
          5    1    1    2  502    0  0.40058096900E+02 -0.14000113888E+03  0.93482992312E+02  0.17310727849E+03  0.47000000000E+01 0. -1.
         -5    1    1    2    0  502 -0.43709621313E+02 -0.44125495476E+01  0.46492625584E+02  0.64137787790E+02  0.47000000000E+01 0.  1.
        -11    1    3    3    0    0  0.38971403120E+02  0.26363454252E+02  0.67540077658E+02  0.82313207150E+02  0.00000000000E+00 0.  1.
         11    1    3    3    0    0 -0.35319878707E+02  0.11805023417E+03  0.23167316462E+03  0.26240390017E+03  0.00000000000E+00 0. -1.
<mgrwt>
<rscale>  0 0.18624104E+03</rscale>
<asrwt>0</asrwt>
<pdfrwt beam="2">  1        2 0.10982563E-01 0.19155168E+03</pdfrwt>
<pdfrwt beam="1">  1       -2 0.78550077E-01 0.19155168E+03</pdfrwt>
<totfact> 0.83758552E+02</totfact>
</mgrwt>
</event>
<event>
 7    1  0.5107591E-006  0.1338753E+03  0.7546771E-02  0.1233981E+00
         -1   -1    0    0    0  501 -0.00000000000E+00  0.00000000000E+00  0.64896417673E+02  0.64896417673E+02  0.00000000000E+00 0.  1.
          1   -1    0    0  501    0  0.00000000000E+00 -0.00000000000E+00 -0.21967767894E+03  0.21967767894E+03  0.00000000000E+00 0. -1.
         23    2    1    2    0    0 -0.46324637717E+02 -0.12302632221E+02 -0.79853754676E+02  0.13115723331E+03  0.92348637751E+02 0.  0.
          5    1    1    2  502    0 -0.13177526883E+02 -0.28741296192E+02  0.17138463344E+02  0.36270183999E+02  0.47000000000E+01 0. -1.
         -5    1    1    2    0  502  0.59502164601E+02  0.41043928412E+02 -0.92065969934E+02  0.11714667930E+03  0.47000000000E+01 0. -1.
        -11    1    3    3    0    0 -0.91380967544E+01 -0.39090109077E+02 -0.12440101933E+01  0.40163279265E+02  0.00000000000E+00 0.  1.
         11    1    3    3    0    0 -0.37186540963E+02  0.26787476856E+02 -0.78609744482E+02  0.90993954045E+02  0.00000000000E+00 0. -1.
<mgrwt>
<rscale>  0 0.12569902E+03</rscale>
<asrwt>0</asrwt>
<pdfrwt beam="2">  1        1 0.33796565E-01 0.13387533E+03</pdfrwt>
<pdfrwt beam="1">  1       -1 0.99840645E-02 0.13387533E+03</pdfrwt>
<totfact> 0.75372200E+03</totfact>
</mgrwt>
</event>
<event>
 7    1  0.5107591E-006  0.1347218E+03  0.7546771E-02  0.1230887E+00
          2   -1    0    0  501    0  0.00000000000E+00  0.00000000000E+00  0.60691258294E+03  0.60691258294E+03  0.00000000000E+00 0. -1.
         -2   -1    0    0    0  501 -0.00000000000E+00 -0.00000000000E+00 -0.30075077962E+02  0.30075077962E+02  0.00000000000E+00 0.  1.
         23    2    1    2    0    0  0.37297885727E+02 -0.33688940162E+02  0.40084904881E+03  0.41535307146E+03  0.96499414878E+02 0.  0.
          5    1    1    2  502    0 -0.69771509134E+01 -0.22321162520E+02 -0.93353555967E+01  0.25615499121E+02  0.47000000000E+01 0.  1.
         -5    1    1    2    0  502 -0.30320734814E+02  0.56010102682E+02  0.18532381177E+03  0.19601909032E+03  0.47000000000E+01 0.  1.
        -11    1    3    3    0    0  0.36843186726E+02  0.28098800782E+02  0.19506173383E+03  0.20048950850E+03  0.00000000000E+00 0. -1.
         11    1    3    3    0    0  0.45469900106E+00 -0.61787740944E+02  0.20578731497E+03  0.21486356296E+03  0.00000000000E+00 0.  1.
<mgrwt>
<rscale>  0 0.12771417E+03</rscale>
<asrwt>0</asrwt>
<pdfrwt beam="1">  1        2 0.93371157E-01 0.13472177E+03</pdfrwt>
<pdfrwt beam="2">  1       -2 0.46269355E-02 0.13472177E+03</pdfrwt>
<totfact> 0.10466175E+04</totfact>
</mgrwt>
</event>
<event>
 7    1  0.5107591E-006  0.1265933E+03  0.7546771E-02  0.1248131E+00
         -1   -1    0    0    0  501 -0.00000000000E+00  0.00000000000E+00  0.44925820731E+03  0.44925820731E+03  0.00000000000E+00 0.  1.
          1   -1    0    0  501    0  0.00000000000E+00 -0.00000000000E+00 -0.32158426926E+02  0.32158426926E+02  0.00000000000E+00 0. -1.
         23    2    1    2    0    0 -0.28649087254E+01 -0.19830958223E+02  0.83149972242E+02  0.12427754799E+03  0.90163831135E+02 0.  0.
          5    1    1    2  502    0 -0.15737902750E+02 -0.50514264592E+02  0.15756020989E+03  0.16627291497E+03  0.47000000000E+01 0.  1.
         -5    1    1    2    0  502  0.18602811476E+02  0.70345222814E+02  0.17638959825E+03  0.19086617128E+03  0.47000000000E+01 0.  1.
        -11    1    3    3    0    0  0.26101322738E+02 -0.29354748729E+02  0.85095116710E+02  0.93723845469E+02  0.00000000000E+00 0.  1.
         11    1    3    3    0    0 -0.28966231464E+02  0.95237905066E+01 -0.19451444684E+01  0.30553702522E+02  0.00000000000E+00 0. -1.
<mgrwt>
<rscale>  0 0.11699919E+03</rscale>
<asrwt>0</asrwt>
<pdfrwt beam="2">  1        1 0.49474506E-02 0.12659326E+03</pdfrwt>
<pdfrwt beam="1">  1       -1 0.69116642E-01 0.12659326E+03</pdfrwt>
<totfact> 0.35536886E+03</totfact>
</mgrwt>
</event>
<event>
 7    1  0.5107591E-006  0.1166233E+03  0.7546771E-02  0.1257657E+00
          4   -1    0    0  501    0  0.00000000000E+00  0.00000000000E+00  0.70595066538E+02  0.70595066538E+02  0.00000000000E+00 0. -1.
         -4   -1    0    0    0  501 -0.00000000000E+00 -0.00000000000E+00 -0.17051660457E+03  0.17051660457E+03  0.00000000000E+00 0.  1.
         23    2    1    2    0    0  0.35767610485E+01  0.32020139101E+02 -0.20116875946E+02  0.99797186236E+02  0.92286007364E+02 0.  0.
          5    1    1    2  502    0  0.61152482849E+01 -0.19069986877E+02  0.26576816379E+02  0.33607704919E+02  0.47000000000E+01 0. -1.
         -5    1    1    2    0  502 -0.96920093334E+01 -0.12950152224E+02 -0.10638147847E+03  0.10770677995E+03  0.47000000000E+01 0.  1.
        -11    1    3    3    0    0  0.97645119386E+01  0.63802972300E+02 -0.19442833944E+02  0.67410598273E+02  0.00000000000E+00 0.  1.
         11    1    3    3    0    0 -0.61877508901E+01 -0.31782833199E+02 -0.67404200168E+00  0.32386587963E+02  0.00000000000E+00 0. -1.
<mgrwt>
<rscale>  0 0.11158780E+03</rscale>
<asrwt>0</asrwt>
<pdfrwt beam="1">  1        4 0.10860780E-01 0.11662332E+03</pdfrwt>
<pdfrwt beam="2">  1       -4 0.26233323E-01 0.11662332E+03</pdfrwt>
<totfact> 0.14369300E+03</totfact>
</mgrwt>
</event>
<event>
 7    1  0.5107591E-006  0.1292967E+03  0.7546771E-02  0.1242424E+00
         -1   -1    0    0    0  501 -0.00000000000E+00  0.00000000000E+00  0.59444626215E+02  0.59444626215E+02  0.00000000000E+00 0.  1.
          1   -1    0    0  501    0  0.00000000000E+00 -0.00000000000E+00 -0.23176314564E+03  0.23176314564E+03  0.00000000000E+00 0. -1.
         23    2    1    2    0    0  0.27447748988E+02 -0.18432513228E+02 -0.11261652157E+03  0.14879299766E+03  0.91453478643E+02 0.  0.
          5    1    1    2  502    0 -0.87525494225E+01  0.23178673687E+02  0.36400829128E+02  0.44282822815E+02  0.47000000000E+01 0.  1.
         -5    1    1    2    0  502 -0.18695199565E+02 -0.47461604589E+01 -0.96102826983E+02  0.98131951371E+02  0.47000000000E+01 0.  1.
        -11    1    3    3    0    0  0.24086886094E+02  0.33692004342E+02 -0.30354052608E+02  0.51348785264E+02  0.00000000000E+00 0.  1.
         11    1    3    3    0    0  0.33608628937E+01 -0.52124517571E+02 -0.82262468958E+02  0.97444212401E+02  0.00000000000E+00 0. -1.
<mgrwt>
<rscale>  0 0.12040903E+03</rscale>
<asrwt>0</asrwt>
<pdfrwt beam="2">  1        1 0.35655868E-01 0.12929671E+03</pdfrwt>
<pdfrwt beam="1">  1       -1 0.91453273E-02 0.12929671E+03</pdfrwt>
<totfact> 0.80409613E+03</totfact>
</mgrwt>
</event>
<event>
 7    1  0.5107591E-006  0.1494527E+03  0.7546771E-02  0.1210958E+00
         -1   -1    0    0    0  501 -0.00000000000E+00  0.00000000000E+00  0.45159333662E+02  0.45159333662E+02  0.00000000000E+00 0.  1.
          1   -1    0    0  501    0  0.00000000000E+00 -0.00000000000E+00 -0.40650597781E+03  0.40650597781E+03  0.00000000000E+00 0. -1.
         23    2    1    2    0    0 -0.72566959098E+02  0.38005883862E+02 -0.14820743840E+03  0.19134927472E+03  0.89099323109E+02 0.  0.
          5    1    1    2  502    0  0.42033483350E+02 -0.79322095224E+02 -0.91890946485E+02  0.12854899673E+03  0.47000000000E+01 0. -1.
         -5    1    1    2    0  502  0.30533475749E+02  0.41316211362E+02 -0.12124825927E+03  0.13176704003E+03  0.47000000000E+01 0. -1.
        -11    1    3    3    0    0 -0.85130934425E+01  0.52603141558E+02 -0.84076305689E+02  0.99540888282E+02  0.00000000000E+00 0. -1.
         11    1    3    3    0    0 -0.64053865656E+02 -0.14597257696E+02 -0.64131132709E+02  0.91808386437E+02  0.00000000000E+00 0.  1.
<mgrwt>
<rscale>  0 0.14177650E+03</rscale>
<asrwt>0</asrwt>
<pdfrwt beam="2">  1        1 0.62539382E-01 0.14945273E+03</pdfrwt>
<pdfrwt beam="1">  1       -1 0.69475898E-02 0.14945273E+03</pdfrwt>
<totfact> 0.61103142E+03</totfact>
</mgrwt>
</event>
<event>
 7    1  0.5107591E-006  0.1558233E+03  0.7546771E-02  0.1201669E+00
         -1   -1    0    0    0  501 -0.00000000000E+00  0.00000000000E+00  0.31998983403E+03  0.31998983403E+03  0.00000000000E+00 0.  1.
          1   -1    0    0  501    0  0.00000000000E+00 -0.00000000000E+00 -0.65307063028E+02  0.65307063028E+02  0.00000000000E+00 0. -1.
         23    2    1    2    0    0  0.92906082093E+02  0.48264536891E+01  0.89048502488E+02  0.15788619727E+03  0.91343203078E+02 0.  0.
          5    1    1    2  502    0 -0.73390666617E+02  0.52395065146E+02  0.12581942099E+03  0.15486784526E+03  0.47000000000E+01 0.  1.
         -5    1    1    2    0  502 -0.19515415476E+02 -0.57221518835E+02  0.39814847525E+02  0.72542854523E+02  0.47000000000E+01 0.  1.
        -11    1    3    3    0    0  0.29496100193E+02  0.40513861937E+02  0.63224644987E+02  0.80676816182E+02  0.00000000000E+00 0. -1.
         11    1    3    3    0    0  0.63409981900E+02 -0.35687408248E+02  0.25823857501E+02  0.77209381090E+02  0.00000000000E+00 0.  1.
<mgrwt>
<rscale>  0 0.14903060E+03</rscale>
<asrwt>0</asrwt>
<pdfrwt beam="2">  1        1 0.10047241E-01 0.15582335E+03</pdfrwt>
<pdfrwt beam="1">  1       -1 0.49229204E-01 0.15582335E+03</pdfrwt>
<totfact> 0.26244942E+03</totfact>
</mgrwt>
</event>
<event>
 7    1  0.5107591E-006  0.1467208E+03  0.7546771E-02  0.1214135E+00
          2   -1    0    0  501    0  0.00000000000E+00  0.00000000000E+00  0.88034396173E+03  0.88034396173E+03  0.00000000000E+00 0. -1.
         -2   -1    0    0    0  501 -0.00000000000E+00 -0.00000000000E+00 -0.26581632259E+02  0.26581632259E+02  0.00000000000E+00 0.  1.
         23    2    1    2    0    0  0.64964241257E+02 -0.40954611675E+02  0.61631060044E+03  0.62780138472E+03  0.91641636717E+02 0.  0.
          5    1    1    2  502    0  0.30136033041E+02  0.84522138218E+00  0.11464671619E+03  0.11863749162E+03  0.47000000000E+01 0. -1.
         -5    1    1    2    0  502 -0.95100274297E+02  0.40109390292E+02  0.12280501285E+03  0.16048671765E+03  0.47000000000E+01 0. -1.
        -11    1    3    3    0    0 -0.18613188676E+02  0.50209087320E+01  0.51450220719E+02  0.54943475766E+02  0.00000000000E+00 0.  1.
         11    1    3    3    0    0  0.83577429933E+02 -0.45975520407E+02  0.56486037972E+03  0.57285790895E+03  0.00000000000E+00 0. -1.
<mgrwt>
<rscale>  0 0.13940231E+03</rscale>
<asrwt>0</asrwt>
<pdfrwt beam="1">  1        2 0.13543751E+00 0.14672083E+03</pdfrwt>
<pdfrwt beam="2">  1       -2 0.40894826E-02 0.14672083E+03</pdfrwt>
<totfact> 0.80638027E+03</totfact>
</mgrwt>
</event>
<event>
 7    1  0.5107591E-006  0.2037170E+03  0.7546771E-02  0.1150677E+00
          2   -1    0    0  501    0  0.00000000000E+00  0.00000000000E+00  0.39465015243E+02  0.39465015243E+02  0.00000000000E+00 0. -1.
         -2   -1    0    0    0  501 -0.00000000000E+00 -0.00000000000E+00 -0.12186411363E+04  0.12186411363E+04  0.00000000000E+00 0.  1.
         23    2    1    2    0    0 -0.15525897953E+03  0.42078587387E+02 -0.27653806604E+03  0.33276509038E+03  0.91560609254E+02 0.  0.
          5    1    1    2  502    0  0.71251684793E+02 -0.83151890259E+02 -0.51840054100E+03  0.52986059520E+03  0.47000000000E+01 0.  1.
         -5    1    1    2    0  502  0.84007294735E+02  0.41073302873E+02 -0.38423751404E+03  0.39548046598E+03  0.47000000000E+01 0.  1.
        -11    1    3    3    0    0 -0.13860311111E+03  0.12075117034E+01 -0.23067309841E+03  0.26911402570E+03  0.00000000000E+00 0.  1.
         11    1    3    3    0    0 -0.16655868413E+02  0.40871075683E+02 -0.45864967628E+02  0.63651064686E+02  0.00000000000E+00 0. -1.
<mgrwt>
<rscale>  0 0.19889222E+03</rscale>
<asrwt>0</asrwt>
<pdfrwt beam="1">  1        2 0.60715407E-02 0.20371701E+03</pdfrwt>
<pdfrwt beam="2">  1       -2 0.18748325E+00 0.20371701E+03</pdfrwt>
<totfact> 0.21073824E+02</totfact>
</mgrwt>
</event>
<event>
 7    1  0.5107591E-006  0.1437198E+03  0.7546771E-02  0.1217839E+00
          3   -1    0    0  501    0  0.00000000000E+00  0.00000000000E+00  0.93075792891E+02  0.93075792891E+02  0.00000000000E+00 0. -1.
         -3   -1    0    0    0  501 -0.00000000000E+00 -0.00000000000E+00 -0.18537258664E+03  0.18537258664E+03  0.00000000000E+00 0.  1.
         23    2    1    2    0    0 -0.27591768116E+02  0.65338953564E+02 -0.27538884422E+02  0.12081283452E+03  0.93844905614E+02 0.  0.
          5    1    1    2  502    0  0.22749204048E+02 -0.10254301264E+03 -0.40280706151E+02  0.11259316593E+03  0.47000000000E+01 0.  1.
         -5    1    1    2    0  502  0.48425640679E+01  0.37204059072E+02 -0.24477203176E+02  0.45042379083E+02  0.47000000000E+01 0.  1.
        -11    1    3    3    0    0  0.11584706704E+02 -0.20298558161E+02 -0.36284990598E+01  0.23651699691E+02  0.00000000000E+00 0. -1.
         11    1    3    3    0    0 -0.39176474820E+02  0.85637511725E+02 -0.23910385362E+02  0.97161134832E+02  0.00000000000E+00 0.  1.
<mgrwt>
<rscale>  0 0.13670017E+03</rscale>
<asrwt>0</asrwt>
<pdfrwt beam="1">  1        3 0.14319353E-01 0.14371979E+03</pdfrwt>
<pdfrwt beam="2">  1       -3 0.28518859E-01 0.14371979E+03</pdfrwt>
<totfact> 0.11026067E+03</totfact>
</mgrwt>
</event>
<event>
 7    1  0.5107591E-006  0.1294602E+03  0.7546771E-02  0.1241611E+00
          2   -1    0    0  501    0  0.00000000000E+00  0.00000000000E+00  0.12938374295E+03  0.12938374295E+03  0.00000000000E+00 0. -1.
         -2   -1    0    0    0  501 -0.00000000000E+00 -0.00000000000E+00 -0.12819478079E+03  0.12819478079E+03  0.00000000000E+00 0.  1.
         23    2    1    2    0    0  0.26199453829E+02 -0.21039823173E+02  0.60067927665E+02  0.11535804795E+03  0.92575578594E+02 0.  0.
          5    1    1    2  502    0  0.25225695028E+02  0.59418814925E+02 -0.23955268584E+02  0.69013593949E+02  0.47000000000E+01 0. -1.
         -5    1    1    2    0  502 -0.51425148858E+02 -0.38378991752E+02 -0.34923696927E+02  0.73206881848E+02  0.47000000000E+01 0. -1.
        -11    1    3    3    0    0  0.12052268406E+02 -0.42331083165E+02  0.74108460433E+02  0.86193048927E+02  0.00000000000E+00 0. -1.
         11    1    3    3    0    0  0.14147185424E+02  0.21291259992E+02 -0.14040532767E+02  0.29164999020E+02  0.00000000000E+00 0.  1.
<mgrwt>
<rscale>  0 0.12090514E+03</rscale>
<asrwt>0</asrwt>
<pdfrwt beam="1">  1        2 0.19905191E-01 0.12946015E+03</pdfrwt>
<pdfrwt beam="2">  1       -2 0.19722274E-01 0.12946015E+03</pdfrwt>
<totfact> 0.57011960E+03</totfact>
</mgrwt>
</event>
<event>
 7    1  0.5107591E-006  0.1735741E+03  0.7546771E-02  0.1180668E+00
          1   -1    0    0  501    0  0.00000000000E+00  0.00000000000E+00  0.30535433912E+03  0.30535433912E+03  0.00000000000E+00 0. -1.
         -1   -1    0    0    0  501 -0.00000000000E+00 -0.00000000000E+00 -0.89821991678E+02  0.89821991678E+02  0.00000000000E+00 0.  1.
         23    2    1    2    0    0  0.92758359840E+02  0.76810029045E+02  0.14265079574E+03  0.20692203704E+03  0.89238926522E+02 0.  0.
          5    1    1    2  502    0 -0.81908861085E+02 -0.11057650851E+03  0.55134507484E+02  0.14831766474E+03  0.47000000000E+01 0. -1.
         -5    1    1    2    0  502 -0.10849498755E+02  0.33766479463E+02  0.17747044219E+02  0.39936629015E+02  0.47000000000E+01 0. -1.
        -11    1    3    3    0    0 -0.47061370468E+01 -0.14521321036E+02  0.78948115525E+01  0.17185591057E+02  0.00000000000E+00 0. -1.
         11    1    3    3    0    0  0.97464496887E+02  0.91331350082E+02  0.13475598419E+03  0.18973644598E+03  0.00000000000E+00 0.  1.
<mgrwt>
<rscale>  0 0.16732388E+03</rscale>
<asrwt>0</asrwt>
<pdfrwt beam="1">  1        1 0.46977590E-01 0.17357407E+03</pdfrwt>
<pdfrwt beam="2">  1       -1 0.13818768E-01 0.17357407E+03</pdfrwt>
<totfact> 0.30737292E+03</totfact>
</mgrwt>
</event>
<event>
 7    1  0.5107591E-006  0.2602688E+03  0.7546771E-02  0.1109914E+00
         -2   -1    0    0    0  501 -0.00000000000E+00  0.00000000000E+00  0.79803887489E+02  0.79803887489E+02  0.00000000000E+00 0.  1.
          2   -1    0    0  501    0  0.00000000000E+00 -0.00000000000E+00 -0.78895708396E+03  0.78895708396E+03  0.00000000000E+00 0. -1.
         23    2    1    2    0    0  0.26506188640E+00 -0.22828628007E+03 -0.33327160207E+03  0.41156644087E+03  0.78754546362E+02 0.  0.
          5    1    1    2  502    0  0.56347556810E+02  0.60646012228E+02 -0.13112449505E+03  0.15514093322E+03  0.47000000000E+01 0.  1.
         -5    1    1    2    0  502 -0.56612618697E+02  0.16764026784E+03 -0.24475709935E+03  0.30205359736E+03  0.47000000000E+01 0.  1.
        -11    1    3    3    0    0 -0.45915785612E+01 -0.68747724248E+02 -0.16907861852E+03  0.18257850757E+03  0.00000000000E+00 0. -1.
         11    1    3    3    0    0  0.48566404476E+01 -0.15953855582E+03 -0.16419298355E+03  0.22898793330E+03  0.00000000000E+00 0.  1.
<mgrwt>
<rscale>  0 0.25544123E+03</rscale>
<asrwt>0</asrwt>
<pdfrwt beam="2">  1        2 0.12137801E+00 0.26026883E+03</pdfrwt>
<pdfrwt beam="1">  1       -2 0.12277521E-01 0.26026883E+03</pdfrwt>
<totfact> 0.17186187E+03</totfact>
</mgrwt>
</event>
<event>
 7    1  0.5107591E-006  0.1343748E+03  0.7546771E-02  0.1236669E+00
         -4   -1    0    0    0  501 -0.00000000000E+00  0.00000000000E+00  0.15536502328E+03  0.15536502328E+03  0.00000000000E+00 0.  1.
          4   -1    0    0  501    0  0.00000000000E+00 -0.00000000000E+00 -0.87319621529E+02  0.87319621529E+02  0.00000000000E+00 0. -1.
         23    2    1    2    0    0  0.52268103556E+01 -0.49196748740E+02  0.16538508317E+02  0.98776555470E+02  0.83878757859E+02 0.  0.
          5    1    1    2  502    0 -0.54462298576E+02  0.38266442780E+02  0.63218421097E+02  0.91919102341E+02  0.47000000000E+01 0. -1.
         -5    1    1    2    0  502  0.49235488220E+02  0.10930305961E+02 -0.11711527666E+02  0.51988986996E+02  0.47000000000E+01 0. -1.
        -11    1    3    3    0    0 -0.28380212269E+02 -0.55693507270E+02  0.16086301152E+02  0.64544343557E+02  0.00000000000E+00 0.  1.
         11    1    3    3    0    0  0.33607022625E+02  0.64967585297E+01  0.45220716473E+00  0.34232211913E+02  0.00000000000E+00 0. -1.
<mgrwt>
<rscale>  0 0.12398186E+03</rscale>
<asrwt>0</asrwt>
<pdfrwt beam="2">  1        4 0.13433788E-01 0.13437477E+03</pdfrwt>
<pdfrwt beam="1">  1       -4 0.23902311E-01 0.13437477E+03</pdfrwt>
<totfact> 0.12243545E+03</totfact>
</mgrwt>
</event>
<event>
 7    1  0.5107591E-006  0.1381305E+03  0.7546771E-02  0.1227727E+00
          1   -1    0    0  501    0  0.00000000000E+00  0.00000000000E+00  0.25365260928E+03  0.25365260928E+03  0.00000000000E+00 0. -1.
         -1   -1    0    0    0  501 -0.00000000000E+00 -0.00000000000E+00 -0.67915885887E+02  0.67915885887E+02  0.00000000000E+00 0.  1.
         23    2    1    2    0    0 -0.46497123746E+02 -0.35953626355E+02  0.13871406095E+03  0.17565353325E+03  0.90321244869E+02 0.  0.
          5    1    1    2  502    0  0.87778509827E+02  0.18913644182E+02  0.15984172381E+02  0.91325661730E+02  0.47000000000E+01 0.  1.
         -5    1    1    2    0  502 -0.41281386081E+02  0.17039982173E+02  0.31038490064E+02  0.54589300185E+02  0.47000000000E+01 0.  1.
        -11    1    3    3    0    0 -0.49561366012E+02  0.18489599680E+02  0.61398502791E+02  0.81043015999E+02  0.00000000000E+00 0. -1.
         11    1    3    3    0    0  0.30642422661E+01 -0.54443226035E+02  0.77315558157E+02  0.94610517253E+02  0.00000000000E+00 0.  1.
<mgrwt>
<rscale>  0 0.12981753E+03</rscale>
<asrwt>0</asrwt>
<pdfrwt beam="1">  1        1 0.39023478E-01 0.13813054E+03</pdfrwt>
<pdfrwt beam="2">  1       -1 0.10448598E-01 0.13813054E+03</pdfrwt>
<totfact> 0.58967234E+03</totfact>
</mgrwt>
</event>
<event>
 7    1  0.5107591E-006  0.1281585E+03  0.7546771E-02  0.1244169E+00
          4   -1    0    0  501    0  0.00000000000E+00  0.00000000000E+00  0.97913270944E+02  0.97913270944E+02  0.00000000000E+00 0.  1.
         -4   -1    0    0    0  501 -0.00000000000E+00 -0.00000000000E+00 -0.12942911083E+03  0.12942911083E+03  0.00000000000E+00 0. -1.
         23    2    1    2    0    0 -0.73855249781E+01 -0.27297480236E+02 -0.54158837551E+01  0.96553234595E+02  0.92160169854E+02 0.  0.
          5    1    1    2  502    0 -0.38267054839E+02  0.43085896032E+02 -0.50228773869E+02  0.76588391074E+02  0.47000000000E+01 0. -1.
         -5    1    1    2    0  502  0.45652579817E+02 -0.15788415796E+02  0.24128817736E+02  0.54200756107E+02  0.47000000000E+01 0. -1.
        -11    1    3    3    0    0  0.32305971440E+02  0.17228081654E+02 -0.45886083840E+01  0.36899023226E+02  0.00000000000E+00 0. -1.
         11    1    3    3    0    0 -0.39691496418E+02 -0.44525561890E+02 -0.82727537113E+00  0.59654211369E+02  0.00000000000E+00 0.  1.
<mgrwt>
<rscale>  0 0.11935239E+03</rscale>
<asrwt>0</asrwt>
<pdfrwt beam="1">  1        4 0.15063580E-01 0.12815847E+03</pdfrwt>
<pdfrwt beam="2">  1       -4 0.19912171E-01 0.12815847E+03</pdfrwt>
<totfact> 0.13837791E+03</totfact>
</mgrwt>
</event>
<event>
 7    1  0.5107591E-006  0.1384593E+03  0.7546771E-02  0.1226933E+00
          1   -1    0    0  501    0  0.00000000000E+00  0.00000000000E+00  0.50728429638E+03  0.50728429638E+03  0.00000000000E+00 0.  1.
         -1   -1    0    0    0  501 -0.00000000000E+00 -0.00000000000E+00 -0.52608000001E+02  0.52608000001E+02  0.00000000000E+00 0. -1.
         23    2    1    2    0    0  0.59549995257E+02  0.41055285310E+00  0.39396950294E+03  0.40870935116E+03  0.91021942369E+02 0.  0.
          5    1    1    2  502    0  0.36438253567E+02  0.72482706430E+01  0.35346775842E+02  0.51495323212E+02  0.47000000000E+01 0.  1.
         -5    1    1    2    0  502 -0.95988248824E+02 -0.76588234961E+01  0.25360017605E+02  0.99687622013E+02  0.47000000000E+01 0.  1.
        -11    1    3    3    0    0 -0.21742576048E+02  0.85057419692E+01  0.13972115554E+03  0.14165835156E+03  0.00000000000E+00 0.  1.
         11    1    3    3    0    0  0.81292571306E+02 -0.80951891161E+01  0.25424834739E+03  0.26705099960E+03  0.00000000000E+00 0. -1.
<mgrwt>
<rscale>  0 0.13035295E+03</rscale>
<asrwt>0</asrwt>
<pdfrwt beam="1">  1        1 0.78043735E-01 0.13845927E+03</pdfrwt>
<pdfrwt beam="2">  1       -1 0.80935388E-02 0.13845927E+03</pdfrwt>
<totfact> 0.36379000E+03</totfact>
</mgrwt>
</event>
<event>
 7    1  0.5107591E-006  0.2347939E+03  0.7546771E-02  0.1123310E+00
         -1   -1    0    0    0  501 -0.00000000000E+00  0.00000000000E+00  0.17670326739E+02  0.17670326739E+02  0.00000000000E+00 0.  1.
          1   -1    0    0  501    0  0.00000000000E+00 -0.00000000000E+00 -0.77995383511E+03  0.77995383511E+03  0.00000000000E+00 0. -1.
         23    2    1    2    0    0  0.89694569497E+01  0.15628361463E+02 -0.47510006745E+03  0.48389883395E+03  0.90073917261E+02 0.  0.
          5    1    1    2  502    0 -0.19111680176E+02 -0.50241866408E+02 -0.49339725156E+02  0.73116345217E+02  0.47000000000E+01 0.  1.
         -5    1    1    2    0  502  0.10142223227E+02  0.34613504945E+02 -0.23784371577E+03  0.24060898268E+03  0.47000000000E+01 0.  1.
        -11    1    3    3    0    0  0.40295513046E+02 -0.19370017421E+02 -0.21662258003E+03  0.22118830919E+03  0.00000000000E+00 0. -1.
         11    1    3    3    0    0 -0.31326056096E+02  0.34998378884E+02 -0.25847748742E+03  0.26271052476E+03  0.00000000000E+00 0.  1.
<mgrwt>
<rscale>  0 0.23479386E+03</rscale>
<asrwt>0</asrwt>
<pdfrwt beam="2">  1        1 0.11999288E+00 0.23479386E+03</pdfrwt>
<pdfrwt beam="1">  1       -1 0.27185121E-02 0.23479386E+03</pdfrwt>
<totfact> 0.10354903E+04</totfact>
</mgrwt>
</event>
<event>
 7    1  0.5107591E-006  0.1429662E+03  0.7546771E-02  0.1220085E+00
          2   -1    0    0  501    0  0.00000000000E+00  0.00000000000E+00  0.41759146547E+02  0.41759146547E+02  0.00000000000E+00 0. -1.
         -2   -1    0    0    0  501 -0.00000000000E+00 -0.00000000000E+00 -0.53611667278E+03  0.53611667278E+03  0.00000000000E+00 0.  1.
         23    2    1    2    0    0  0.57953494555E+02 -0.38124929498E+02 -0.79227711423E+02  0.13881761987E+03  0.90449895232E+02 0.  0.
          5    1    1    2  502    0  0.13050396659E+02 -0.36780292298E+02 -0.10132362270E+03  0.10868150382E+03  0.47000000000E+01 0.  1.
         -5    1    1    2    0  502 -0.71003891215E+02  0.74905221796E+02 -0.31380619211E+03  0.33037669565E+03  0.47000000000E+01 0.  1.
        -11    1    3    3    0    0  0.55109520792E+02  0.29668877270E+01 -0.80507078895E+02  0.97607640361E+02  0.00000000000E+00 0. -1.
         11    1    3    3    0    0  0.28439737637E+01 -0.41091817225E+02  0.12793674720E+01  0.41209979504E+02  0.00000000000E+00 0.  1.
<mgrwt>
<rscale>  0 0.13509523E+03</rscale>
<asrwt>0</asrwt>
<pdfrwt beam="1">  1        2 0.64244844E-02 0.14296622E+03</pdfrwt>
<pdfrwt beam="2">  1       -2 0.82479483E-01 0.14296622E+03</pdfrwt>
<totfact> 0.14579607E+03</totfact>
</mgrwt>
</event>
<event>
 7    1  0.5107591E-006  0.1456420E+03  0.7546771E-02  0.1215720E+00
         -2   -1    0    0    0  501 -0.00000000000E+00  0.00000000000E+00  0.15997679544E+03  0.15997679544E+03  0.00000000000E+00 0.  1.
          2   -1    0    0  501    0  0.00000000000E+00 -0.00000000000E+00 -0.11649316121E+03  0.11649316121E+03  0.00000000000E+00 0. -1.
         23    2    1    2    0    0  0.53501453177E+02  0.52176713577E+02 -0.15730096566E+02  0.11925077868E+03  0.91588740279E+02 0.  0.
          5    1    1    2  502    0 -0.37202053971E+02  0.13177773288E+02  0.77646719607E+02  0.87228146800E+02  0.47000000000E+01 0.  1.
         -5    1    1    2    0  502 -0.16299399206E+02 -0.65354486865E+02 -0.18432988811E+02  0.69991031171E+02  0.47000000000E+01 0.  1.
        -11    1    3    3    0    0  0.26656336890E+02  0.35892034740E+02  0.36898224571E+02  0.57967900002E+02  0.00000000000E+00 0.  1.
         11    1    3    3    0    0  0.26845116287E+02  0.16284678837E+02 -0.52628321137E+02  0.61282878677E+02  0.00000000000E+00 0. -1.
<mgrwt>
<rscale>  0 0.13823801E+03</rscale>
<asrwt>0</asrwt>
<pdfrwt beam="2">  1        2 0.17922025E-01 0.14564204E+03</pdfrwt>
<pdfrwt beam="1">  1       -2 0.24611815E-01 0.14564204E+03</pdfrwt>
<totfact> 0.44274944E+03</totfact>
</mgrwt>
</event>
<event>
 7    1  0.5107591E-006  0.1990705E+03  0.7546771E-02  0.1154896E+00
          2   -1    0    0  501    0  0.00000000000E+00  0.00000000000E+00  0.99401082873E+03  0.99401082873E+03  0.00000000000E+00 0. -1.
         -2   -1    0    0    0  501 -0.00000000000E+00 -0.00000000000E+00 -0.36478833231E+02  0.36478833231E+02  0.00000000000E+00 0.  1.
         23    2    1    2    0    0  0.15049239864E+03 -0.36960012140E+02  0.50957866338E+03  0.54029453198E+03  0.90740082473E+02 0.  0.
          5    1    1    2  502    0 -0.11025181755E+03  0.46543128717E+02  0.42721236999E+03  0.44368257255E+03  0.47000000000E+01 0.  1.
         -5    1    1    2    0  502 -0.40240581087E+02 -0.95831165777E+01  0.20740962127E+02  0.46512557439E+02  0.47000000000E+01 0.  1.
        -11    1    3    3    0    0  0.79398172291E+02 -0.21146643533E+02  0.12998462340E+03  0.15377663222E+03  0.00000000000E+00 0.  1.
         11    1    3    3    0    0  0.71094226350E+02 -0.15813368606E+02  0.37959403998E+03  0.38651789976E+03  0.00000000000E+00 0. -1.
<mgrwt>
<rscale>  0 0.19400713E+03</rscale>
<asrwt>0</asrwt>
<pdfrwt beam="1">  1        2 0.15292472E+00 0.19907053E+03</pdfrwt>
<pdfrwt beam="2">  1       -2 0.56121289E-02 0.19907053E+03</pdfrwt>
<totfact> 0.43015973E+03</totfact>
</mgrwt>
</event>
<event>
 7    1  0.5107591E-006  0.5514756E+03  0.7546771E-02  0.1019116E+00
          2   -1    0    0  501    0  0.00000000000E+00  0.00000000000E+00  0.11382303782E+04  0.11382303782E+04  0.00000000000E+00 0. -1.
         -2   -1    0    0    0  501 -0.00000000000E+00 -0.00000000000E+00 -0.25444350932E+03  0.25444350932E+03  0.00000000000E+00 0.  1.
         23    2    1    2    0    0  0.26318416290E+03  0.15075015477E+03  0.76582728967E+03  0.82872368867E+03  0.91104345617E+02 0.  0.
          5    1    1    2  502    0 -0.24049232580E+03  0.26996767406E+02  0.24487875497E+03  0.34431537702E+03  0.47000000000E+01 0. -1.
         -5    1    1    2    0  502 -0.22691837100E+02 -0.17774692218E+03 -0.12691917571E+03  0.21963482187E+03  0.47000000000E+01 0.  1.
        -11    1    3    3    0    0  0.31468666985E+02  0.59111698682E+02  0.14311765498E+03  0.15800991453E+03  0.00000000000E+00 0. -1.
         11    1    3    3    0    0  0.23171549592E+03  0.91638456090E+02  0.62270963470E+03  0.67071377414E+03  0.00000000000E+00 0.  1.
<mgrwt>
<rscale>  0 0.48006801E+03</rscale>
<asrwt>0</asrwt>
<pdfrwt beam="1">  1        2 0.17511236E+00 0.55147562E+03</pdfrwt>
<pdfrwt beam="2">  1       -2 0.39145156E-01 0.55147562E+03</pdfrwt>
<totfact> 0.13122129E+02</totfact>
</mgrwt>
</event>
<event>
 7    1  0.5107591E-006  0.2245799E+03  0.7546771E-02  0.1133835E+00
         -3   -1    0    0    0  501 -0.00000000000E+00  0.00000000000E+00  0.14112700498E+03  0.14112700498E+03  0.00000000000E+00 0.  1.
          3   -1    0    0  501    0  0.00000000000E+00 -0.00000000000E+00 -0.33564599271E+03  0.33564599271E+03  0.00000000000E+00 0. -1.
         23    2    1    2    0    0  0.15846438451E+03 -0.98487674557E+02 -0.12417385909E+03  0.24143377532E+03  0.89779381734E+02 0.  0.
          5    1    1    2  502    0 -0.14972534325E+03  0.80475597624E+02 -0.86056145340E+01  0.17026493128E+03  0.47000000000E+01 0. -1.
         -5    1    1    2    0  502 -0.87390412646E+01  0.18012076934E+02 -0.61739514101E+02  0.65074291076E+02  0.47000000000E+01 0. -1.
        -11    1    3    3    0    0  0.32354852176E+02  0.67692186062E+01 -0.52888986153E+02  0.62369091994E+02  0.00000000000E+00 0.  1.
         11    1    3    3    0    0  0.12610953234E+03 -0.10525689316E+03 -0.71284872942E+02  0.17906468333E+03  0.00000000000E+00 0. -1.
<mgrwt>
<rscale>  0 0.22006385E+03</rscale>
<asrwt>0</asrwt>
<pdfrwt beam="2">  1        3 0.51637845E-01 0.22457986E+03</pdfrwt>
<pdfrwt beam="1">  1       -3 0.21711847E-01 0.22457986E+03</pdfrwt>
<totfact> 0.17933551E+02</totfact>
</mgrwt>
</event>
<event>
 7    1  0.5107591E-006  0.1529461E+03  0.7546771E-02  0.1206205E+00
          1   -1    0    0  501    0  0.00000000000E+00  0.00000000000E+00  0.36883426745E+02  0.36883426745E+02  0.00000000000E+00 0. -1.
         -1   -1    0    0    0  501 -0.00000000000E+00 -0.00000000000E+00 -0.52451515228E+03  0.52451515228E+03  0.00000000000E+00 0.  1.
         23    2    1    2    0    0 -0.51496942403E+02 -0.71543606597E+02 -0.23023716294E+03  0.26199168984E+03  0.88657044974E+02 0.  0.
          5    1    1    2  502    0  0.18866565736E+02  0.51392830677E+01 -0.21098517236E+03  0.21194148364E+03  0.47000000000E+01 0. -1.
         -5    1    1    2    0  502  0.32630376667E+02  0.66404323529E+02 -0.46409390234E+02  0.87465405542E+02  0.47000000000E+01 0. -1.
        -11    1    3    3    0    0 -0.23522035362E+02  0.17415685576E+02 -0.34985088539E+02  0.45613031819E+02  0.00000000000E+00 0. -1.
         11    1    3    3    0    0 -0.27974907042E+02 -0.88959292173E+02 -0.19525207440E+03  0.21637865802E+03  0.00000000000E+00 0.  1.
<mgrwt>
<rscale>  0 0.14542883E+03</rscale>
<asrwt>0</asrwt>
<pdfrwt beam="1">  1        1 0.56743739E-02 0.15294615E+03</pdfrwt>
<pdfrwt beam="2">  1       -1 0.80694632E-01 0.15294615E+03</pdfrwt>
<totfact> 0.21812014E+03</totfact>
</mgrwt>
</event>
<event>
 7    1  0.5107591E-006  0.1367794E+03  0.7546771E-02  0.1231171E+00
         -2   -1    0    0    0  501 -0.00000000000E+00  0.00000000000E+00  0.30840962629E+03  0.30840962629E+03  0.00000000000E+00 0.  1.
          2   -1    0    0  501    0  0.00000000000E+00 -0.00000000000E+00 -0.46767029099E+02  0.46767029099E+02  0.00000000000E+00 0. -1.
         23    2    1    2    0    0 -0.35088402362E+02 -0.43050196849E+02  0.10884665591E+03  0.15010301086E+03  0.87171118719E+02 0.  0.
          5    1    1    2  502    0  0.13359385686E+02 -0.44249535134E+02  0.57740525910E+02  0.74111759376E+02  0.47000000000E+01 0.  1.
         -5    1    1    2    0  502  0.21729016676E+02  0.87299731982E+02  0.95055415367E+02  0.13096188514E+03  0.47000000000E+01 0.  1.
        -11    1    3    3    0    0 -0.50628043212E+02 -0.15552012483E+01  0.87070581651E+02  0.10073184005E+03  0.00000000000E+00 0.  1.
         11    1    3    3    0    0  0.15539640850E+02 -0.41494995600E+02  0.21776074258E+02  0.49371170816E+02  0.00000000000E+00 0. -1.
<mgrwt>
<rscale>  0 0.12752747E+03</rscale>
<asrwt>0</asrwt>
<pdfrwt beam="2">  1        2 0.71949277E-02 0.13677938E+03</pdfrwt>
<pdfrwt beam="1">  1       -2 0.47447634E-01 0.13677938E+03</pdfrwt>
<totfact> 0.39666484E+03</totfact>
</mgrwt>
</event>
<event>
 7    1  0.5107591E-006  0.1459892E+03  0.7546771E-02  0.1218519E+00
          3   -1    0    0  501    0  0.00000000000E+00  0.00000000000E+00  0.13232280685E+03  0.13232280685E+03  0.00000000000E+00 0. -1.
         -3   -1    0    0    0  501 -0.00000000000E+00 -0.00000000000E+00 -0.13895243369E+03  0.13895243369E+03  0.00000000000E+00 0.  1.
         23    2    1    2    0    0 -0.49130339408E+01 -0.64450617159E+02  0.40578488127E+02  0.11784299409E+03  0.89790520673E+02 0.  0.
          5    1    1    2  502    0  0.41250908602E+02 -0.97239773259E+01  0.19756777757E+02  0.46995887723E+02  0.47000000000E+01 0. -1.
         -5    1    1    2    0  502 -0.36337874661E+02  0.74174594485E+02 -0.66964892718E+02  0.10643635873E+03  0.47000000000E+01 0.  1.
        -11    1    3    3    0    0 -0.28625899869E+02 -0.72346515249E+02  0.48430215233E+02  0.91645764548E+02  0.00000000000E+00 0.  1.
         11    1    3    3    0    0  0.23712865928E+02  0.78958980898E+01 -0.78517271057E+01  0.26197229542E+02  0.00000000000E+00 0. -1.
<mgrwt>
<rscale>  0 0.13621183E+03</rscale>
<asrwt>0</asrwt>
<pdfrwt beam="1">  1        3 0.20357355E-01 0.14598921E+03</pdfrwt>
<pdfrwt beam="2">  1       -3 0.21377297E-01 0.14598921E+03</pdfrwt>
<totfact> 0.10106499E+03</totfact>
</mgrwt>
</event>
<event>
 7    1  0.5107591E-006  0.1599700E+03  0.7546771E-02  0.1199998E+00
         -2   -1    0    0    0  501 -0.00000000000E+00  0.00000000000E+00  0.95910115238E+02  0.95910115238E+02  0.00000000000E+00 0.  1.
          2   -1    0    0  501    0  0.00000000000E+00 -0.00000000000E+00 -0.21304584195E+03  0.21304584195E+03  0.00000000000E+00 0. -1.
         23    2    1    2    0    0  0.63513094720E+02 -0.59462111228E+02 -0.64046726340E+02  0.14040677117E+03  0.89679553761E+02 0.  0.
          5    1    1    2  502    0 -0.97212673548E+02  0.69340772531E+02 -0.57907302653E+02  0.13279229019E+03  0.47000000000E+01 0. -1.
         -5    1    1    2    0  502  0.33699578827E+02 -0.98786613029E+01  0.48183022834E+01  0.35756895827E+02  0.47000000000E+01 0.  1.
        -11    1    3    3    0    0  0.84370117912E+02 -0.37863715023E+02 -0.59689126483E+02  0.11006711376E+03  0.00000000000E+00 0.  1.
         11    1    3    3    0    0 -0.20857023192E+02 -0.21598396205E+02 -0.43575998577E+01  0.30339657407E+02  0.00000000000E+00 0. -1.
<mgrwt>
<rscale>  0 0.15038738E+03</rscale>
<asrwt>0</asrwt>
<pdfrwt beam="2">  1        2 0.32776283E-01 0.15996995E+03</pdfrwt>
<pdfrwt beam="1">  1       -2 0.14755402E-01 0.15996995E+03</pdfrwt>
<totfact> 0.53969395E+03</totfact>
</mgrwt>
</event>
<event>
 7    1  0.5107591E-006  0.1393019E+03  0.7546771E-02  0.1225146E+00
         -4   -1    0    0    0  501 -0.00000000000E+00  0.00000000000E+00  0.10759741181E+03  0.10759741181E+03  0.00000000000E+00 0.  1.
          4   -1    0    0  501    0  0.00000000000E+00 -0.00000000000E+00 -0.15660566060E+03  0.15660566060E+03  0.00000000000E+00 0. -1.
         23    2    1    2    0    0 -0.46445902873E+02  0.40280299448E+02 -0.57048337700E+02  0.12466931661E+03  0.92239911384E+02 0.  0.
          5    1    1    2  502    0 -0.20856946486E+02 -0.62824681814E+02  0.15072893765E+02  0.68053177649E+02  0.47000000000E+01 0. -1.
         -5    1    1    2    0  502  0.67302849359E+02  0.22544382366E+02 -0.70328048573E+01  0.71480578147E+02  0.47000000000E+01 0. -1.
        -11    1    3    3    0    0  0.27262035185E+02  0.14168456720E+02 -0.60545925609E+01  0.31314881756E+02  0.00000000000E+00 0.  1.
         11    1    3    3    0    0 -0.73707938058E+02  0.26111842727E+02 -0.50993745139E+02  0.93354434853E+02  0.00000000000E+00 0. -1.
<mgrwt>
<rscale>  0 0.13156872E+03</rscale>
<asrwt>0</asrwt>
<pdfrwt beam="2">  1        4 0.24093178E-01 0.13930192E+03</pdfrwt>
<pdfrwt beam="1">  1       -4 0.16553448E-01 0.13930192E+03</pdfrwt>
<totfact> 0.84425524E+02</totfact>
</mgrwt>
</event>
<event>
 6    1  0.5107591E-006  0.4002635E+03  0.7546771E-02  0.1123888E+00
          2   -1    0    0  501    0  0.00000000000E+00  0.00000000000E+00  0.83006154874E+03  0.83006154874E+03  0.00000000000E+00 0. -1.
         -2   -1    0    0    0  501 -0.00000000000E+00 -0.00000000000E+00 -0.63210631615E+02  0.63210631615E+02  0.00000000000E+00 0.  1.
          5    1    1    2  502    0  0.56822393050E+02  0.19053041470E+03  0.41897633457E+03  0.46378214951E+03  0.47000000000E+01 0. -1.
         -5    1    1    2    0  502 -0.57786558291E+02 -0.17549317155E+03  0.19089677427E+03  0.26570812560E+03  0.47000000000E+01 0.  1.
        -11    1    1    2    0    0 -0.15223984075E+02 -0.22386710822E+02  0.11593522016E+03  0.11905423044E+03  0.00000000000E+00 0. -1.
         11    1    1    2    0    0  0.16188149316E+02  0.73494676804E+01  0.41042588127E+02  0.44727674807E+02  0.00000000000E+00 0.  1.
<mgrwt>
<rscale>  0 0.23395281E+03</rscale>
<asrwt>0</asrwt>
<pdfrwt beam="1">  1        2 0.12770177E+00 0.40026348E+03</pdfrwt>
<pdfrwt beam="2">  1       -2 0.97247131E-02 0.40026348E+03</pdfrwt>
<totfact> 0.23528780E+03</totfact>
</mgrwt>
</event>
<event>
 7    1  0.5107591E-006  0.3365007E+03  0.7546771E-02  0.1101174E+00
          2   -1    0    0  501    0  0.00000000000E+00  0.00000000000E+00  0.10939560548E+03  0.10939560548E+03  0.00000000000E+00 0. -1.
         -2   -1    0    0    0  501 -0.00000000000E+00 -0.00000000000E+00 -0.10271873692E+04  0.10271873692E+04  0.00000000000E+00 0.  1.
         23    2    1    2    0    0  0.10361260482E+03  0.19408615591E+02  0.19041305394E+02  0.14114894457E+03  0.91914019635E+02 0.  0.
          5    1    1    2  502    0 -0.36189990095E+02  0.10477683797E+03 -0.10872119325E+03  0.15533927069E+03  0.47000000000E+01 0. -1.
         -5    1    1    2    0  502 -0.67422614726E+02 -0.12418545356E+03 -0.82811187583E+03  0.84009475938E+03  0.47000000000E+01 0.  1.
        -11    1    3    3    0    0  0.12054399241E+03  0.18506210358E+02  0.22035960514E+02  0.12393109975E+03  0.00000000000E+00 0. -1.
         11    1    3    3    0    0 -0.16931387594E+02  0.90240523293E+00 -0.29946551203E+01  0.17217844823E+02  0.00000000000E+00 0.  1.
<mgrwt>
<rscale>  0 0.27018537E+03</rscale>
<asrwt>0</asrwt>
<pdfrwt beam="1">  1        2 0.16830093E-01 0.33650068E+03</pdfrwt>
<pdfrwt beam="2">  1       -2 0.15802882E+00 0.33650068E+03</pdfrwt>
<totfact> 0.93898006E+01</totfact>
</mgrwt>
</event>
<event>
 7    1  0.5107591E-006  0.1742722E+03  0.7546771E-02  0.1178654E+00
         -3   -1    0    0    0  501 -0.00000000000E+00  0.00000000000E+00  0.44667759902E+03  0.44667759902E+03  0.00000000000E+00 0.  1.
          3   -1    0    0  501    0  0.00000000000E+00 -0.00000000000E+00 -0.60717941136E+02  0.60717941136E+02  0.00000000000E+00 0. -1.
         23    2    1    2    0    0  0.11869180453E+03  0.25578233164E+02  0.17429933303E+03  0.23322241662E+03  0.96283163873E+02 0.  0.
          5    1    1    2  502    0 -0.11478972106E+03 -0.48525905042E+02  0.21658111422E+03  0.24992181289E+03  0.47000000000E+01 0.  1.
         -5    1    1    2    0  502 -0.39020834720E+01  0.22947671877E+02 -0.49207893659E+01  0.24251310645E+02  0.47000000000E+01 0.  1.
        -11    1    3    3    0    0  0.76866002228E+02 -0.29520739029E+02  0.70029391246E+02  0.10809242328E+03  0.00000000000E+00 0. -1.
         11    1    3    3    0    0  0.41825802305E+02  0.55098972194E+02  0.10426994179E+03  0.12512999335E+03  0.00000000000E+00 0.  1.
<mgrwt>
<rscale>  0 0.16922934E+03</rscale>
<asrwt>0</asrwt>
<pdfrwt beam="2">  1        3 0.93412220E-02 0.17427223E+03</pdfrwt>
<pdfrwt beam="1">  1       -3 0.68719629E-01 0.17427223E+03</pdfrwt>
<totfact> 0.41063502E+02</totfact>
</mgrwt>
</event>
<event>
 7    1  0.5107591E-006  0.1313235E+03  0.7546771E-02  0.1238077E+00
          1   -1    0    0  501    0  0.00000000000E+00  0.00000000000E+00  0.29519300348E+03  0.29519300348E+03  0.00000000000E+00 0. -1.
         -1   -1    0    0    0  501 -0.00000000000E+00 -0.00000000000E+00 -0.52584947951E+02  0.52584947951E+02  0.00000000000E+00 0.  1.
         23    2    1    2    0    0  0.32924453152E+02  0.23215763871E+02  0.16942961708E+03  0.19744186935E+03  0.93026368943E+02 0.  0.
          5    1    1    2  502    0 -0.28568169674E+02 -0.67518201262E+02  0.11857142022E+02  0.74414579466E+02  0.47000000000E+01 0. -1.
         -5    1    1    2    0  502 -0.43562834776E+01  0.44302437391E+02  0.61321296424E+02  0.75921502617E+02  0.47000000000E+01 0. -1.
        -11    1    3    3    0    0  0.61612275079E+02  0.28035814613E+02  0.88341861645E+02  0.11129404234E+03  0.00000000000E+00 0.  1.
         11    1    3    3    0    0 -0.28687821927E+02 -0.48200507418E+01  0.81087755436E+02  0.86147827005E+02  0.00000000000E+00 0. -1.
<mgrwt>
<rscale>  0 0.12309474E+03</rscale>
<asrwt>0</asrwt>
<pdfrwt beam="1">  1        1 0.45414307E-01 0.13132347E+03</pdfrwt>
<pdfrwt beam="2">  1       -1 0.80899922E-02 0.13132347E+03</pdfrwt>
<totfact> 0.71878883E+03</totfact>
</mgrwt>
</event>
<event>
 7    1  0.5107591E-006  0.1482436E+03  0.7546771E-02  0.1214058E+00
         -1   -1    0    0    0  501 -0.00000000000E+00  0.00000000000E+00  0.58182181763E+03  0.58182181763E+03  0.00000000000E+00 0.  1.
          1   -1    0    0  501    0  0.00000000000E+00 -0.00000000000E+00 -0.30079045703E+02  0.30079045703E+02  0.00000000000E+00 0. -1.
         23    2    1    2    0    0 -0.20828384519E+02  0.66907362674E+02  0.22979435061E+03  0.25746193892E+03  0.92578559278E+02 0.  0.
          5    1    1    2  502    0 -0.80576693345E+01 -0.21466059300E+02 -0.42541520770E+01  0.23788769344E+02  0.47000000000E+01 0. -1.
         -5    1    1    2    0  502  0.28886053853E+02 -0.45441303374E+02  0.32620257340E+03  0.33065015507E+03  0.47000000000E+01 0.  1.
        -11    1    3    3    0    0 -0.89853178032E+01  0.84373189210E+02  0.12845580796E+03  0.15394955535E+03  0.00000000000E+00 0. -1.
         11    1    3    3    0    0 -0.11843066716E+02 -0.17465826536E+02  0.10133854265E+03  0.10351238357E+03  0.00000000000E+00 0.  1.
<mgrwt>
<rscale>  0 0.13945949E+03</rscale>
<asrwt>0</asrwt>
<pdfrwt beam="2">  1        1 0.46275459E-02 0.14824360E+03</pdfrwt>
<pdfrwt beam="1">  1       -1 0.89511040E-01 0.14824360E+03</pdfrwt>
<totfact> 0.23187987E+03</totfact>
</mgrwt>
</event>
<event>
 7    1  0.5107591E-006  0.2182298E+03  0.7546771E-02  0.1145270E+00
          1   -1    0    0  501    0  0.00000000000E+00  0.00000000000E+00  0.12838198339E+03  0.12838198339E+03  0.00000000000E+00 0. -1.
         -1   -1    0    0    0  501 -0.00000000000E+00 -0.00000000000E+00 -0.30712344379E+03  0.30712344379E+03  0.00000000000E+00 0.  1.
         23    2    1    2    0    0 -0.11840664994E+03  0.84162758747E+02 -0.36676689618E+02  0.17510833367E+03  0.90632467961E+02 0.  0.
          5    1    1    2  502    0  0.24061833609E+02 -0.56448211052E+02 -0.14950155059E+03  0.16167305279E+03  0.47000000000E+01 0. -1.
         -5    1    1    2    0  502  0.94344816335E+02 -0.27714547695E+02  0.74367798105E+01  0.98724040726E+02  0.47000000000E+01 0.  1.
        -11    1    3    3    0    0 -0.10169913514E+03  0.10070805002E+03 -0.16404211047E+02  0.14406222117E+03  0.00000000000E+00 0. -1.
         11    1    3    3    0    0 -0.16707514802E+02 -0.16545291273E+02 -0.20272478570E+02  0.31046112503E+02  0.00000000000E+00 0.  1.
<mgrwt>
<rscale>  0 0.20538886E+03</rscale>
<asrwt>0</asrwt>
<pdfrwt beam="1">  1        1 0.19751075E-01 0.21822980E+03</pdfrwt>
<pdfrwt beam="2">  1       -1 0.47249760E-01 0.21822980E+03</pdfrwt>
<totfact> 0.11792919E+03</totfact>
</mgrwt>
</event>
<event>
 7    1  0.5107591E-006  0.2034087E+03  0.7546771E-02  0.1146895E+00
          2   -1    0    0  501    0  0.00000000000E+00  0.00000000000E+00  0.54781417596E+03  0.54781417596E+03  0.00000000000E+00 0. -1.
         -2   -1    0    0    0  501 -0.00000000000E+00 -0.00000000000E+00 -0.18881895107E+02  0.18881895107E+02  0.00000000000E+00 0.  1.
         23    2    1    2    0    0  0.31802256379E+02 -0.31212405923E+01  0.19578867498E+03  0.20944112426E+03  0.67165866528E+02 0.  0.
          5    1    1    2  502    0  0.37081890103E+02 -0.32720383912E+02  0.10375533322E+03  0.11503455684E+03  0.47000000000E+01 0. -1.
         -5    1    1    2    0  502 -0.68884146482E+02  0.35841624505E+02  0.22938827265E+03  0.24222038996E+03  0.47000000000E+01 0. -1.
        -11    1    3    3    0    0  0.51619987373E+02 -0.11438440630E+02  0.14112798670E+03  0.15070689981E+03  0.00000000000E+00 0.  1.
         11    1    3    3    0    0 -0.19817730994E+02  0.83172000378E+01  0.54660688279E+02  0.58734224447E+02  0.00000000000E+00 0. -1.
<mgrwt>
<rscale>  0 0.20340865E+03</rscale>
<asrwt>0</asrwt>
<pdfrwt beam="1">  1        2 0.84279092E-01 0.20340865E+03</pdfrwt>
<pdfrwt beam="2">  1       -2 0.29049074E-02 0.20340865E+03</pdfrwt>
<totfact> 0.24228284E+04</totfact>
</mgrwt>
</event>
<event>
 7    1  0.5107591E-006  0.1188976E+03  0.7546771E-02  0.1252323E+00
          1   -1    0    0  501    0  0.00000000000E+00  0.00000000000E+00  0.17971720836E+02  0.17971720836E+02  0.00000000000E+00 0. -1.
         -1   -1    0    0    0  501 -0.00000000000E+00 -0.00000000000E+00 -0.11140897720E+04  0.11140897720E+04  0.00000000000E+00 0.  1.
         23    2    1    2    0    0 -0.32069341237E+01 -0.44274097733E+02 -0.17136681419E+03  0.19969809897E+03  0.92424377582E+02 0.  0.
          5    1    1    2  502    0  0.50566107754E+02 -0.39260283163E+01 -0.36875077795E+03  0.37225202644E+03  0.47000000000E+01 0. -1.
         -5    1    1    2    0  502 -0.47359173630E+02  0.48200126049E+02 -0.55600045900E+03  0.56011136740E+03  0.47000000000E+01 0.  1.
        -11    1    3    3    0    0 -0.34196645677E+02 -0.44739749850E+02 -0.15443524809E+03  0.16438157332E+03  0.00000000000E+00 0.  1.
         11    1    3    3    0    0  0.30989711553E+02  0.46565211706E+00 -0.16931566098E+02  0.35316525658E+02  0.00000000000E+00 0. -1.
<mgrwt>
<rscale>  0 0.11457621E+03</rscale>
<asrwt>0</asrwt>
<pdfrwt beam="1">  1        1 0.27648789E-02 0.11889764E+03</pdfrwt>
<pdfrwt beam="2">  1       -1 0.17139850E+00 0.11889764E+03</pdfrwt>
<totfact> 0.98285580E+02</totfact>
</mgrwt>
</event>
<event>
 7    1  0.5107591E-006  0.1270593E+03  0.7546771E-02  0.1246222E+00
         -2   -1    0    0    0  501 -0.00000000000E+00  0.00000000000E+00  0.44973092226E+02  0.44973092226E+02  0.00000000000E+00 0.  1.
          2   -1    0    0  501    0  0.00000000000E+00 -0.00000000000E+00 -0.43620744392E+03  0.43620744392E+03  0.00000000000E+00 0. -1.
         23    2    1    2    0    0  0.31947376189E+01 -0.22495160063E+02 -0.32361539594E+03  0.33724866245E+03  0.92160171765E+02 0.  0.
          5    1    1    2  502    0  0.58751454857E+02  0.23320107446E+02 -0.45326211282E+02  0.77923785126E+02  0.47000000000E+01 0. -1.
         -5    1    1    2    0  502 -0.61946192476E+02 -0.82494738323E+00 -0.22292744470E+02  0.66008088569E+02  0.47000000000E+01 0. -1.
        -11    1    3    3    0    0 -0.12720761967E+02 -0.54705624944E+02 -0.23518321384E+03  0.24179674782E+03  0.00000000000E+00 0. -1.
         11    1    3    3    0    0  0.15915499586E+02  0.32210464882E+02 -0.88432182105E+02  0.95451914631E+02  0.00000000000E+00 0.  1.
<mgrwt>
<rscale>  0 0.11812554E+03</rscale>
<asrwt>0</asrwt>
<pdfrwt beam="2">  1        2 0.67108834E-01 0.12705928E+03</pdfrwt>
<pdfrwt beam="1">  1       -2 0.69189377E-02 0.12705928E+03</pdfrwt>
<totfact> 0.81742062E+03</totfact>
</mgrwt>
</event>
<event>
 7    1  0.5107591E-006  0.1305951E+03  0.7546771E-02  0.1240202E+00
          1   -1    0    0  501    0  0.00000000000E+00  0.00000000000E+00  0.12563894786E+03  0.12563894786E+03  0.00000000000E+00 0. -1.
         -1   -1    0    0    0  501 -0.00000000000E+00 -0.00000000000E+00 -0.10818745466E+03  0.10818745466E+03  0.00000000000E+00 0.  1.
         23    2    1    2    0    0 -0.75322619484E+01 -0.37054146757E+02  0.28532157145E+02  0.10276201390E+03  0.91193216564E+02 0.  0.
          5    1    1    2  502    0 -0.58660456617E+02  0.18392439416E+02 -0.58587448049E+01  0.61933398816E+02  0.47000000000E+01 0.  1.
         -5    1    1    2    0  502  0.66192718565E+02  0.18661707341E+02 -0.52219191392E+01  0.69130989805E+02  0.47000000000E+01 0.  1.
        -11    1    3    3    0    0  0.13848121276E+02 -0.44606044602E+02  0.52159204748E+02  0.70014657879E+02  0.00000000000E+00 0. -1.
         11    1    3    3    0    0 -0.21380383224E+02  0.75518978448E+01 -0.23627047604E+02  0.32747356020E+02  0.00000000000E+00 0.  1.
<mgrwt>
<rscale>  0 0.12177224E+03</rscale>
<asrwt>0</asrwt>
<pdfrwt beam="1">  1        1 0.19329069E-01 0.13059515E+03</pdfrwt>
<pdfrwt beam="2">  1       -1 0.16644224E-01 0.13059515E+03</pdfrwt>
<totfact> 0.68635275E+03</totfact>
</mgrwt>
</event>
<event>
 7    1  0.5107591E-006  0.1751386E+03  0.7546771E-02  0.1178583E+00
          1   -1    0    0  501    0  0.00000000000E+00  0.00000000000E+00  0.10304775243E+04  0.10304775243E+04  0.00000000000E+00 0. -1.
         -1   -1    0    0    0  501 -0.00000000000E+00 -0.00000000000E+00 -0.26411042087E+02  0.26411042087E+02  0.00000000000E+00 0.  1.
         23    2    1    2    0    0 -0.54425995992E+02  0.10994097835E+03  0.41203443111E+03  0.43949447636E+03  0.91289728730E+02 0.  0.
          5    1    1    2  502    0 -0.11264147463E+02 -0.77106796424E+00  0.45944969009E+00  0.12238327414E+02  0.47000000000E+01 0. -1.
         -5    1    1    2    0  502  0.65690143455E+02 -0.10916991038E+03  0.59157260141E+03  0.60515576261E+03  0.47000000000E+01 0. -1.
        -11    1    3    3    0    0 -0.21479062355E+02  0.11147642407E+03  0.25648858355E+03  0.28049017226E+03  0.00000000000E+00 0.  1.
         11    1    3    3    0    0 -0.32946933637E+02 -0.15354457211E+01  0.15554584755E+03  0.15900430409E+03  0.00000000000E+00 0. -1.
<mgrwt>
<rscale>  0 0.16929686E+03</rscale>
<asrwt>0</asrwt>
<pdfrwt beam="1">  1        1 0.15853497E+00 0.17513855E+03</pdfrwt>
<pdfrwt beam="2">  1       -1 0.40632380E-02 0.17513855E+03</pdfrwt>
<totfact> 0.36060452E+03</totfact>
</mgrwt>
</event>
<event>
 7    1  0.5107591E-006  0.1470938E+03  0.7546771E-02  0.1214212E+00
          4   -1    0    0  501    0  0.00000000000E+00  0.00000000000E+00  0.12401254591E+03  0.12401254591E+03  0.00000000000E+00 0. -1.
         -4   -1    0    0    0  501 -0.00000000000E+00 -0.00000000000E+00 -0.14619329350E+03  0.14619329350E+03  0.00000000000E+00 0.  1.
         23    2    1    2    0    0  0.59793184607E+02  0.49387024098E+02  0.12369728017E+02  0.11910881299E+03  0.89552197551E+02 0.  0.
          5    1    1    2  502    0 -0.96562176291E+02 -0.46109076869E+02 -0.38173103672E+02  0.11370829655E+03  0.47000000000E+01 0. -1.
         -5    1    1    2    0  502  0.36768991684E+02 -0.32779472285E+01  0.36226280711E+01  0.37388729875E+02  0.47000000000E+01 0. -1.
        -11    1    3    3    0    0  0.23735070432E+02 -0.19565202639E+02 -0.17932796356E+02  0.35605279214E+02  0.00000000000E+00 0. -1.
         11    1    3    3    0    0  0.36058114175E+02  0.68952226737E+02  0.30302524374E+02  0.83503533777E+02  0.00000000000E+00 0.  1.
<mgrwt>
<rscale>  0 0.13934551E+03</rscale>
<asrwt>0</asrwt>
<pdfrwt beam="1">  1        4 0.19078853E-01 0.14709377E+03</pdfrwt>
<pdfrwt beam="2">  1       -4 0.22491276E-01 0.14709377E+03</pdfrwt>
<totfact> 0.75214786E+02</totfact>
</mgrwt>
</event>
<event>
 6    1  0.5107591E-006  0.3419809E+03  0.7546771E-02  0.1076756E+00
         -2   -1    0    0    0  501 -0.00000000000E+00  0.00000000000E+00  0.11552061904E+03  0.11552061904E+03  0.00000000000E+00 0.  1.
          2   -1    0    0  501    0  0.00000000000E+00 -0.00000000000E+00 -0.79774186798E+03  0.79774186798E+03  0.00000000000E+00 0. -1.
          5    1    1    2  502    0 -0.12749607663E+03 -0.84092430864E+02 -0.30791640989E+03  0.34374611556E+03  0.47000000000E+01 0. -1.
         -5    1    1    2    0  502  0.26521813454E+02 -0.11109585025E+03  0.31095178611E+01  0.11435669475E+03  0.47000000000E+01 0.  1.
        -11    1    1    2    0    0  0.24277429604E+02 -0.36013736762E+01 -0.11272224574E+03  0.11536320108E+03  0.00000000000E+00 0.  1.
         11    1    1    2    0    0  0.76696833574E+02  0.19878965479E+03 -0.26469211118E+03  0.33979647564E+03  0.00000000000E+00 0. -1.
<mgrwt>
<rscale>  0 0.31760588E+03</rscale>
<asrwt>0</asrwt>
<pdfrwt beam="2">  1        2 0.12272952E+00 0.34198091E+03</pdfrwt>
<pdfrwt beam="1">  1       -2 0.17772403E-01 0.34198091E+03</pdfrwt>
<totfact> 0.91684892E+02</totfact>
</mgrwt>
</event>
<event>
 7    1  0.5107591E-006  0.2218249E+03  0.7546771E-02  0.1135769E+00
          1   -1    0    0  501    0  0.00000000000E+00  0.00000000000E+00  0.56118845823E+03  0.56118845823E+03  0.00000000000E+00 0. -1.
         -1   -1    0    0    0  501 -0.00000000000E+00 -0.00000000000E+00 -0.10759848832E+03  0.10759848832E+03  0.00000000000E+00 0.  1.
         23    2    1    2    0    0 -0.16793006584E+03 -0.73348873595E+02  0.38573102104E+03  0.43681465446E+03  0.91858899869E+02 0.  0.
          5    1    1    2  502    0  0.16719334322E+03  0.23559318630E+02  0.67654095171E+02  0.18195554981E+03  0.47000000000E+01 0. -1.
         -5    1    1    2    0  502  0.73672261574E+00  0.49789554965E+02  0.20485369759E+00  0.50016742286E+02  0.47000000000E+01 0. -1.
        -11    1    3    3    0    0 -0.33341609290E+02 -0.26402628468E+02  0.18987706819E+03  0.19458176359E+03  0.00000000000E+00 0. -1.
         11    1    3    3    0    0 -0.13458845655E+03 -0.46946245127E+02  0.19585395286E+03  0.24223289087E+03  0.00000000000E+00 0.  1.
<mgrwt>
<rscale>  0 0.21748936E+03</rscale>
<asrwt>0</asrwt>
<pdfrwt beam="1">  1        1 0.86336684E-01 0.22182495E+03</pdfrwt>
<pdfrwt beam="2">  1       -1 0.16553614E-01 0.22182495E+03</pdfrwt>
<totfact> 0.10596323E+03</totfact>
</mgrwt>
</event>
<event>
 7    1  0.5107591E-006  0.1328797E+03  0.7546771E-02  0.1234416E+00
          1   -1    0    0  501    0  0.00000000000E+00  0.00000000000E+00  0.25032089454E+03  0.25032089454E+03  0.00000000000E+00 0. -1.
         -1   -1    0    0    0  501 -0.00000000000E+00 -0.00000000000E+00 -0.61072857788E+02  0.61072857788E+02  0.00000000000E+00 0.  1.
         23    2    1    2    0    0  0.20062262089E+02 -0.49074109883E+02  0.12576686008E+03  0.16412911867E+03  0.91160857181E+02 0.  0.
          5    1    1    2  502    0 -0.60803423784E+02  0.78261736898E+00  0.52538783164E+01  0.61215701182E+02  0.47000000000E+01 0. -1.
         -5    1    1    2    0  502  0.40741161695E+02  0.48291492514E+02  0.58227298356E+02  0.86048932471E+02  0.47000000000E+01 0.  1.
        -11    1    3    3    0    0  0.24153417555E+02 -0.70208789422E+02  0.12118281784E+03  0.14211944636E+03  0.00000000000E+00 0. -1.
         11    1    3    3    0    0 -0.40911554667E+01  0.21134679540E+02  0.45840422311E+01  0.22009672316E+02  0.00000000000E+00 0.  1.
<mgrwt>
<rscale>  0 0.12541869E+03</rscale>
<asrwt>0</asrwt>
<pdfrwt beam="1">  1        1 0.38510906E-01 0.13287969E+03</pdfrwt>
<pdfrwt beam="2">  1       -1 0.93958244E-02 0.13287969E+03</pdfrwt>
<totfact> 0.70306014E+03</totfact>
</mgrwt>
</event>
<event>
 7    1  0.5107591E-006  0.1260156E+03  0.7546771E-02  0.1249032E+00
          2   -1    0    0  501    0  0.00000000000E+00  0.00000000000E+00  0.34608186969E+03  0.34608186969E+03  0.00000000000E+00 0. -1.
         -2   -1    0    0    0  501 -0.00000000000E+00 -0.00000000000E+00 -0.38134728015E+02  0.38134728015E+02  0.00000000000E+00 0.  1.
         23    2    1    2    0    0 -0.44966453605E+01 -0.14928435315E+02  0.19238273029E+03  0.21323398865E+03  0.90634105085E+02 0.  0.
          5    1    1    2  502    0 -0.38422475375E+02  0.50892340367E+02  0.86936611059E+02  0.10791840095E+03  0.47000000000E+01 0. -1.
         -5    1    1    2    0  502  0.42919120736E+02 -0.35963905052E+02  0.28627800331E+02  0.63064208099E+02  0.47000000000E+01 0. -1.
        -11    1    3    3    0    0  0.19829829657E+01  0.36919858186E+02  0.55211812266E+02  0.66448117833E+02  0.00000000000E+00 0.  1.
         11    1    3    3    0    0 -0.64796283262E+01 -0.51848293501E+02  0.13717091802E+03  0.14678587082E+03  0.00000000000E+00 0. -1.
<mgrwt>
<rscale>  0 0.11647270E+03</rscale>
<asrwt>0</asrwt>
<pdfrwt beam="1">  1        2 0.53243362E-01 0.12601555E+03</pdfrwt>
<pdfrwt beam="2">  1       -2 0.58668815E-02 0.12601555E+03</pdfrwt>
<totfact> 0.13429221E+04</totfact>
</mgrwt>
</event>
<event>
 7    1  0.5107591E-006  0.1415455E+03  0.7546771E-02  0.1221473E+00
          2   -1    0    0  501    0  0.00000000000E+00  0.00000000000E+00  0.12296076317E+04  0.12296076317E+04  0.00000000000E+00 0. -1.
         -2   -1    0    0    0  501 -0.00000000000E+00 -0.00000000000E+00 -0.13400181055E+02  0.13400181055E+02  0.00000000000E+00 0.  1.
         23    2    1    2    0    0 -0.64839017146E+02 -0.14353450668E+02  0.48639939130E+03  0.49960016954E+03  0.92767676757E+02 0.  0.
          5    1    1    2  502    0  0.60452582968E+02 -0.31215796531E+02  0.19421259332E+03  0.20583867990E+03  0.47000000000E+01 0.  1.
         -5    1    1    2    0  502  0.43864341773E+01  0.45569247199E+02  0.53559546606E+03  0.53756896335E+03  0.47000000000E+01 0.  1.
        -11    1    3    3    0    0 -0.30578451654E+02 -0.50548898967E+02  0.33610882001E+03  0.34126144198E+03  0.00000000000E+00 0. -1.
         11    1    3    3    0    0 -0.34260565491E+02  0.36195448299E+02  0.15029057129E+03  0.15833872756E+03  0.00000000000E+00 0.  1.
<mgrwt>
<rscale>  0 0.13411629E+03</rscale>
<asrwt>0</asrwt>
<pdfrwt beam="1">  1        2 0.18917032E+00 0.14154547E+03</pdfrwt>
<pdfrwt beam="2">  1       -2 0.20615673E-02 0.14154547E+03</pdfrwt>
<totfact> 0.13739662E+04</totfact>
</mgrwt>
</event>
<event>
 7    1  0.5107591E-006  0.1475397E+03  0.7546771E-02  0.1213437E+00
          1   -1    0    0  501    0  0.00000000000E+00  0.00000000000E+00  0.10307644035E+03  0.10307644035E+03  0.00000000000E+00 0. -1.
         -1   -1    0    0    0  501 -0.00000000000E+00 -0.00000000000E+00 -0.17743681777E+03  0.17743681777E+03  0.00000000000E+00 0.  1.
         23    2    1    2    0    0 -0.78380145103E+02  0.56197271175E+00 -0.10682749020E+02  0.11981850690E+03  0.89992169161E+02 0.  0.
          5    1    1    2  502    0  0.61726664223E+02 -0.46517975859E+02 -0.77627543211E+02  0.10964592386E+03  0.47000000000E+01 0.  1.
         -5    1    1    2    0  502  0.16653480880E+02  0.45956003147E+02  0.13949914815E+02  0.51048827352E+02  0.47000000000E+01 0.  1.
        -11    1    3    3    0    0 -0.19269950683E+01  0.21948621722E+02  0.24529215960E+02  0.32971771883E+02  0.00000000000E+00 0. -1.
         11    1    3    3    0    0 -0.76453150035E+02 -0.21386649010E+02 -0.35211964979E+02  0.86846735021E+02  0.00000000000E+00 0.  1.
<mgrwt>
<rscale>  0 0.13991987E+03</rscale>
<asrwt>0</asrwt>
<pdfrwt beam="1">  1        1 0.15857914E-01 0.14753970E+03</pdfrwt>
<pdfrwt beam="2">  1       -1 0.27297972E-01 0.14753970E+03</pdfrwt>
<totfact> 0.40047916E+03</totfact>
</mgrwt>
</event>
<event>
 7    1  0.5107591E-006  0.1783129E+03  0.7546771E-02  0.1175045E+00
          1   -1    0    0  501    0  0.00000000000E+00  0.00000000000E+00  0.61921639654E+02  0.61921639654E+02  0.00000000000E+00 0.  1.
         -1   -1    0    0    0  501 -0.00000000000E+00 -0.00000000000E+00 -0.46484289500E+03  0.46484289500E+03  0.00000000000E+00 0. -1.
         23    2    1    2    0    0 -0.55014463818E+02  0.11464780165E+03 -0.14846121581E+03  0.21604696676E+03  0.92004617237E+02 0.  0.
          5    1    1    2  502    0 -0.88871828787E+01  0.23446502468E+02 -0.45804325766E+02  0.52429445509E+02  0.47000000000E+01 0.  1.
         -5    1    1    2    0  502  0.63901646697E+02 -0.13809430411E+03 -0.20865571377E+03  0.25828812239E+03  0.47000000000E+01 0.  1.
        -11    1    3    3    0    0 -0.48967896469E+02  0.82818751910E+02 -0.42387157443E+02  0.10513549196E+03  0.00000000000E+00 0.  1.
         11    1    3    3    0    0 -0.60465673493E+01  0.31829049736E+02 -0.10607405837E+03  0.11091147480E+03  0.00000000000E+00 0. -1.
<mgrwt>
<rscale>  0 0.17271593E+03</rscale>
<asrwt>0</asrwt>
<pdfrwt beam="1">  1        1 0.95264063E-02 0.17831291E+03</pdfrwt>
<pdfrwt beam="2">  1       -1 0.71514290E-01 0.17831291E+03</pdfrwt>
<totfact> 0.13898056E+03</totfact>
</mgrwt>
</event>
<event>
 7    1  0.5107591E-006  0.1545752E+03  0.7546771E-02  0.1203700E+00
         -2   -1    0    0    0  501 -0.00000000000E+00  0.00000000000E+00  0.88973072760E+02  0.88973072760E+02  0.00000000000E+00 0. -1.
          2   -1    0    0  501    0  0.00000000000E+00 -0.00000000000E+00 -0.22534683883E+03  0.22534683883E+03  0.00000000000E+00 0.  1.
         23    2    1    2    0    0  0.38217157051E+02 -0.82529430581E+02 -0.73477421911E+02  0.14743836049E+03  0.89819155025E+02 0.  0.
          5    1    1    2  502    0  0.31525303869E+02  0.64824080503E+02 -0.61324221909E+02  0.94756300001E+02  0.47000000000E+01 0.  1.
         -5    1    1    2    0  502 -0.69742460920E+02  0.17705350078E+02 -0.15721222460E+01  0.72125251091E+02  0.47000000000E+01 0.  1.
        -11    1    3    3    0    0  0.72879269699E+01 -0.39913082867E+02 -0.84413222236E+02  0.93657675349E+02  0.00000000000E+00 0.  1.
         11    1    3    3    0    0  0.30929230081E+02 -0.42616347714E+02  0.10935800325E+02  0.53780685145E+02  0.00000000000E+00 0. -1.
<mgrwt>
<rscale>  0 0.14740376E+03</rscale>
<asrwt>0</asrwt>
<pdfrwt beam="2">  1        2 0.34668744E-01 0.15457523E+03</pdfrwt>
<pdfrwt beam="1">  1       -2 0.13688165E-01 0.15457523E+03</pdfrwt>
<totfact> 0.57292642E+03</totfact>
</mgrwt>
</event>
<event>
 7    1  0.5107591E-006  0.1646841E+03  0.7546771E-02  0.1190283E+00
         -1   -1    0    0    0  501 -0.00000000000E+00  0.00000000000E+00  0.58309167614E+02  0.58309167614E+02  0.00000000000E+00 0.  1.
          1   -1    0    0  501    0  0.00000000000E+00 -0.00000000000E+00 -0.61666753994E+03  0.61666753994E+03  0.00000000000E+00 0. -1.
         23    2    1    2    0    0  0.67871161076E+02 -0.58198181730E+02 -0.46406272302E+03  0.48520706249E+03  0.10990068121E+03 0.  0.
          5    1    1    2  502    0 -0.71267457719E+02 -0.20361827646E+02 -0.80978118405E+02  0.10987811527E+03  0.47000000000E+01 0. -1.
         -5    1    1    2    0  502  0.33962966437E+01  0.78560009376E+02 -0.13317530905E+02  0.79891529798E+02  0.47000000000E+01 0.  1.
        -11    1    3    3    0    0  0.27993107942E+01  0.24868095661E+02 -0.32991155860E+02  0.41408630594E+02  0.00000000000E+00 0.  1.
         11    1    3    3    0    0  0.65071850281E+02 -0.83066277391E+02 -0.43107156716E+03  0.44379843190E+03  0.00000000000E+00 0. -1.
<mgrwt>
<rscale>  0 0.15860311E+03</rscale>
<asrwt>0</asrwt>
<pdfrwt beam="2">  1        1 0.94871931E-01 0.16468409E+03</pdfrwt>
<pdfrwt beam="1">  1       -1 0.89706410E-02 0.16468409E+03</pdfrwt>
<totfact> 0.24088449E+03</totfact>
</mgrwt>
</event>
<event>
 7    1  0.5107591E-006  0.1259300E+03  0.7546771E-02  0.1249299E+00
         -1   -1    0    0    0  501 -0.00000000000E+00  0.00000000000E+00  0.20838667156E+02  0.20838667156E+02  0.00000000000E+00 0.  1.
          1   -1    0    0  501    0  0.00000000000E+00 -0.00000000000E+00 -0.57025119811E+03  0.57025119811E+03  0.00000000000E+00 0. -1.
         23    2    1    2    0    0  0.12588709092E+02  0.86638935557E+01 -0.24991588958E+03  0.26619509709E+03  0.90378864796E+02 0.  0.
          5    1    1    2  502    0 -0.61264531111E+02 -0.20529266214E+02 -0.23092597809E+03  0.23984097002E+03  0.47000000000E+01 0.  1.
         -5    1    1    2    0  502  0.48675822020E+02  0.11865372658E+02 -0.68570663288E+02  0.85053798160E+02  0.47000000000E+01 0.  1.
        -11    1    3    3    0    0  0.33839214977E+02 -0.28595293307E+02 -0.16781692920E+03  0.17356642819E+03  0.00000000000E+00 0.  1.
         11    1    3    3    0    0 -0.21250505886E+02  0.37259186863E+02 -0.82098960384E+02  0.92628668900E+02  0.00000000000E+00 0. -1.
<mgrwt>
<rscale>  0 0.11631722E+03</rscale>
<asrwt>0</asrwt>
<pdfrwt beam="2">  1        1 0.87730957E-01 0.12593003E+03</pdfrwt>
<pdfrwt beam="1">  1       -1 0.32059487E-02 0.12593003E+03</pdfrwt>
<totfact> 0.12206314E+04</totfact>
</mgrwt>
</event>
<event>
 7    1  0.5107591E-006  0.1260856E+03  0.7546771E-02  0.1249856E+00
          2   -1    0    0  501    0  0.00000000000E+00  0.00000000000E+00  0.67823194778E+02  0.67823194778E+02  0.00000000000E+00 0.  1.
         -2   -1    0    0    0  501 -0.00000000000E+00 -0.00000000000E+00 -0.25383634630E+03  0.25383634630E+03  0.00000000000E+00 0. -1.
         23    2    1    2    0    0 -0.15818870138E+02 -0.54330391961E+01  0.75785224280E+01  0.90628563547E+02  0.88748791321E+02 0.  0.
          5    1    1    2  502    0  0.14833565093E+02 -0.47978523135E+02 -0.15997601158E+03  0.16773904619E+03  0.47000000000E+01 0.  1.
         -5    1    1    2    0  502  0.98530504483E+00  0.53411562331E+02 -0.33615662376E+02  0.63291931347E+02  0.47000000000E+01 0.  1.
        -11    1    3    3    0    0 -0.23405244355E+02  0.28447816651E+02  0.31496571924E+02  0.48467698300E+02  0.00000000000E+00 0.  1.
         11    1    3    3    0    0  0.75863742174E+01 -0.33880855847E+02 -0.23918049496E+02  0.42160865247E+02  0.00000000000E+00 0. -1.
<mgrwt>
<rscale>  0 0.11599371E+03</rscale>
<asrwt>0</asrwt>
<pdfrwt beam="1">  1        2 0.10434338E-01 0.12608559E+03</pdfrwt>
<pdfrwt beam="2">  1       -2 0.39051746E-01 0.12608559E+03</pdfrwt>
<totfact> 0.36097871E+03</totfact>
</mgrwt>
</event>
<event>
 7    1  0.5107591E-006  0.1769362E+03  0.7546771E-02  0.1176770E+00
         -2   -1    0    0    0  501 -0.00000000000E+00  0.00000000000E+00  0.24654057999E+02  0.24654057999E+02  0.00000000000E+00 0.  1.
          2   -1    0    0  501    0  0.00000000000E+00 -0.00000000000E+00 -0.11233412044E+04  0.11233412044E+04  0.00000000000E+00 0. -1.
         23    2    1    2    0    0 -0.16140886523E+02  0.12416900812E+03 -0.45993562834E+03  0.48519066406E+03  0.90502637954E+02 0.  0.
          5    1    1    2  502    0  0.32791881059E+02 -0.11435000425E+03 -0.28999469040E+03  0.31348084694E+03  0.47000000000E+01 0. -1.
         -5    1    1    2    0  502 -0.16650994536E+02 -0.98190038722E+01 -0.34875682765E+03  0.34932375140E+03  0.47000000000E+01 0. -1.
        -11    1    3    3    0    0  0.75065098843E+01  0.65361672043E+02 -0.99899133507E+02  0.11961744329E+03  0.00000000000E+00 0.  1.
         11    1    3    3    0    0 -0.23647396408E+02  0.58807336079E+02 -0.36003649484E+03  0.36557322078E+03  0.00000000000E+00 0. -1.
<mgrwt>
<rscale>  0 0.17103789E+03</rscale>
<asrwt>0</asrwt>
<pdfrwt beam="2">  1        2 0.17282176E+00 0.17693624E+03</pdfrwt>
<pdfrwt beam="1">  1       -2 0.37929312E-02 0.17693624E+03</pdfrwt>
<totfact> 0.64895072E+03</totfact>
</mgrwt>
</event>
<event>
 7    1  0.5107591E-006  0.1363616E+03  0.7546771E-02  0.1232612E+00
         -1   -1    0    0    0  501 -0.00000000000E+00  0.00000000000E+00  0.31486871114E+03  0.31486871114E+03  0.00000000000E+00 0.  1.
          1   -1    0    0  501    0  0.00000000000E+00 -0.00000000000E+00 -0.45018564124E+02  0.45018564124E+02  0.00000000000E+00 0. -1.
         23    2    1    2    0    0 -0.40021473372E+02 -0.36938071680E+02  0.10365324723E+03  0.14490847272E+03  0.85371718577E+02 0.  0.
          5    1    1    2  502    0  0.80501640257E+02  0.21986299183E+02  0.68476912790E+02  0.10805132586E+03  0.47000000000E+01 0. -1.
         -5    1    1    2    0  502 -0.40480166884E+02  0.14951772496E+02  0.97719986998E+02  0.10692747669E+03  0.47000000000E+01 0. -1.
        -11    1    3    3    0    0  0.21496335845E+02 -0.11898273659E+02  0.36223548137E+01  0.24835112749E+02  0.00000000000E+00 0. -1.
         11    1    3    3    0    0 -0.61517809218E+02 -0.25039798021E+02  0.10003089242E+03  0.12007335997E+03  0.00000000000E+00 0.  1.
<mgrwt>
<rscale>  0 0.12658526E+03</rscale>
<asrwt>0</asrwt>
<pdfrwt beam="2">  1        1 0.69259331E-02 0.13636156E+03</pdfrwt>
<pdfrwt beam="1">  1       -1 0.48441339E-01 0.13636156E+03</pdfrwt>
<totfact> 0.44179963E+03</totfact>
</mgrwt>
</event>
<event>
 7    1  0.5107591E-006  0.1342294E+03  0.7546771E-02  0.1233493E+00
         -1   -1    0    0    0  501 -0.00000000000E+00  0.00000000000E+00  0.77071387446E+03  0.77071387446E+03  0.00000000000E+00 0.  1.
          1   -1    0    0  501    0  0.00000000000E+00 -0.00000000000E+00 -0.19201040945E+02  0.19201040945E+02  0.00000000000E+00 0. -1.
         23    2    1    2    0    0 -0.44652886784E+02  0.19976409231E+02  0.25287436515E+03  0.27352567426E+03  0.92075581475E+02 0.  0.
          5    1    1    2  502    0  0.83123725180E+02 -0.20060746389E+02  0.23912634316E+03  0.25399898667E+03  0.47000000000E+01 0.  1.
         -5    1    1    2    0  502 -0.38470838396E+02  0.84337157961E-01  0.25951212520E+03  0.26239025448E+03  0.47000000000E+01 0.  1.
        -11    1    3    3    0    0  0.11054350714E+02  0.40715211799E+02  0.13615619753E+03  0.14254275593E+03  0.00000000000E+00 0.  1.
         11    1    3    3    0    0 -0.55707237499E+02 -0.20738802568E+02  0.11671816762E+03  0.13098291833E+03  0.00000000000E+00 0. -1.
<mgrwt>
<rscale>  0 0.12601395E+03</rscale>
<asrwt>0</asrwt>
<pdfrwt beam="2">  1        1 0.29540069E-02 0.13422938E+03</pdfrwt>
<pdfrwt beam="1">  1       -1 0.11857134E+00 0.13422938E+03</pdfrwt>
<totfact> 0.22930631E+03</totfact>
</mgrwt>
</event>
<event>
 7    1  0.5107591E-006  0.1586066E+03  0.7546771E-02  0.1197856E+00
          2   -1    0    0  501    0  0.00000000000E+00  0.00000000000E+00  0.52694778078E+03  0.52694778078E+03  0.00000000000E+00 0. -1.
         -2   -1    0    0    0  501 -0.00000000000E+00 -0.00000000000E+00 -0.42247247135E+02  0.42247247135E+02  0.00000000000E+00 0.  1.
         23    2    1    2    0    0  0.63980791961E+02 -0.73735799397E+02  0.27713383793E+03  0.30796718737E+03  0.92250281930E+02 0.  0.
          5    1    1    2  502    0  0.60169665273E+01  0.84334677850E+02  0.87510851853E+02  0.12177348220E+03  0.47000000000E+01 0.  1.
         -5    1    1    2    0  502 -0.69997758488E+02 -0.10598878453E+02  0.12005584386E+03  0.13945435835E+03  0.47000000000E+01 0.  1.
        -11    1    3    3    0    0  0.28058753318E+02  0.16800316533E+01  0.16902117099E+03  0.17134255860E+03  0.00000000000E+00 0. -1.
         11    1    3    3    0    0  0.35922038643E+02 -0.75415831050E+02  0.10811266694E+03  0.13662462877E+03  0.00000000000E+00 0.  1.
<mgrwt>
<rscale>  0 0.15215015E+03</rscale>
<asrwt>0</asrwt>
<pdfrwt beam="1">  1        2 0.81068885E-01 0.15860659E+03</pdfrwt>
<pdfrwt beam="2">  1       -2 0.64995769E-02 0.15860659E+03</pdfrwt>
<totfact> 0.74162694E+03</totfact>
</mgrwt>
</event>
<event>
 7    1  0.5107591E-006  0.1296500E+03  0.7546771E-02  0.1241878E+00
         -4   -1    0    0    0  501 -0.00000000000E+00  0.00000000000E+00  0.42662694819E+03  0.42662694819E+03  0.00000000000E+00 0.  1.
          4   -1    0    0  501    0  0.00000000000E+00 -0.00000000000E+00 -0.50625987390E+02  0.50625987390E+02  0.00000000000E+00 0. -1.
         23    2    1    2    0    0 -0.75101900374E+01 -0.33582857809E+02  0.21610131596E+02  0.99891076280E+02  0.91252496074E+02 0.  0.
          5    1    1    2  502    0  0.30688697790E+02 -0.37583623514E+02  0.19810371376E+03  0.20401347097E+03  0.47000000000E+01 0. -1.
         -5    1    1    2    0  502 -0.23178507753E+02  0.71166481323E+02  0.15628711544E+03  0.17334838834E+03  0.47000000000E+01 0. -1.
        -11    1    3    3    0    0  0.37321675410E+02 -0.21903600704E+02  0.30203811010E+02  0.52772581695E+02  0.00000000000E+00 0.  1.
         11    1    3    3    0    0 -0.44831865448E+02 -0.11679257105E+02 -0.85936794139E+01  0.47118494585E+02  0.00000000000E+00 0. -1.
<mgrwt>
<rscale>  0 0.12074214E+03</rscale>
<asrwt>0</asrwt>
<pdfrwt beam="2">  1        4 0.77886137E-02 0.12964996E+03</pdfrwt>
<pdfrwt beam="1">  1       -4 0.65634913E-01 0.12964996E+03</pdfrwt>
<totfact> 0.41679859E+02</totfact>
</mgrwt>
</event>
<event>
 6    1  0.9761189E-005  0.1294410E+03  0.7546771E-02  0.1277166E+00
          2   -1    0    0  501    0  0.00000000000E+00  0.00000000000E+00  0.56762002912E+01  0.56762002912E+01  0.00000000000E+00 0. -1.
         -2   -1    0    0    0  501 -0.00000000000E+00 -0.00000000000E+00 -0.18126753649E+04  0.18126753649E+04  0.00000000000E+00 0.  1.
          5    1    1    2  502    0 -0.21169124769E+02  0.61891145683E+02 -0.42768487667E+03  0.43268359051E+03  0.47000000000E+01 0. -1.
         -5    1    1    2    0  502  0.87253107652E+01 -0.17926724462E+02 -0.11884967025E+04  0.11886732101E+04  0.47000000000E+01 0.  1.
        -11    1    1    2    0    0 -0.12485666755E+01 -0.27375060018E+02 -0.10340871634E+03  0.10697810731E+03  0.00000000000E+00 0. -1.
         11    1    1    2    0    0  0.13692380680E+02 -0.16589361202E+02 -0.87408869057E+02  0.90016657256E+02  0.00000000000E+00 0.  1.
<mgrwt>
<rscale>  0 0.10150336E+03</rscale>
<asrwt>0</asrwt>
<pdfrwt beam="1">  1        2 0.87326087E-03 0.12944102E+03</pdfrwt>
<pdfrwt beam="2">  1       -2 0.27887336E+00 0.12944102E+03</pdfrwt>
<totfact> 0.82650687E+02</totfact>
</mgrwt>
</event>
<event>
 7    1  0.5107591E-006  0.1374403E+03  0.7546771E-02  0.1230368E+00
          1   -1    0    0  501    0  0.00000000000E+00  0.00000000000E+00  0.17093741563E+03  0.17093741563E+03  0.00000000000E+00 0. -1.
         -1   -1    0    0    0  501 -0.00000000000E+00 -0.00000000000E+00 -0.88172155410E+02  0.88172155410E+02  0.00000000000E+00 0.  1.
         23    2    1    2    0    0  0.21954234282E+01 -0.57046461103E+02  0.60282316592E+02  0.11984252846E+03  0.86424275100E+02 0.  0.
          5    1    1    2  502    0 -0.16233189394E+02  0.23274447910E+02 -0.50148390249E+02  0.57811481628E+02  0.47000000000E+01 0. -1.
         -5    1    1    2    0  502  0.14037765965E+02  0.33772013194E+02  0.72631333878E+02  0.81455560948E+02  0.47000000000E+01 0. -1.
        -11    1    3    3    0    0  0.26138893672E+02  0.11515368448E+02  0.29203018416E+02  0.40849256511E+02  0.00000000000E+00 0. -1.
         11    1    3    3    0    0 -0.23943470244E+02 -0.68561829552E+02  0.31079298176E+02  0.78993271953E+02  0.00000000000E+00 0.  1.
<mgrwt>
<rscale>  0 0.12805653E+03</rscale>
<asrwt>0</asrwt>
<pdfrwt beam="1">  1        1 0.26298064E-01 0.13744026E+03</pdfrwt>
<pdfrwt beam="2">  1       -1 0.13564947E-01 0.13744026E+03</pdfrwt>
<totfact> 0.64351257E+03</totfact>
</mgrwt>
</event>
<event>
 7    1  0.5107591E-006  0.1914684E+03  0.7546771E-02  0.1162007E+00
          1   -1    0    0  501    0  0.00000000000E+00  0.00000000000E+00  0.53517533799E+03  0.53517533799E+03  0.00000000000E+00 0. -1.
         -1   -1    0    0    0  501 -0.00000000000E+00 -0.00000000000E+00 -0.61360863159E+02  0.61360863159E+02  0.00000000000E+00 0.  1.
         23    2    1    2    0    0  0.12838834979E+03 -0.67479758214E+02  0.22279596112E+03  0.28082994508E+03  0.90500451014E+02 0.  0.
          5    1    1    2  502    0 -0.15540404105E+02 -0.17498834280E+02  0.12206262138E+03  0.12437478402E+03  0.47000000000E+01 0. -1.
         -5    1    1    2    0  502 -0.11284794569E+03  0.84978592495E+02  0.12895589233E+03  0.19133147205E+03  0.47000000000E+01 0. -1.
        -11    1    3    3    0    0  0.84974156530E+02 -0.11771233509E+02  0.63977768454E+02  0.10701553192E+03  0.00000000000E+00 0. -1.
         11    1    3    3    0    0  0.43414193264E+02 -0.55708524705E+02  0.15881819266E+03  0.17381441316E+03  0.00000000000E+00 0.  1.
<mgrwt>
<rscale>  0 0.18612154E+03</rscale>
<asrwt>0</asrwt>
<pdfrwt beam="1">  1        1 0.82334664E-01 0.19146839E+03</pdfrwt>
<pdfrwt beam="2">  1       -1 0.94401331E-02 0.19146839E+03</pdfrwt>
<totfact> 0.27129166E+03</totfact>
</mgrwt>
</event>
<event>
 7    1  0.5107591E-006  0.1655301E+03  0.7546771E-02  0.1189610E+00
          2   -1    0    0  501    0  0.00000000000E+00  0.00000000000E+00  0.32373490743E+03  0.32373490743E+03  0.00000000000E+00 0. -1.
         -2   -1    0    0    0  501 -0.00000000000E+00 -0.00000000000E+00 -0.11422031398E+03  0.11422031398E+03  0.00000000000E+00 0.  1.
         23    2    1    2    0    0  0.10356579179E+03 -0.32390397197E+02  0.23109001786E+03  0.27102497568E+03  0.90977634780E+02 0.  0.
          5    1    1    2  502    0 -0.38059083390E+02  0.19145513315E+02 -0.71509789234E+02  0.83371364778E+02  0.47000000000E+01 0. -1.
         -5    1    1    2    0  502 -0.65506708398E+02  0.13244883882E+02  0.49934364828E+02  0.83558880946E+02  0.47000000000E+01 0. -1.
        -11    1    3    3    0    0  0.46687328045E+02 -0.54158008275E+02  0.75721750253E+02  0.10414691508E+03  0.00000000000E+00 0.  1.
         11    1    3    3    0    0  0.56878463743E+02  0.21767611078E+02  0.15536826760E+03  0.16687806060E+03  0.00000000000E+00 0. -1.
<mgrwt>
<rscale>  0 0.15919420E+03</rscale>
<asrwt>0</asrwt>
<pdfrwt beam="1">  1        2 0.49805370E-01 0.16553008E+03</pdfrwt>
<pdfrwt beam="2">  1       -2 0.17572356E-01 0.16553008E+03</pdfrwt>
<totfact> 0.25870053E+03</totfact>
</mgrwt>
</event>
<event>
 7    1  0.5107591E-006  0.1259626E+03  0.7546771E-02  0.1239293E+00
         -2   -1    0    0    0  501 -0.00000000000E+00  0.00000000000E+00  0.31126214691E+02  0.31126214691E+02  0.00000000000E+00 0.  1.
          2   -1    0    0  501    0  0.00000000000E+00 -0.00000000000E+00 -0.53169277761E+03  0.53169277761E+03  0.00000000000E+00 0. -1.
         23    2    1    2    0    0 -0.36437486195E+02 -0.44141040422E+02 -0.34444662688E+03  0.36221986828E+03  0.96351607969E+02 0.  0.
          5    1    1    2  502    0 -0.40146897000E+02  0.10384350531E+02 -0.59615353894E+02  0.72771481327E+02  0.47000000000E+01 0. -1.
         -5    1    1    2    0  502  0.76584383195E+02  0.33756689891E+02 -0.96504582151E+02  0.12782764270E+03  0.47000000000E+01 0.  1.
        -11    1    3    3    0    0 -0.56600457688E+01  0.11807753798E+02 -0.12730896952E+01  0.13155984388E+02  0.00000000000E+00 0.  1.
         11    1    3    3    0    0 -0.30777440426E+02 -0.55948794220E+02 -0.34317353718E+03  0.34906388389E+03  0.00000000000E+00 0. -1.
<mgrwt>
<rscale>  0 0.12233587E+03</rscale>
<asrwt>0</asrwt>
<pdfrwt beam="2">  1        2 0.81798882E-01 0.12596259E+03</pdfrwt>
<pdfrwt beam="1">  1       -2 0.47886488E-02 0.12596259E+03</pdfrwt>
<totfact> 0.11479137E+04</totfact>
</mgrwt>
</event>
<event>
 7    1  0.5107591E-006  0.1586827E+03  0.7546771E-02  0.1197704E+00
         -1   -1    0    0    0  501 -0.00000000000E+00  0.00000000000E+00  0.20442235126E+03  0.20442235126E+03  0.00000000000E+00 0.  1.
          1   -1    0    0  501    0  0.00000000000E+00 -0.00000000000E+00 -0.16005116883E+03  0.16005116883E+03  0.00000000000E+00 0. -1.
         23    2    1    2    0    0  0.92182211563E+02  0.32511017587E+02 -0.85490968215E+02  0.15942624746E+03  0.92485114157E+02 0.  0.
          5    1    1    2  502    0 -0.51811972514E+02 -0.55723298995E+02  0.10647866701E+02  0.76974239925E+02  0.47000000000E+01 0.  1.
         -5    1    1    2    0  502 -0.40370239049E+02  0.23212281408E+02  0.11921428394E+03  0.12807303270E+03  0.47000000000E+01 0.  1.
        -11    1    3    3    0    0 -0.53995918166E+01  0.14721436626E+02  0.12456621553E+02  0.20026075717E+02  0.00000000000E+00 0.  1.
         11    1    3    3    0    0  0.97581803380E+02  0.17789580962E+02 -0.97947589768E+02  0.13940017175E+03  0.00000000000E+00 0. -1.
<mgrwt>
<rscale>  0 0.15227588E+03</rscale>
<asrwt>0</asrwt>
<pdfrwt beam="2">  1        1 0.24623257E-01 0.15868272E+03</pdfrwt>
<pdfrwt beam="1">  1       -1 0.31449592E-01 0.15868272E+03</pdfrwt>
<totfact> 0.18059789E+03</totfact>
</mgrwt>
</event>
<event>
 7    1  0.5107591E-006  0.1322461E+03  0.7546771E-02  0.1236809E+00
          1   -1    0    0  501    0  0.00000000000E+00  0.00000000000E+00  0.37483546677E+02  0.37483546677E+02  0.00000000000E+00 0. -1.
         -1   -1    0    0    0  501 -0.00000000000E+00 -0.00000000000E+00 -0.38744367860E+03  0.38744367860E+03  0.00000000000E+00 0.  1.
         23    2    1    2    0    0 -0.39705384265E+02  0.16989587255E+02 -0.10346818389E+03  0.14520002882E+03  0.92261691271E+02 0.  0.
          5    1    1    2  502    0  0.13593151999E+02  0.60862904958E+01 -0.24397489921E+03  0.24447424846E+03  0.47000000000E+01 0. -1.
         -5    1    1    2    0  502  0.26112232266E+02 -0.23075877751E+02 -0.25170488175E+01  0.35252947999E+02  0.47000000000E+01 0. -1.
        -11    1    3    3    0    0  0.13682006251E+02  0.19900268399E+02 -0.85421767555E+02  0.88769906779E+02  0.00000000000E+00 0.  1.
         11    1    3    3    0    0 -0.53387390515E+02 -0.29106811441E+01 -0.18046416337E+02  0.56430122039E+02  0.00000000000E+00 0. -1.
<mgrwt>
<rscale>  0 0.12389337E+03</rscale>
<asrwt>0</asrwt>
<pdfrwt beam="1">  1        1 0.57666995E-02 0.13224607E+03</pdfrwt>
<pdfrwt beam="2">  1       -1 0.59606720E-01 0.13224607E+03</pdfrwt>
<totfact> 0.38480869E+03</totfact>
</mgrwt>
</event>
<event>
 7    1  0.5107591E-006  0.1315740E+03  0.7546771E-02  0.1236992E+00
          1   -1    0    0  501    0  0.00000000000E+00  0.00000000000E+00  0.16111018685E+03  0.16111018685E+03  0.00000000000E+00 0. -1.
         -1   -1    0    0    0  501 -0.00000000000E+00 -0.00000000000E+00 -0.10232225859E+03  0.10232225859E+03  0.00000000000E+00 0.  1.
         23    2    1    2    0    0  0.38943697673E+02  0.12899749314E+02  0.79608996386E+02  0.13022124081E+03  0.94535517835E+02 0.  0.
          5    1    1    2  502    0 -0.27550008891E+02  0.52673294683E+02 -0.28426567956E+02  0.66057843807E+02  0.47000000000E+01 0.  1.
         -5    1    1    2    0  502 -0.11393688782E+02 -0.65573043997E+02  0.76054998303E+01  0.67153360830E+02  0.47000000000E+01 0.  1.
        -11    1    3    3    0    0  0.31018442334E+02  0.53245555489E+02  0.52683708735E+02  0.81072844469E+02  0.00000000000E+00 0.  1.
         11    1    3    3    0    0  0.79252553388E+01 -0.40345806175E+02  0.26925287650E+02  0.49148396343E+02  0.00000000000E+00 0. -1.
<mgrwt>
<rscale>  0 0.12377785E+03</rscale>
<asrwt>0</asrwt>
<pdfrwt beam="1">  1        1 0.24786183E-01 0.13157396E+03</pdfrwt>
<pdfrwt beam="2">  1       -1 0.15741886E-01 0.13157396E+03</pdfrwt>
<totfact> 0.54762418E+03</totfact>
</mgrwt>
</event>
<event>
 7    1  0.5107591E-006  0.1464832E+03  0.7546771E-02  0.1214623E+00
          1   -1    0    0  501    0  0.00000000000E+00  0.00000000000E+00  0.15363444172E+03  0.15363444172E+03  0.00000000000E+00 0. -1.
         -1   -1    0    0    0  501 -0.00000000000E+00 -0.00000000000E+00 -0.12003195334E+03  0.12003195334E+03  0.00000000000E+00 0.  1.
         23    2    1    2    0    0  0.18740742275E+02  0.74035223904E+02  0.44056141419E+02  0.12681065790E+03  0.91145869687E+02 0.  0.
          5    1    1    2  502    0  0.46306972093E+02 -0.58129715966E+02  0.13303469558E+02  0.75647021388E+02  0.47000000000E+01 0.  1.
         -5    1    1    2    0  502 -0.65047714368E+02 -0.15905507939E+02 -0.23757122595E+02  0.71208715768E+02  0.47000000000E+01 0.  1.
        -11    1    3    3    0    0 -0.19658440251E+02  0.35014660296E+02 -0.18044978477E+02  0.44023879395E+02  0.00000000000E+00 0.  1.
         11    1    3    3    0    0  0.38399182526E+02  0.39020563609E+02  0.62101119897E+02  0.82786778506E+02  0.00000000000E+00 0. -1.
<mgrwt>
<rscale>  0 0.13904233E+03</rscale>
<asrwt>0</asrwt>
<pdfrwt beam="1">  1        1 0.23636068E-01 0.14648320E+03</pdfrwt>
<pdfrwt beam="2">  1       -1 0.18466454E-01 0.14648320E+03</pdfrwt>
<totfact> 0.45440921E+03</totfact>
</mgrwt>
</event>
<event>
 7    1  0.5107591E-006  0.2031263E+03  0.7546771E-02  0.1151212E+00
         -3   -1    0    0    0  501 -0.00000000000E+00  0.00000000000E+00  0.54842339391E+02  0.54842339391E+02  0.00000000000E+00 0.  1.
          3   -1    0    0  501    0  0.00000000000E+00 -0.00000000000E+00 -0.69472030369E+03  0.69472030369E+03  0.00000000000E+00 0. -1.
         23    2    1    2    0    0  0.82328880631E+02  0.13731495610E+03 -0.35017731251E+03  0.39574522839E+03  0.91414954117E+02 0.  0.
          5    1    1    2  502    0  0.28673754631E+02 -0.70291522533E+01 -0.62878526985E+02  0.69623216975E+02  0.47000000000E+01 0.  1.
         -5    1    1    2    0  502 -0.11100263526E+03 -0.13028580385E+03 -0.22682212480E+03  0.28419419772E+03  0.47000000000E+01 0.  1.
        -11    1    3    3    0    0 -0.14288437503E+02  0.50608261020E+02 -0.12864109398E+03  0.13897440984E+03  0.00000000000E+00 0.  1.
         11    1    3    3    0    0  0.96617318134E+02  0.86706695082E+02 -0.22153621853E+03  0.25677081855E+03  0.00000000000E+00 0. -1.
<mgrwt>
<rscale>  0 0.19826394E+03</rscale>
<asrwt>0</asrwt>
<pdfrwt beam="2">  1        3 0.10688004E+00 0.20312630E+03</pdfrwt>
<pdfrwt beam="1">  1       -3 0.84372835E-02 0.20312630E+03</pdfrwt>
<totfact> 0.18599259E+02</totfact>
</mgrwt>
</event>
<event>
 7    1  0.5107591E-006  0.1709843E+03  0.7546771E-02  0.1183279E+00
          2   -1    0    0  501    0  0.00000000000E+00  0.00000000000E+00  0.17880037702E+03  0.17880037702E+03  0.00000000000E+00 0. -1.
         -2   -1    0    0    0  501 -0.00000000000E+00 -0.00000000000E+00 -0.18217496783E+03  0.18217496783E+03  0.00000000000E+00 0.  1.
         23    2    1    2    0    0 -0.67276746584E+02  0.95317659251E+02  0.82805217711E+02  0.16950056604E+03  0.90896210105E+02 0.  0.
          5    1    1    2  502    0  0.57518017458E+02  0.91372726923E+01 -0.58921419716E+02  0.82979731175E+02  0.47000000000E+01 0.  1.
         -5    1    1    2    0  502  0.97587291261E+01 -0.10445493194E+03 -0.27258388812E+02  0.10849504764E+03  0.47000000000E+01 0.  1.
        -11    1    3    3    0    0 -0.51353819972E+02  0.34054875698E+02 -0.43636315801E+01  0.61773705288E+02  0.00000000000E+00 0.  1.
         11    1    3    3    0    0 -0.15922926613E+02  0.61262783553E+02  0.87168849291E+02  0.10772686075E+03  0.00000000000E+00 0. -1.
<mgrwt>
<rscale>  0 0.16489503E+03</rscale>
<asrwt>0</asrwt>
<pdfrwt beam="1">  1        2 0.27507750E-01 0.17098430E+03</pdfrwt>
<pdfrwt beam="2">  1       -2 0.28026918E-01 0.17098430E+03</pdfrwt>
<totfact> 0.21932552E+03</totfact>
</mgrwt>
</event>
<event>
 7    1  0.5107591E-006  0.1379319E+03  0.7546771E-02  0.1228058E+00
          3   -1    0    0  501    0  0.00000000000E+00  0.00000000000E+00  0.21616995586E+03  0.21616995586E+03  0.00000000000E+00 0. -1.
         -3   -1    0    0    0  501 -0.00000000000E+00 -0.00000000000E+00 -0.83908476644E+02  0.83908476644E+02  0.00000000000E+00 0.  1.
         23    2    1    2    0    0 -0.63123298463E+01 -0.58021909698E+02  0.12075873719E+03  0.16166770963E+03  0.90262883934E+02 0.  0.
          5    1    1    2  502    0  0.28845830782E+02  0.84191496269E+02  0.35675994331E+02  0.95995607030E+02  0.47000000000E+01 0. -1.
         -5    1    1    2    0  502 -0.22533500935E+02 -0.26169586571E+02 -0.24173252300E+02  0.42415115849E+02  0.47000000000E+01 0. -1.
        -11    1    3    3    0    0 -0.17313564490E+02 -0.55829793124E+02  0.13287035274E+03  0.14515941565E+03  0.00000000000E+00 0. -1.
         11    1    3    3    0    0  0.11001234644E+02 -0.21921165741E+01 -0.12111615550E+02  0.16508293976E+02  0.00000000000E+00 0.  1.
<mgrwt>
<rscale>  0 0.12959525E+03</rscale>
<asrwt>0</asrwt>
<pdfrwt beam="1">  1        3 0.33256916E-01 0.13793192E+03</pdfrwt>
<pdfrwt beam="2">  1       -3 0.12908996E-01 0.13793192E+03</pdfrwt>
<totfact> 0.98207798E+02</totfact>
</mgrwt>
</event>
<event>
 7    1  0.5107591E-006  0.2689278E+03  0.7546771E-02  0.1104027E+00
          1   -1    0    0  501    0  0.00000000000E+00  0.00000000000E+00  0.14233617721E+04  0.14233617721E+04  0.00000000000E+00 0. -1.
         -1   -1    0    0    0  501 -0.00000000000E+00 -0.00000000000E+00 -0.49443707659E+02  0.49443707659E+02  0.00000000000E+00 0.  1.
         23    2    1    2    0    0 -0.22475014823E+03 -0.78639846507E+02  0.78870856997E+03  0.82876177053E+03  0.89933360670E+02 0.  0.
          5    1    1    2  502    0  0.49288504688E+02  0.63768502342E+02  0.28251194418E+03  0.29382114830E+03  0.47000000000E+01 0.  1.
         -5    1    1    2    0  502  0.17546164354E+03  0.14871344164E+02  0.30269755033E+03  0.35022256096E+03  0.47000000000E+01 0.  1.
        -11    1    3    3    0    0 -0.31519680288E+02 -0.43141722111E+02  0.24189539635E+03  0.24772581861E+03  0.00000000000E+00 0. -1.
         11    1    3    3    0    0 -0.19323046794E+03 -0.35498124395E+02  0.54681317362E+03  0.58103595192E+03  0.00000000000E+00 0.  1.
<mgrwt>
<rscale>  0 0.26525339E+03</rscale>
<asrwt>0</asrwt>
<pdfrwt beam="1">  1        1 0.21897870E+00 0.26892777E+03</pdfrwt>
<pdfrwt beam="2">  1       -1 0.76067253E-02 0.26892777E+03</pdfrwt>
<totfact> 0.75004239E+02</totfact>
</mgrwt>
</event>
<event>
 7    1  0.5107591E-006  0.2089102E+03  0.7546771E-02  0.1145250E+00
          2   -1    0    0  501    0  0.00000000000E+00  0.00000000000E+00  0.52060387113E+03  0.52060387113E+03  0.00000000000E+00 0. -1.
         -2   -1    0    0    0  501 -0.00000000000E+00 -0.00000000000E+00 -0.91093131261E+02  0.91093131261E+02  0.00000000000E+00 0.  1.
         23    2    1    2    0    0  0.16447974453E+03  0.31040078827E+02  0.32240519518E+03  0.37693098985E+03  0.10057230423E+03 0.  0.
          5    1    1    2  502    0 -0.17732605956E+03 -0.27488112419E+02  0.65926011181E+02  0.19122880712E+03  0.47000000000E+01 0. -1.
         -5    1    1    2    0  502  0.12846315026E+02 -0.35519664081E+01  0.41179533510E+02  0.43537205413E+02  0.47000000000E+01 0. -1.
        -11    1    3    3    0    0  0.72247980849E+02 -0.20056411087E+02  0.66754658839E+02  0.10039031248E+03  0.00000000000E+00 0. -1.
         11    1    3    3    0    0  0.92231763686E+02  0.51096489914E+02  0.25565053634E+03  0.27654067738E+03  0.00000000000E+00 0.  1.
<mgrwt>
<rscale>  0 0.20541435E+03</rscale>
<asrwt>0</asrwt>
<pdfrwt beam="1">  1        2 0.80092902E-01 0.20891023E+03</pdfrwt>
<pdfrwt beam="2">  1       -2 0.14014328E-01 0.20891023E+03</pdfrwt>
<totfact> 0.22600951E+03</totfact>
</mgrwt>
</event>
<event>
 7    1  0.5107591E-006  0.1545495E+03  0.7546771E-02  0.1203535E+00
          1   -1    0    0  501    0  0.00000000000E+00  0.00000000000E+00  0.11516142965E+03  0.11516142965E+03  0.00000000000E+00 0. -1.
         -1   -1    0    0    0  501 -0.00000000000E+00 -0.00000000000E+00 -0.21197530900E+03  0.21197530900E+03  0.00000000000E+00 0.  1.
         23    2    1    2    0    0  0.14716977900E+02 -0.89640739351E+02  0.24500286843E+02  0.13066112319E+03  0.90664289928E+02 0.  0.
          5    1    1    2  502    0 -0.34803569732E+02 -0.10635277081E+01 -0.92728434687E+02  0.99161848292E+02  0.47000000000E+01 0.  1.
         -5    1    1    2    0  502  0.20086591831E+02  0.90704267059E+02 -0.28585731513E+02  0.97313767167E+02  0.47000000000E+01 0.  1.
        -11    1    3    3    0    0  0.90417400113E+00 -0.15547539344E+02 -0.32583449622E+02  0.36114051276E+02  0.00000000000E+00 0.  1.
         11    1    3    3    0    0  0.13812803899E+02 -0.74093200007E+02  0.57083736465E+02  0.94547071915E+02  0.00000000000E+00 0. -1.
<mgrwt>
<rscale>  0 0.14753469E+03</rscale>
<asrwt>0</asrwt>
<pdfrwt beam="1">  1        1 0.17717143E-01 0.15454948E+03</pdfrwt>
<pdfrwt beam="2">  1       -1 0.32611586E-01 0.15454948E+03</pdfrwt>
<totfact> 0.25792046E+03</totfact>
</mgrwt>
</event>
<event>
 6    1  0.5107591E-006  0.1634812E+03  0.7546771E-02  0.1203283E+00
         -1   -1    0    0    0  501 -0.00000000000E+00  0.00000000000E+00  0.25562872512E+03  0.25562872512E+03  0.00000000000E+00 0.  1.
          1   -1    0    0  501    0  0.00000000000E+00 -0.00000000000E+00 -0.73082896825E+02  0.73082896825E+02  0.00000000000E+00 0. -1.
          5    1    1    2  502    0  0.33436619654E+01  0.96729412354E+02  0.16874119378E+02  0.98359469267E+02  0.47000000000E+01 0. -1.
         -5    1    1    2    0  502 -0.11987829629E+00  0.85760933838E+01  0.10524210827E+03  0.10569557749E+03  0.47000000000E+01 0. -1.
        -11    1    1    2    0    0  0.11726567866E+02 -0.59621527709E+02  0.29997026336E+02  0.67764744147E+02  0.00000000000E+00 0. -1.
         11    1    1    2    0    0 -0.14950351535E+02 -0.45683978029E+02  0.30432574310E+02  0.56891831036E+02  0.00000000000E+00 0.  1.
<mgrwt>
<rscale>  0 0.14773630E+03</rscale>
<asrwt>0</asrwt>
<pdfrwt beam="2">  1        1 0.11243523E-01 0.16348116E+03</pdfrwt>
<pdfrwt beam="1">  1       -1 0.39327496E-01 0.16348116E+03</pdfrwt>
<totfact> 0.33867282E+03</totfact>
</mgrwt>
</event>
<event>
 7    1  0.5107591E-006  0.1111926E+03  0.7546771E-02  0.1292745E+00
         -1   -1    0    0    0  501 -0.00000000000E+00  0.00000000000E+00  0.12980089723E+02  0.12980089723E+02  0.00000000000E+00 0.  1.
          1   -1    0    0  501    0  0.00000000000E+00 -0.00000000000E+00 -0.56088414524E+03  0.56088414524E+03  0.00000000000E+00 0. -1.
         23    2    1    2    0    0  0.43714664446E+00  0.31282533113E+01 -0.22953224844E+03  0.23663373252E+03  0.57449919286E+02 0.  0.
          5    1    1    2  502    0  0.69395343475E+01 -0.38640392313E+02 -0.39214436406E+02  0.55687512763E+02  0.47000000000E+01 0. -1.
         -5    1    1    2    0  502 -0.73766809920E+01  0.35512139002E+02 -0.27915737067E+03  0.28154298968E+03  0.47000000000E+01 0.  1.
        -11    1    3    3    0    0  0.14461755461E+02 -0.22573725011E+02 -0.13631899718E+03  0.13893014224E+03  0.00000000000E+00 0. -1.
         11    1    3    3    0    0 -0.14024608816E+02  0.25701978322E+02 -0.93213251267E+02  0.97703590281E+02  0.00000000000E+00 0.  1.
<mgrwt>
<rscale>  0 0.94306854E+02</rscale>
<asrwt>0</asrwt>
<pdfrwt beam="2">  1        1 0.86289851E-01 0.11119264E+03</pdfrwt>
<pdfrwt beam="1">  1       -1 0.19969373E-02 0.11119264E+03</pdfrwt>
<totfact> 0.24466523E+04</totfact>
</mgrwt>
</event>
<event>
 7    1  0.5107591E-006  0.1229191E+03  0.7546771E-02  0.1250361E+00
         -4   -1    0    0    0  501 -0.00000000000E+00  0.00000000000E+00  0.19193619910E+03  0.19193619910E+03  0.00000000000E+00 0. -1.
          4   -1    0    0  501    0  0.00000000000E+00 -0.00000000000E+00 -0.63783072317E+02  0.63783072317E+02  0.00000000000E+00 0.  1.
         23    2    1    2    0    0 -0.20076839525E+02  0.23962558811E+02  0.39995947126E+02  0.10445529252E+03  0.91290463017E+02 0.  0.
          5    1    1    2  502    0 -0.92481804183E+01 -0.45671384657E+02  0.10177719878E+03  0.11203612100E+03  0.47000000000E+01 0. -1.
         -5    1    1    2    0  502  0.29325019943E+02  0.21708825846E+02 -0.13620019126E+02  0.39227857898E+02  0.47000000000E+01 0.  1.
        -11    1    3    3    0    0  0.18982720486E+02  0.44500733933E+02  0.60040709131E+01  0.48751490902E+02  0.00000000000E+00 0.  1.
         11    1    3    3    0    0 -0.39059560012E+02 -0.20538175123E+02  0.33991876213E+02  0.55703801613E+02  0.00000000000E+00 0. -1.
<mgrwt>
<rscale>  0 0.11570188E+03</rscale>
<asrwt>0</asrwt>
<pdfrwt beam="2">  1        4 0.98127804E-02 0.12291909E+03</pdfrwt>
<pdfrwt beam="1">  1       -4 0.29528646E-01 0.12291909E+03</pdfrwt>
<totfact> 0.13834016E+03</totfact>
</mgrwt>
</event>
<event>
 7    1  0.5107591E-006  0.2397258E+03  0.7546771E-02  0.1122739E+00
         -2   -1    0    0    0  501 -0.00000000000E+00  0.00000000000E+00  0.71118645363E+02  0.71118645363E+02  0.00000000000E+00 0.  1.
          2   -1    0    0  501    0  0.00000000000E+00 -0.00000000000E+00 -0.11097676689E+04  0.11097676689E+04  0.00000000000E+00 0. -1.
         23    2    1    2    0    0 -0.11155029267E+03 -0.17146604915E+03 -0.84078729344E+03  0.87005239162E+03  0.90685266413E+02 0.  0.
          5    1    1    2  502    0  0.10955210136E+03  0.12124394622E+03 -0.78723637752E+02  0.18144216309E+03  0.47000000000E+01 0.  1.
         -5    1    1    2    0  502  0.19981913045E+01  0.50222102936E+02 -0.11913809237E+03  0.12939175957E+03  0.47000000000E+01 0.  1.
        -11    1    3    3    0    0 -0.10743068526E+02 -0.10848693382E+02 -0.10860267718E+02  0.18736410659E+02  0.00000000000E+00 0.  1.
         11    1    3    3    0    0 -0.10080722414E+03 -0.16061735577E+03 -0.82992702572E+03  0.85131598096E+03  0.00000000000E+00 0. -1.
<mgrwt>
<rscale>  0 0.23563023E+03</rscale>
<asrwt>0</asrwt>
<pdfrwt beam="2">  1        2 0.17073348E+00 0.23972581E+03</pdfrwt>
<pdfrwt beam="1">  1       -2 0.10941331E-01 0.23972581E+03</pdfrwt>
<totfact> 0.12966362E+03</totfact>
</mgrwt>
</event>
<event>
 7    1  0.5107591E-006  0.1258160E+03  0.7546771E-02  0.1250240E+00
         -2   -1    0    0    0  501 -0.00000000000E+00  0.00000000000E+00  0.28784053956E+02  0.28784053956E+02  0.00000000000E+00 0.  1.
          2   -1    0    0  501    0  0.00000000000E+00 -0.00000000000E+00 -0.40760908586E+03  0.40760908586E+03  0.00000000000E+00 0. -1.
         23    2    1    2    0    0  0.14264165458E+02 -0.28799386021E+00 -0.17462847220E+03  0.19654757718E+03  0.89063446118E+02 0.  0.
          5    1    1    2  502    0  0.30967761733E+02 -0.47806268988E+02 -0.11850725334E+03  0.13156937605E+03  0.47000000000E+01 0.  1.
         -5    1    1    2    0  502 -0.45231927192E+02  0.48094262848E+02 -0.85689306366E+02  0.10827618659E+03  0.47000000000E+01 0.  1.
        -11    1    3    3    0    0  0.23574805234E+02  0.19968472473E+02 -0.17123163126E+03  0.17399650249E+03  0.00000000000E+00 0. -1.
         11    1    3    3    0    0 -0.93106397754E+01 -0.20256466333E+02 -0.33968409446E+01  0.22551074691E+02  0.00000000000E+00 0.  1.
<mgrwt>
<rscale>  0 0.11577164E+03</rscale>
<asrwt>0</asrwt>
<pdfrwt beam="2">  1        2 0.62709088E-01 0.12581597E+03</pdfrwt>
<pdfrwt beam="1">  1       -2 0.44283161E-02 0.12581597E+03</pdfrwt>
<totfact> 0.17209397E+04</totfact>
</mgrwt>
</event>
<event>
 7    1  0.5107591E-006  0.1675738E+03  0.7546771E-02  0.1187285E+00
         -1   -1    0    0    0  501 -0.00000000000E+00  0.00000000000E+00  0.58422960190E+02  0.58422960190E+02  0.00000000000E+00 0.  1.
          1   -1    0    0  501    0  0.00000000000E+00 -0.00000000000E+00 -0.43528028122E+03  0.43528028122E+03  0.00000000000E+00 0. -1.
         23    2    1    2    0    0  0.89639510500E+02 -0.66487135753E+02 -0.22830519995E+03  0.26976415764E+03  0.90518812199E+02 0.  0.
          5    1    1    2  502    0 -0.11252988536E+03  0.20621981611E+02 -0.87649344196E+02  0.14419687501E+03  0.47000000000E+01 0. -1.
         -5    1    1    2    0  502  0.22890374858E+02  0.45865154142E+02 -0.60902776893E+02  0.79742208766E+02  0.47000000000E+01 0. -1.
        -11    1    3    3    0    0  0.46601552145E+02 -0.27484894858E+02 -0.19594357615E+03  0.20327569737E+03  0.00000000000E+00 0. -1.
         11    1    3    3    0    0  0.43037958354E+02 -0.39002240895E+02 -0.32361623796E+02  0.66488460268E+02  0.00000000000E+00 0.  1.
<mgrwt>
<rscale>  0 0.16125683E+03</rscale>
<asrwt>0</asrwt>
<pdfrwt beam="2">  1        1 0.66966195E-01 0.16757381E+03</pdfrwt>
<pdfrwt beam="1">  1       -1 0.89881480E-02 0.16757381E+03</pdfrwt>
<totfact> 0.38141683E+03</totfact>
</mgrwt>
</event>
<event>
 7    1  0.5107591E-006  0.1667646E+03  0.7546771E-02  0.1188298E+00
         -1   -1    0    0    0  501 -0.00000000000E+00  0.00000000000E+00  0.44864249257E+02  0.44864249257E+02  0.00000000000E+00 0.  1.
          1   -1    0    0  501    0  0.00000000000E+00 -0.00000000000E+00 -0.55354258044E+03  0.55354258044E+03  0.00000000000E+00 0. -1.
         23    2    1    2    0    0 -0.78293891337E+01  0.11012039658E+03 -0.29238369297E+03  0.32528818358E+03  0.90201870211E+02 0.  0.
          5    1    1    2  502    0  0.86195767868E+01 -0.90411747144E+02 -0.23087701641E+03  0.24814283756E+03  0.47000000000E+01 0.  1.
         -5    1    1    2    0  502 -0.79018765310E+00 -0.19708649435E+02  0.14582378194E+02  0.24975808553E+02  0.47000000000E+01 0.  1.
        -11    1    3    3    0    0 -0.41158743578E+02  0.96326638745E+02 -0.19355766497E+03  0.22008505895E+03  0.00000000000E+00 0.  1.
         11    1    3    3    0    0  0.33329354445E+02  0.13793757835E+02 -0.98826028002E+02  0.10520312464E+03  0.00000000000E+00 0. -1.
<mgrwt>
<rscale>  0 0.16035388E+03</rscale>
<asrwt>0</asrwt>
<pdfrwt beam="2">  1        1 0.85160390E-01 0.16676458E+03</pdfrwt>
<pdfrwt beam="1">  1       -1 0.69021927E-02 0.16676458E+03</pdfrwt>
<totfact> 0.41526913E+03</totfact>
</mgrwt>
</event>
<event>
 7    1  0.5107591E-006  0.1293214E+03  0.7546771E-02  0.1242284E+00
         -4   -1    0    0    0  501 -0.00000000000E+00  0.00000000000E+00  0.30839396467E+02  0.30839396467E+02  0.00000000000E+00 0. -1.
          4   -1    0    0  501    0  0.00000000000E+00 -0.00000000000E+00 -0.41707809574E+03  0.41707809574E+03  0.00000000000E+00 0.  1.
         23    2    1    2    0    0 -0.27278983787E+02 -0.18843691104E+02 -0.17010471170E+03  0.19604864402E+03  0.91652769892E+02 0.  0.
          5    1    1    2  502    0  0.53991120340E+02  0.27840250195E+02 -0.38768977608E+02  0.72216647881E+02  0.47000000000E+01 0. -1.
         -5    1    1    2    0  502 -0.26712136553E+02 -0.89965590917E+01 -0.17736500996E+03  0.17965220030E+03  0.47000000000E+01 0. -1.
        -11    1    3    3    0    0  0.28431920558E+02 -0.28366125020E+02 -0.83125838377E+02  0.92319641253E+02  0.00000000000E+00 0.  1.
         11    1    3    3    0    0 -0.55710904344E+02  0.95224339163E+01 -0.86978873325E+02  0.10372900277E+03  0.00000000000E+00 0. -1.
<mgrwt>
<rscale>  0 0.12049390E+03</rscale>
<asrwt>0</asrwt>
<pdfrwt beam="2">  1        4 0.64165857E-01 0.12932137E+03</pdfrwt>
<pdfrwt beam="1">  1       -4 0.47445228E-02 0.12932137E+03</pdfrwt>
<totfact> 0.97841854E+02</totfact>
</mgrwt>
</event>
<event>
 7    1  0.5107591E-006  0.1319098E+03  0.7546771E-02  0.1237806E+00
          2   -1    0    0  501    0  0.00000000000E+00  0.00000000000E+00  0.62986128617E+03  0.62986128617E+03  0.00000000000E+00 0. -1.
         -2   -1    0    0    0  501 -0.00000000000E+00 -0.00000000000E+00 -0.21454517340E+02  0.21454517340E+02  0.00000000000E+00 0.  1.
         23    2    1    2    0    0  0.41894990481E+02  0.45822316744E+01  0.26283816149E+03  0.28142684046E+03  0.91328967570E+02 0.  0.
          5    1    1    2  502    0 -0.81509839577E+02  0.17145997747E+01  0.15617414829E+03  0.17623634243E+03  0.47000000000E+01 0. -1.
         -5    1    1    2    0  502  0.39614849096E+02 -0.62968314491E+01  0.18939445905E+03  0.19365262062E+03  0.47000000000E+01 0. -1.
        -11    1    3    3    0    0 -0.82503653836E+01 -0.31693242664E+02  0.14120530980E+03  0.14495333620E+03  0.00000000000E+00 0. -1.
         11    1    3    3    0    0  0.50145355864E+02  0.36275474338E+02  0.12163285170E+03  0.13647350426E+03  0.00000000000E+00 0.  1.
<mgrwt>
<rscale>  0 0.12326507E+03</rscale>
<asrwt>0</asrwt>
<pdfrwt beam="1">  1        2 0.96901722E-01 0.13190975E+03</pdfrwt>
<pdfrwt beam="2">  1       -2 0.33006955E-02 0.13190975E+03</pdfrwt>
<totfact> 0.16533458E+04</totfact>
</mgrwt>
</event>
<event>
 7    1  0.5107591E-006  0.1261820E+03  0.7546771E-02  0.1249956E+00
         -4   -1    0    0    0  501 -0.00000000000E+00  0.00000000000E+00  0.93125961409E+03  0.93125961409E+03  0.00000000000E+00 0.  1.
          4   -1    0    0  501    0  0.00000000000E+00 -0.00000000000E+00 -0.12541220849E+02  0.12541220849E+02  0.00000000000E+00 0. -1.
         23    2    1    2    0    0  0.10229068558E+02 -0.13849188022E+02  0.39035765790E+03  0.40058175054E+03  0.88262131938E+02 0.  0.
          5    1    1    2  502    0  0.24059440794E+02  0.62026496616E+02  0.29355112795E+03  0.30103238645E+03  0.47000000000E+01 0. -1.
         -5    1    1    2    0  502 -0.34288509352E+02 -0.48177308594E+02  0.23480960740E+03  0.24218669795E+03  0.47000000000E+01 0. -1.
        -11    1    3    3    0    0 -0.14094240306E+02 -0.46210256633E+02  0.18041133609E+03  0.18676799944E+03  0.00000000000E+00 0.  1.
         11    1    3    3    0    0  0.24323308864E+02  0.32361068611E+02  0.20994632181E+03  0.21381375109E+03  0.00000000000E+00 0. -1.
<mgrwt>
<rscale>  0 0.11593622E+03</rscale>
<asrwt>0</asrwt>
<pdfrwt beam="2">  1        4 0.19294193E-02 0.12618204E+03</pdfrwt>
<pdfrwt beam="1">  1       -4 0.14327066E+00 0.12618204E+03</pdfrwt>
<totfact> 0.63023640E+02</totfact>
</mgrwt>
</event>
<event>
 7    1  0.5107591E-006  0.1330915E+03  0.7546771E-02  0.1235865E+00
         -1   -1    0    0    0  501 -0.00000000000E+00  0.00000000000E+00  0.26103451075E+03  0.26103451075E+03  0.00000000000E+00 0.  1.
          1   -1    0    0  501    0  0.00000000000E+00 -0.00000000000E+00 -0.59724531006E+02  0.59724531006E+02  0.00000000000E+00 0. -1.
         23    2    1    2    0    0 -0.28544136790E+02  0.35699123184E+02  0.34953926805E+02  0.10771519048E+03  0.91058168886E+02 0.  0.
          5    1    1    2  502    0 -0.37994987476E+02 -0.48443360476E+02  0.55405150279E+02  0.82959019552E+02  0.47000000000E+01 0. -1.
         -5    1    1    2    0  502  0.66539124266E+02  0.12744237292E+02  0.11095090266E+03  0.13008483172E+03  0.47000000000E+01 0. -1.
        -11    1    3    3    0    0 -0.29060405226E+01  0.53006576355E+02 -0.91255798160E+01  0.53864816118E+02  0.00000000000E+00 0. -1.
         11    1    3    3    0    0 -0.25638096267E+02 -0.17307453172E+02  0.44079506621E+02  0.53850374367E+02  0.00000000000E+00 0.  1.
<mgrwt>
<rscale>  0 0.12449202E+03</rscale>
<asrwt>0</asrwt>
<pdfrwt beam="2">  1        1 0.91883895E-02 0.13309150E+03</pdfrwt>
<pdfrwt beam="1">  1       -1 0.40159155E-01 0.13309150E+03</pdfrwt>
<totfact> 0.42186225E+03</totfact>
</mgrwt>
</event>
<event>
 7    1  0.5107591E-006  0.3361465E+03  0.7546771E-02  0.1069705E+00
          2   -1    0    0  501    0  0.00000000000E+00  0.00000000000E+00  0.11410707019E+04  0.11410707019E+04  0.00000000000E+00 0.  1.
         -2   -1    0    0    0  501 -0.00000000000E+00 -0.00000000000E+00 -0.10058786878E+03  0.10058786878E+03  0.00000000000E+00 0. -1.
         23    2    1    2    0    0 -0.13562602258E+03 -0.28102293162E+03  0.64864987433E+03  0.72539549616E+03  0.89909177969E+02 0.  0.
          5    1    1    2  502    0  0.13192909187E+03  0.26513025316E+03  0.29526609699E+03  0.41821465117E+03  0.47000000000E+01 0. -1.
         -5    1    1    2    0  502  0.36969307083E+01  0.15892678457E+02  0.96566861829E+02  0.98048423387E+02  0.47000000000E+01 0. -1.
        -11    1    3    3    0    0 -0.94836117423E+02 -0.24867015868E+03  0.58825321197E+03  0.64565670320E+03  0.00000000000E+00 0.  1.
         11    1    3    3    0    0 -0.40789905152E+02 -0.32352772937E+02  0.60396662358E+02  0.79738792962E+02  0.00000000000E+00 0. -1.
<mgrwt>
<rscale>  0 0.33325626E+03</rscale>
<asrwt>0</asrwt>
<pdfrwt beam="1">  1        2 0.17554933E+00 0.33614654E+03</pdfrwt>
<pdfrwt beam="2">  1       -2 0.15475058E-01 0.33614654E+03</pdfrwt>
<totfact> 0.70140665E+02</totfact>
</mgrwt>
</event>
<event>
 7    1  0.5107591E-006  0.2854556E+03  0.7546771E-02  0.1094622E+00
         -2   -1    0    0    0  501 -0.00000000000E+00  0.00000000000E+00  0.17501012731E+03  0.17501012731E+03  0.00000000000E+00 0. -1.
          2   -1    0    0  501    0  0.00000000000E+00 -0.00000000000E+00 -0.56181993618E+03  0.56181993618E+03  0.00000000000E+00 0.  1.
         23    2    1    2    0    0  0.69901360007E+02 -0.24692801608E+03 -0.35868141532E+03  0.44999197853E+03  0.89335199043E+02 0.  0.
          5    1    1    2  502    0 -0.31392653598E+01  0.10655563933E+03 -0.67701874348E+02  0.12637085522E+03  0.47000000000E+01 0. -1.
         -5    1    1    2    0  502 -0.66762094647E+02  0.14037237675E+03  0.39573480808E+02  0.16046722974E+03  0.47000000000E+01 0. -1.
        -11    1    3    3    0    0  0.17487925278E+02 -0.89527898251E+02 -0.62706718378E+02  0.11069419418E+03  0.00000000000E+00 0. -1.
         11    1    3    3    0    0  0.52413434729E+02 -0.15740011783E+03 -0.29597469694E+03  0.33929778435E+03  0.00000000000E+00 0.  1.
<mgrwt>
<rscale>  0 0.28196205E+03</rscale>
<asrwt>0</asrwt>
<pdfrwt beam="2">  1        2 0.86433834E-01 0.28545557E+03</pdfrwt>
<pdfrwt beam="1">  1       -2 0.26924636E-01 0.28545557E+03</pdfrwt>
<totfact> 0.68053204E+02</totfact>
</mgrwt>
</event>
<event>
 7    1  0.5107591E-006  0.1529801E+03  0.7546771E-02  0.1204711E+00
          2   -1    0    0  501    0  0.00000000000E+00  0.00000000000E+00  0.25520512662E+03  0.25520512662E+03  0.00000000000E+00 0. -1.
         -2   -1    0    0    0  501 -0.00000000000E+00 -0.00000000000E+00 -0.85193892290E+02  0.85193892290E+02  0.00000000000E+00 0.  1.
         23    2    1    2    0    0 -0.52075785040E+02  0.71185610118E+02  0.12803021110E+03  0.18176320306E+03  0.94163945092E+02 0.  0.
          5    1    1    2  502    0  0.55144792082E+02 -0.26334337795E+02  0.79156194103E+02  0.10011113078E+03  0.47000000000E+01 0. -1.
         -5    1    1    2    0  502 -0.30690070422E+01 -0.44851272323E+02 -0.37175170876E+02  0.58524685073E+02  0.47000000000E+01 0. -1.
        -11    1    3    3    0    0 -0.23449732338E+02 -0.20791736026E+02  0.20775675137E+02  0.37600730194E+02  0.00000000000E+00 0. -1.
         11    1    3    3    0    0 -0.28626052702E+02  0.91977346144E+02  0.10725453596E+03  0.14416247286E+03  0.00000000000E+00 0.  1.
<mgrwt>
<rscale>  0 0.14660217E+03</rscale>
<asrwt>0</asrwt>
<pdfrwt beam="1">  1        2 0.39262327E-01 0.15298012E+03</pdfrwt>
<pdfrwt beam="2">  1       -2 0.13106753E-01 0.15298012E+03</pdfrwt>
<totfact> 0.53753745E+03</totfact>
</mgrwt>
</event>
<event>
 7    1  0.5107591E-006  0.2713804E+03  0.7546771E-02  0.1102511E+00
          1   -1    0    0  501    0  0.00000000000E+00  0.00000000000E+00  0.48393862542E+03  0.48393862542E+03  0.00000000000E+00 0. -1.
         -1   -1    0    0    0  501 -0.00000000000E+00 -0.00000000000E+00 -0.14461646701E+03  0.14461646701E+03  0.00000000000E+00 0.  1.
         23    2    1    2    0    0 -0.29464440930E+02  0.23907042677E+03  0.15786890370E+03  0.30210051027E+03  0.91210225919E+02 0.  0.
          5    1    1    2  502    0 -0.15728740823E+02 -0.11349251547E+03  0.15077935040E+03  0.18943190560E+03  0.47000000000E+01 0. -1.
         -5    1    1    2    0  502  0.45193181753E+02 -0.12557791131E+03  0.30673904308E+02  0.13702267656E+03  0.47000000000E+01 0. -1.
        -11    1    3    3    0    0 -0.44919794884E+02  0.10585935849E+03  0.11158130485E+03  0.16023226686E+03  0.00000000000E+00 0. -1.
         11    1    3    3    0    0  0.15455353954E+02  0.13321106828E+03  0.46287598849E+02  0.14186824340E+03  0.00000000000E+00 0.  1.
<mgrwt>
<rscale>  0 0.26785978E+03</rscale>
<asrwt>0</asrwt>
<pdfrwt beam="1">  1        1 0.74452096E-01 0.27138038E+03</pdfrwt>
<pdfrwt beam="2">  1       -1 0.22248687E-01 0.27138038E+03</pdfrwt>
<totfact> 0.80020952E+02</totfact>
</mgrwt>
</event>
<event>
 7    1  0.5107591E-006  0.3157927E+03  0.7546771E-02  0.1079031E+00
          2   -1    0    0  501    0  0.00000000000E+00  0.00000000000E+00  0.51973955476E+03  0.51973955476E+03  0.00000000000E+00 0. -1.
         -2   -1    0    0    0  501 -0.00000000000E+00 -0.00000000000E+00 -0.18468012094E+03  0.18468012094E+03  0.00000000000E+00 0.  1.
         23    2    1    2    0    0 -0.11670764907E+03  0.26548370616E+03  0.16572033076E+03  0.34608918097E+03  0.90621297535E+02 0.  0.
          5    1    1    2  502    0  0.68332817875E+02 -0.39724419887E+02  0.74382735842E+02  0.10863832162E+03  0.47000000000E+01 0. -1.
         -5    1    1    2    0  502  0.48374831192E+02 -0.22575928628E+03  0.94956367224E+02  0.24969217310E+03  0.47000000000E+01 0. -1.
        -11    1    3    3    0    0 -0.69198187613E+02  0.87993164128E+02  0.25119256286E+02  0.11472647096E+03  0.00000000000E+00 0.  1.
         11    1    3    3    0    0 -0.47509461453E+02  0.17749054204E+03  0.14060107447E+03  0.23136271001E+03  0.00000000000E+00 0. -1.
<mgrwt>
<rscale>  0 0.31275933E+03</rscale>
<asrwt>0</asrwt>
<pdfrwt beam="1">  1        2 0.79959931E-01 0.31579267E+03</pdfrwt>
<pdfrwt beam="2">  1       -2 0.28412327E-01 0.31579267E+03</pdfrwt>
<totfact> 0.67486528E+02</totfact>
</mgrwt>
</event>
<event>
 7    1  0.5107591E-006  0.1522836E+03  0.7546771E-02  0.1205984E+00
          2   -1    0    0  501    0  0.00000000000E+00  0.00000000000E+00  0.12088777238E+03  0.12088777238E+03  0.00000000000E+00 0. -1.
         -2   -1    0    0    0  501 -0.00000000000E+00 -0.00000000000E+00 -0.19014841652E+03  0.19014841652E+03  0.00000000000E+00 0.  1.
         23    2    1    2    0    0  0.91119854519E+01 -0.86506197244E+02  0.28045332776E+02  0.13031885284E+03  0.92898397593E+02 0.  0.
          5    1    1    2  502    0 -0.53647896827E+02  0.52959570144E+02 -0.99258978064E+02  0.12472869610E+03  0.47000000000E+01 0.  1.
         -5    1    1    2    0  502  0.44535911375E+02  0.33546627100E+02  0.19530011472E+01  0.55988639966E+02  0.47000000000E+01 0.  1.
        -11    1    3    3    0    0 -0.26016435015E+01  0.19814223678E+02  0.11060302441E+01  0.20014877261E+02  0.00000000000E+00 0. -1.
         11    1    3    3    0    0  0.11713628953E+02 -0.10632042092E+03  0.26939302532E+02  0.11030397558E+03  0.00000000000E+00 0.  1.
<mgrwt>
<rscale>  0 0.14560203E+03</rscale>
<asrwt>0</asrwt>
<pdfrwt beam="1">  1        2 0.18598119E-01 0.15228362E+03</pdfrwt>
<pdfrwt beam="2">  1       -2 0.29253603E-01 0.15228362E+03</pdfrwt>
<totfact> 0.31336538E+03</totfact>
</mgrwt>
</event>
<event>
 7    1  0.5107591E-006  0.1300453E+03  0.7546771E-02  0.1242180E+00
          1   -1    0    0  501    0  0.00000000000E+00  0.00000000000E+00  0.31020054476E+02  0.31020054476E+02  0.00000000000E+00 0. -1.
         -1   -1    0    0    0  501 -0.00000000000E+00 -0.00000000000E+00 -0.42524180529E+03  0.42524180529E+03  0.00000000000E+00 0.  1.
         23    2    1    2    0    0  0.33736130022E+02  0.12331995665E+02 -0.12855778610E+03  0.16047626659E+03  0.89080430997E+02 0.  0.
          5    1    1    2  502    0 -0.29956115074E+02 -0.65556656975E+02 -0.18838606942E+03  0.20175838336E+03  0.47000000000E+01 0. -1.
         -5    1    1    2    0  502 -0.37800149473E+01  0.53224661310E+02 -0.77277895300E+02  0.94027209820E+02  0.47000000000E+01 0. -1.
        -11    1    3    3    0    0  0.49133627437E+02 -0.14416632952E+02 -0.11665227083E+03  0.12739585920E+03  0.00000000000E+00 0.  1.
         11    1    3    3    0    0 -0.15397497415E+02  0.26748628617E+02 -0.11905515267E+02  0.33080407393E+02  0.00000000000E+00 0. -1.
<mgrwt>
<rscale>  0 0.12055767E+03</rscale>
<asrwt>0</asrwt>
<pdfrwt beam="1">  1        1 0.47723162E-02 0.13004528E+03</pdfrwt>
<pdfrwt beam="2">  1       -1 0.65421814E-01 0.13004528E+03</pdfrwt>
<totfact> 0.41624488E+03</totfact>
</mgrwt>
</event>
<event>
 7    1  0.5107591E-006  0.1255541E+03  0.7546771E-02  0.1249484E+00
         -3   -1    0    0    0  501 -0.00000000000E+00  0.00000000000E+00  0.38642978269E+03  0.38642978269E+03  0.00000000000E+00 0.  1.
          3   -1    0    0  501    0  0.00000000000E+00 -0.00000000000E+00 -0.38826975741E+02  0.38826975741E+02  0.00000000000E+00 0. -1.
         23    2    1    2    0    0 -0.79237832526E+00  0.11769546776E+02  0.56138318364E+02  0.10789988645E+03  0.91387770586E+02 0.  0.
          5    1    1    2  502    0  0.47565984802E+02 -0.69556132278E+01  0.24958179274E+03  0.25421263685E+03  0.47000000000E+01 0. -1.
         -5    1    1    2    0  502 -0.46773606477E+02 -0.48139335477E+01  0.41882695840E+02  0.63144235128E+02  0.47000000000E+01 0. -1.
        -11    1    3    3    0    0  0.13021650603E+02  0.47242411704E+02  0.48747948492E+02  0.69121424539E+02  0.00000000000E+00 0.  1.
         11    1    3    3    0    0 -0.13814028929E+02 -0.35472864928E+02  0.73903698716E+01  0.38778461912E+02  0.00000000000E+00 0. -1.
<mgrwt>
<rscale>  0 0.11620967E+03</rscale>
<asrwt>0</asrwt>
<pdfrwt beam="2">  1        3 0.59733812E-02 0.12555412E+03</pdfrwt>
<pdfrwt beam="1">  1       -3 0.59450733E-01 0.12555412E+03</pdfrwt>
<totfact> 0.10945414E+03</totfact>
</mgrwt>
</event>
<event>
 7    1  0.5107591E-006  0.2276488E+03  0.7546771E-02  0.1128306E+00
          1   -1    0    0  501    0  0.00000000000E+00  0.00000000000E+00  0.36781254530E+03  0.36781254530E+03  0.00000000000E+00 0. -1.
         -1   -1    0    0    0  501 -0.00000000000E+00 -0.00000000000E+00 -0.35224438425E+02  0.35224438425E+02  0.00000000000E+00 0.  1.
         23    2    1    2    0    0  0.43135174193E+01  0.12112394814E+02  0.20440067170E+03  0.22369274339E+03  0.89963838912E+02 0.  0.
          5    1    1    2  502    0  0.18055815253E+02  0.92263553291E+01  0.14316649585E+03  0.14467160616E+03  0.47000000000E+01 0.  1.
         -5    1    1    2    0  502 -0.22369332673E+02 -0.21338750143E+02 -0.14979060673E+02  0.34672634173E+02  0.47000000000E+01 0.  1.
        -11    1    3    3    0    0 -0.25515240861E+02  0.28639349784E+02  0.17344897408E+03  0.17763948458E+03  0.00000000000E+00 0. -1.
         11    1    3    3    0    0  0.29828758280E+02 -0.16526954971E+02  0.30951697618E+02  0.46053258806E+02  0.00000000000E+00 0.  1.
<mgrwt>
<rscale>  0 0.22764877E+03</rscale>
<asrwt>0</asrwt>
<pdfrwt beam="1">  1        1 0.56586543E-01 0.22764877E+03</pdfrwt>
<pdfrwt beam="2">  1       -1 0.54191446E-02 0.22764877E+03</pdfrwt>
<totfact> 0.10333611E+04</totfact>
</mgrwt>
</event>
<event>
 7    1  0.5107591E-006  0.2157958E+03  0.7546771E-02  0.1138511E+00
         -1   -1    0    0    0  501 -0.00000000000E+00  0.00000000000E+00  0.13250829784E+04  0.13250829784E+04  0.00000000000E+00 0.  1.
          1   -1    0    0  501    0  0.00000000000E+00 -0.00000000000E+00 -0.47266011561E+02  0.47266011561E+02  0.00000000000E+00 0. -1.
         23    2    1    2    0    0  0.18279387379E+03 -0.23647190021E+02  0.26650025606E+03  0.33826517698E+03  0.97098679650E+02 0.  0.
          5    1    1    2  502    0 -0.76286931068E+02  0.65897452548E+02  0.45116006180E+03  0.46230905406E+03  0.47000000000E+01 0. -1.
         -5    1    1    2    0  502 -0.10650694272E+03 -0.42250262527E+02  0.56015664898E+03  0.57177475891E+03  0.47000000000E+01 0.  1.
        -11    1    3    3    0    0  0.43416057001E+02  0.22367947271E+02  0.23082637573E+02  0.54019322728E+02  0.00000000000E+00 0.  1.
         11    1    3    3    0    0  0.13937781679E+03 -0.46015137292E+02  0.24341761848E+03  0.28424585426E+03  0.00000000000E+00 0. -1.
<mgrwt>
<rscale>  0 0.21390439E+03</rscale>
<asrwt>0</asrwt>
<pdfrwt beam="2">  1        1 0.72716951E-02 0.21579584E+03</pdfrwt>
<pdfrwt beam="1">  1       -1 0.20385889E+00 0.21579584E+03</pdfrwt>
<totfact> 0.15693905E+02</totfact>
</mgrwt>
</event>
<event>
 7    1  0.5107591E-006  0.1285780E+03  0.7546771E-02  0.1243633E+00
          2   -1    0    0  501    0  0.00000000000E+00  0.00000000000E+00  0.22779448331E+02  0.22779448331E+02  0.00000000000E+00 0. -1.
         -2   -1    0    0    0  501 -0.00000000000E+00 -0.00000000000E+00 -0.58906770248E+03  0.58906770248E+03  0.00000000000E+00 0.  1.
         23    2    1    2    0    0 -0.26357829940E+02 -0.14637296973E+02 -0.17324906493E+03  0.19831105193E+03  0.91668146904E+02 0.  0.
          5    1    1    2  502    0  0.30325467437E+02 -0.52672514276E+02 -0.19067940697E+03  0.20018679771E+03  0.47000000000E+01 0.  1.
         -5    1    1    2    0  502 -0.39676374973E+01  0.67309811249E+02 -0.20235978224E+03  0.21334930116E+03  0.47000000000E+01 0.  1.
        -11    1    3    3    0    0 -0.46712593558E+02  0.89044689769E+01 -0.15522810956E+03  0.16234876643E+03  0.00000000000E+00 0.  1.
         11    1    3    3    0    0  0.20354763618E+02 -0.23541765950E+02 -0.18020955377E+02  0.35962285504E+02  0.00000000000E+00 0. -1.
<mgrwt>
<rscale>  0 0.11967559E+03</rscale>
<asrwt>0</asrwt>
<pdfrwt beam="1">  1        2 0.35045305E-02 0.12857800E+03</pdfrwt>
<pdfrwt beam="2">  1       -2 0.90625801E-01 0.12857800E+03</pdfrwt>
<totfact> 0.25970791E+03</totfact>
</mgrwt>
</event>
<event>
 7    1  0.5107591E-006  0.1379774E+03  0.7546771E-02  0.1227736E+00
          2   -1    0    0  501    0  0.00000000000E+00  0.00000000000E+00  0.33853538593E+02  0.33853538593E+02  0.00000000000E+00 0. -1.
         -2   -1    0    0    0  501 -0.00000000000E+00 -0.00000000000E+00 -0.59552933387E+03  0.59552933387E+03  0.00000000000E+00 0.  1.
         23    2    1    2    0    0 -0.76465900359E+01  0.57893404171E+02 -0.99037910807E+02  0.14660799356E+03  0.90968562772E+02 0.  0.
          5    1    1    2  502    0 -0.35718234968E+01 -0.28455519682E+02 -0.44580043150E+03  0.44674667235E+03  0.47000000000E+01 0.  1.
         -5    1    1    2    0  502  0.11218413533E+02 -0.29437884490E+02 -0.16837452968E+02  0.36028206559E+02  0.47000000000E+01 0.  1.
        -11    1    3    3    0    0 -0.14115838348E+02  0.25298478949E+02 -0.10830230561E+03  0.11211003224E+03  0.00000000000E+00 0.  1.
         11    1    3    3    0    0  0.64692483120E+01  0.32594925222E+02  0.92643948018E+01  0.34497961316E+02  0.00000000000E+00 0. -1.
<mgrwt>
<rscale>  0 0.12981099E+03</rscale>
<asrwt>0</asrwt>
<pdfrwt beam="1">  1        2 0.52082367E-02 0.13797743E+03</pdfrwt>
<pdfrwt beam="2">  1       -2 0.91619898E-01 0.13797743E+03</pdfrwt>
<totfact> 0.15102001E+03</totfact>
</mgrwt>
</event>
<event>
 7    1  0.5107591E-006  0.1837157E+03  0.7546771E-02  0.1169870E+00
          2   -1    0    0  501    0  0.00000000000E+00  0.00000000000E+00  0.13356286731E+03  0.13356286731E+03  0.00000000000E+00 0. -1.
         -2   -1    0    0    0  501 -0.00000000000E+00 -0.00000000000E+00 -0.23089840878E+03  0.23089840878E+03  0.00000000000E+00 0.  1.
         23    2    1    2    0    0  0.13251229612E+03 -0.23807277020E+02 -0.12045748861E+02  0.16191296683E+03  0.89131440577E+02 0.  0.
          5    1    1    2  502    0  0.19006568657E+02  0.22488962552E+01  0.10103576903E+02  0.22146770707E+02  0.47000000000E+01 0.  1.
         -5    1    1    2    0  502 -0.15151886478E+03  0.21558380765E+02 -0.95393369510E+02  0.18040153855E+03  0.47000000000E+01 0.  1.
        -11    1    3    3    0    0 -0.44345853551E+00 -0.23399395614E+02  0.12769513864E+02  0.26660623678E+02  0.00000000000E+00 0. -1.
         11    1    3    3    0    0  0.13295575466E+03 -0.40788140613E+00 -0.24815262725E+02  0.13525234315E+03  0.00000000000E+00 0.  1.
<mgrwt>
<rscale>  0 0.17788071E+03</rscale>
<asrwt>0</asrwt>
<pdfrwt beam="1">  1        2 0.20548134E-01 0.18371573E+03</pdfrwt>
<pdfrwt beam="2">  1       -2 0.35522832E-01 0.18371573E+03</pdfrwt>
<totfact> 0.19776926E+03</totfact>
</mgrwt>
</event>
<event>
 7    1  0.5107591E-006  0.2386209E+03  0.7546771E-02  0.1137878E+00
         -1   -1    0    0    0  501 -0.00000000000E+00  0.00000000000E+00  0.15708146585E+03  0.15708146585E+03  0.00000000000E+00 0.  1.
          1   -1    0    0  501    0  0.00000000000E+00 -0.00000000000E+00 -0.31263351620E+03  0.31263351620E+03  0.00000000000E+00 0. -1.
         23    2    1    2    0    0  0.12310752218E+03  0.26040280026E+02 -0.16951561955E+03  0.23068586921E+03  0.92988530364E+02 0.  0.
          5    1    1    2  502    0 -0.53127155816E+02 -0.95081412596E+02 -0.51761802643E+02  0.12068282363E+03  0.47000000000E+01 0. -1.
         -5    1    1    2    0  502 -0.69980366368E+02  0.69041132570E+02  0.65725371852E+02  0.11834628921E+03  0.47000000000E+01 0.  1.
        -11    1    3    3    0    0 -0.14188446280E+02 -0.41979815606E+01 -0.25128667222E+02  0.29161360966E+02  0.00000000000E+00 0.  1.
         11    1    3    3    0    0  0.13729596846E+03  0.30238261586E+02 -0.14438695233E+03  0.20152450825E+03  0.00000000000E+00 0. -1.
<mgrwt>
<rscale>  0 0.21472555E+03</rscale>
<asrwt>0</asrwt>
<pdfrwt beam="2">  1        1 0.48097464E-01 0.23862090E+03</pdfrwt>
<pdfrwt beam="1">  1       -1 0.24166380E-01 0.23862090E+03</pdfrwt>
<totfact> 0.12237169E+03</totfact>
</mgrwt>
</event>
<event>
 7    1  0.5107591E-006  0.1444952E+03  0.7546771E-02  0.1224342E+00
         -1   -1    0    0    0  501 -0.00000000000E+00  0.00000000000E+00  0.21268205259E+02  0.21268205259E+02  0.00000000000E+00 0.  1.
          1   -1    0    0  501    0  0.00000000000E+00 -0.00000000000E+00 -0.72376618673E+03  0.72376618673E+03  0.00000000000E+00 0. -1.
         23    2    1    2    0    0 -0.44760572323E+01 -0.44292307484E+02 -0.34371414912E+03  0.35824672451E+03  0.90661213991E+02 0.  0.
          5    1    1    2  502    0 -0.11104689357E+02  0.14177825162E+02 -0.35124370748E+03  0.35173648786E+03  0.47000000000E+01 0. -1.
         -5    1    1    2    0  502  0.15580746590E+02  0.30114482323E+02 -0.75401248757E+01  0.35051179623E+02  0.47000000000E+01 0.  1.
        -11    1    3    3    0    0 -0.44044016492E+02 -0.41907985715E+02 -0.18914118624E+03  0.19867194817E+03  0.00000000000E+00 0. -1.
         11    1    3    3    0    0  0.39567959260E+02 -0.23843217693E+01 -0.15457296288E+03  0.15957477634E+03  0.00000000000E+00 0.  1.
<mgrwt>
<rscale>  0 0.13212104E+03</rscale>
<asrwt>0</asrwt>
<pdfrwt beam="2">  1        1 0.11134864E+00 0.14449519E+03</pdfrwt>
<pdfrwt beam="1">  1       -1 0.32720317E-02 0.14449519E+03</pdfrwt>
<totfact> 0.85839133E+03</totfact>
</mgrwt>
</event>
<event>
 7    1  0.5107591E-006  0.1373469E+03  0.7546771E-02  0.1228725E+00
         -1   -1    0    0    0  501 -0.00000000000E+00  0.00000000000E+00  0.41634990493E+03  0.41634990493E+03  0.00000000000E+00 0.  1.
          1   -1    0    0  501    0  0.00000000000E+00 -0.00000000000E+00 -0.36181191582E+02  0.36181191582E+02  0.00000000000E+00 0. -1.
         23    2    1    2    0    0  0.62510256611E+01 -0.56570940569E+02  0.14940936300E+03  0.18399050226E+03  0.91049440036E+02 0.  0.
          5    1    1    2  502    0 -0.96055356836E+01  0.20470764144E+02 -0.98943276960E+01  0.25125807867E+02  0.47000000000E+01 0.  1.
         -5    1    1    2    0  502  0.33545100225E+01  0.36100176425E+02  0.24065367804E+03  0.24341478638E+03  0.47000000000E+01 0.  1.
        -11    1    3    3    0    0  0.29843994914E+02 -0.38051529640E+02  0.14600431357E+03  0.15380455949E+03  0.00000000000E+00 0.  1.
         11    1    3    3    0    0 -0.23592969253E+02 -0.18519410929E+02  0.34050494380E+01  0.30185942771E+02  0.00000000000E+00 0. -1.
<mgrwt>
<rscale>  0 0.12914862E+03</rscale>
<asrwt>0</asrwt>
<pdfrwt beam="2">  1        1 0.55663375E-02 0.13734691E+03</pdfrwt>
<pdfrwt beam="1">  1       -1 0.64053828E-01 0.13734691E+03</pdfrwt>
<totfact> 0.35265863E+03</totfact>
</mgrwt>
</event>
<event>
 7    1  0.5107591E-006  0.1415703E+03  0.7546771E-02  0.1222282E+00
         -4   -1    0    0    0  501 -0.00000000000E+00  0.00000000000E+00  0.88634818815E+03  0.88634818815E+03  0.00000000000E+00 0. -1.
          4   -1    0    0  501    0  0.00000000000E+00 -0.00000000000E+00 -0.20444776365E+02  0.20444776365E+02  0.00000000000E+00 0.  1.
         23    2    1    2    0    0  0.67878233965E+01  0.66120090401E+02  0.23737802142E+03  0.26252103180E+03  0.90283033752E+02 0.  0.
          5    1    1    2  502    0  0.56341399412E+02 -0.47414152513E+02  0.38206121123E+03  0.38912120769E+03  0.47000000000E+01 0. -1.
         -5    1    1    2    0  502 -0.63129222809E+02 -0.18705937888E+02  0.24646417914E+03  0.25515072503E+03  0.47000000000E+01 0. -1.
        -11    1    3    3    0    0  0.41255017158E+02  0.64106076470E+02  0.14344786176E+03  0.16244646664E+03  0.00000000000E+00 0.  1.
         11    1    3    3    0    0 -0.34467193761E+02  0.20140139310E+01  0.93930159660E+02  0.10007456516E+03  0.00000000000E+00 0. -1.
<mgrwt>
<rscale>  0 0.13354930E+03</rscale>
<asrwt>0</asrwt>
<pdfrwt beam="2">  1        4 0.31453509E-02 0.14157033E+03</pdfrwt>
<pdfrwt beam="1">  1       -4 0.13636123E+00 0.14157033E+03</pdfrwt>
<totfact> 0.34112401E+02</totfact>
</mgrwt>
</event>
<event>
 7    1  0.5107591E-006  0.1598729E+03  0.7546771E-02  0.1196425E+00
          2   -1    0    0  501    0  0.00000000000E+00  0.00000000000E+00  0.12402535948E+04  0.12402535948E+04  0.00000000000E+00 0. -1.
         -2   -1    0    0    0  501 -0.00000000000E+00 -0.00000000000E+00 -0.17564315333E+02  0.17564315333E+02  0.00000000000E+00 0.  1.
         23    2    1    2    0    0 -0.99625626462E+02  0.31369829899E+01  0.56526738065E+03  0.58123613075E+03  0.91504764599E+02 0.  0.
          5    1    1    2  502    0 -0.10798968988E+01  0.45051839041E+02  0.25211134686E+03  0.25615045500E+03  0.47000000000E+01 0. -1.
         -5    1    1    2    0  502  0.10070552336E+03 -0.48188822031E+02  0.40531055193E+03  0.42043132437E+03  0.47000000000E+01 0. -1.
        -11    1    3    3    0    0 -0.10505621363E+03 -0.23555374642E+02  0.43207664609E+03  0.44528854892E+03  0.00000000000E+00 0.  1.
         11    1    3    3    0    0  0.54305871662E+01  0.26692357632E+02  0.13319073456E+03  0.13594758183E+03  0.00000000000E+00 0. -1.
<mgrwt>
<rscale>  0 0.15334230E+03</rscale>
<asrwt>0</asrwt>
<pdfrwt beam="1">  1        2 0.19080818E+00 0.15987292E+03</pdfrwt>
<pdfrwt beam="2">  1       -2 0.27022033E-02 0.15987292E+03</pdfrwt>
<totfact> 0.91809644E+03</totfact>
</mgrwt>
</event>
<event>
 7    1  0.5107591E-006  0.3525862E+03  0.7546771E-02  0.1110621E+00
          2   -1    0    0  501    0  0.00000000000E+00  0.00000000000E+00  0.48666018216E+03  0.48666018216E+03  0.00000000000E+00 0. -1.
         -2   -1    0    0    0  501 -0.00000000000E+00 -0.00000000000E+00 -0.10566644284E+03  0.10566644284E+03  0.00000000000E+00 0.  1.
         23    2    1    2    0    0 -0.23772651246E+02 -0.15653679629E+02  0.12183804917E+03  0.15474382226E+03  0.91054728987E+02 0.  0.
          5    1    1    2  502    0 -0.42588058001E+02  0.95339507888E+02  0.30624806701E+03  0.32359439581E+03  0.47000000000E+01 0. -1.
         -5    1    1    2    0  502  0.66360709247E+02 -0.79685828259E+02 -0.47092376858E+02  0.11398840693E+03  0.47000000000E+01 0.  1.
        -11    1    3    3    0    0 -0.32656502230E+02 -0.46579341926E+02  0.10243237623E+03  0.11716857058E+03  0.00000000000E+00 0.  1.
         11    1    3    3    0    0  0.88838509835E+01  0.30925662297E+02  0.19405672936E+02  0.37575251681E+02  0.00000000000E+00 0. -1.
<mgrwt>
<rscale>  0 0.25429392E+03</rscale>
<asrwt>0</asrwt>
<pdfrwt beam="1">  1        2 0.74870796E-01 0.35258621E+03</pdfrwt>
<pdfrwt beam="2">  1       -2 0.16256376E-01 0.35258621E+03</pdfrwt>
<totfact> 0.19255098E+03</totfact>
</mgrwt>
</event>
<event>
 7    1  0.5107591E-006  0.1460245E+03  0.7546771E-02  0.1215404E+00
          2   -1    0    0  501    0  0.00000000000E+00  0.00000000000E+00  0.28240398754E+02  0.28240398754E+02  0.00000000000E+00 0. -1.
         -2   -1    0    0    0  501 -0.00000000000E+00 -0.00000000000E+00 -0.65511346149E+03  0.65511346149E+03  0.00000000000E+00 0.  1.
         23    2    1    2    0    0  0.60827886533E+02  0.44704121362E+02 -0.20064072840E+03  0.23280178597E+03  0.90782594190E+02 0.  0.
          5    1    1    2  502    0 -0.40987945889E+02 -0.75970360123E+02 -0.38644399618E+03  0.39599565592E+03  0.47000000000E+01 0. -1.
         -5    1    1    2    0  502 -0.19839940644E+02  0.31266238762E+02 -0.39788338155E+02  0.54556418359E+02  0.47000000000E+01 0. -1.
        -11    1    3    3    0    0  0.56311476869E+02  0.57315514049E+02 -0.20377519211E+03  0.21904424096E+03  0.00000000000E+00 0.  1.
         11    1    3    3    0    0  0.45164096637E+01 -0.12611392687E+02  0.31344637109E+01  0.13757545003E+02  0.00000000000E+00 0. -1.
<mgrwt>
<rscale>  0 0.13846887E+03</rscale>
<asrwt>0</asrwt>
<pdfrwt beam="1">  1        2 0.43446770E-02 0.14602455E+03</pdfrwt>
<pdfrwt beam="2">  1       -2 0.10078668E+00 0.14602455E+03</pdfrwt>
<totfact> 0.15459347E+03</totfact>
</mgrwt>
</event>
<event>
 7    1  0.5107591E-006  0.1295851E+03  0.7546771E-02  0.1243512E+00
          2   -1    0    0  501    0  0.00000000000E+00  0.00000000000E+00  0.41110319157E+03  0.41110319157E+03  0.00000000000E+00 0.  1.
         -2   -1    0    0    0  501 -0.00000000000E+00 -0.00000000000E+00 -0.31665303674E+02  0.31665303674E+02  0.00000000000E+00 0. -1.
         23    2    1    2    0    0 -0.33465352291E+02 -0.69679347465E+01  0.20239492105E+03  0.22336815631E+03  0.88097373777E+02 0.  0.
          5    1    1    2  502    0  0.45176499339E+02  0.56894236526E+02  0.13307665263E+03  0.15168835063E+03  0.47000000000E+01 0. -1.
         -5    1    1    2    0  502 -0.11711147048E+02 -0.49926301780E+02  0.43966314220E+02  0.67711988308E+02  0.47000000000E+01 0. -1.
        -11    1    3    3    0    0 -0.46327948006E+02  0.96524603504E+01  0.19565644211E+03  0.20129801811E+03  0.00000000000E+00 0.  1.
         11    1    3    3    0    0  0.12862595714E+02 -0.16620395097E+02  0.67384789485E+01  0.22070138201E+02  0.00000000000E+00 0. -1.
<mgrwt>
<rscale>  0 0.11974861E+03</rscale>
<asrwt>0</asrwt>
<pdfrwt beam="1">  1        2 0.63246641E-01 0.12958509E+03</pdfrwt>
<pdfrwt beam="2">  1       -2 0.48715855E-02 0.12958509E+03</pdfrwt>
<totfact> 0.14825710E+04</totfact>
</mgrwt>
</event>
<event>
 7    1  0.5107591E-006  0.2328707E+03  0.7546771E-02  0.1124635E+00
          2   -1    0    0  501    0  0.00000000000E+00  0.00000000000E+00  0.42387078290E+03  0.42387078290E+03  0.00000000000E+00 0. -1.
         -2   -1    0    0    0  501 -0.00000000000E+00 -0.00000000000E+00 -0.31984264413E+02  0.31984264413E+02  0.00000000000E+00 0.  1.
         23    2    1    2    0    0 -0.17325550417E+01 -0.68369227853E+01  0.19117895866E+03  0.21186477103E+03  0.91035936352E+02 0.  0.
          5    1    1    2  502    0 -0.14903252185E+02 -0.25274770226E+02  0.20511449127E+03  0.20725579718E+03  0.47000000000E+01 0. -1.
         -5    1    1    2    0  502  0.16635807227E+02  0.32111693011E+02 -0.44069314480E+01  0.36734479102E+02  0.47000000000E+01 0.  1.
        -11    1    3    3    0    0  0.16475593252E+02 -0.43998930270E+02  0.74633266707E+02  0.88189996809E+02  0.00000000000E+00 0. -1.
         11    1    3    3    0    0 -0.18208148293E+02  0.37162007485E+02  0.11654569196E+03  0.12367477422E+03  0.00000000000E+00 0.  1.
<mgrwt>
<rscale>  0 0.23287074E+03</rscale>
<asrwt>0</asrwt>
<pdfrwt beam="1">  1        2 0.65210886E-01 0.23287074E+03</pdfrwt>
<pdfrwt beam="2">  1       -2 0.49206564E-02 0.23287074E+03</pdfrwt>
<totfact> 0.14759948E+04</totfact>
</mgrwt>
</event>
<event>
 7    1  0.5107591E-006  0.1590233E+03  0.7546771E-02  0.1198189E+00
         -1   -1    0    0    0  501 -0.00000000000E+00  0.00000000000E+00  0.41346456430E+03  0.41346456430E+03  0.00000000000E+00 0.  1.
          1   -1    0    0  501    0  0.00000000000E+00 -0.00000000000E+00 -0.51869235161E+02  0.51869235161E+02  0.00000000000E+00 0. -1.
         23    2    1    2    0    0  0.88616289552E+02 -0.42546231221E+02  0.14043579301E+03  0.19293710925E+03  0.88540880965E+02 0.  0.
          5    1    1    2  502    0 -0.11520659045E+01  0.58631895536E+02  0.14019450125E+03  0.15203820116E+03  0.47000000000E+01 0. -1.
         -5    1    1    2    0  502 -0.87464223647E+02 -0.16085664315E+02  0.80965034878E+02  0.12035848905E+03  0.47000000000E+01 0. -1.
        -11    1    3    3    0    0  0.55538334550E+02 -0.29303043384E+01  0.12842192438E+03  0.13994743281E+03  0.00000000000E+00 0.  1.
         11    1    3    3    0    0  0.33077955002E+02 -0.39615926883E+02  0.12013868631E+02  0.52989676442E+02  0.00000000000E+00 0. -1.
<mgrwt>
<rscale>  0 0.15187391E+03</rscale>
<asrwt>0</asrwt>
<pdfrwt beam="2">  1        1 0.79798826E-02 0.15902332E+03</pdfrwt>
<pdfrwt beam="1">  1       -1 0.63609931E-01 0.15902332E+03</pdfrwt>
<totfact> 0.22104637E+03</totfact>
</mgrwt>
</event>
<event>
 7    1  0.5107591E-006  0.1270623E+03  0.7546771E-02  0.1247116E+00
         -1   -1    0    0    0  501 -0.00000000000E+00  0.00000000000E+00  0.28057609929E+02  0.28057609929E+02  0.00000000000E+00 0.  1.
          1   -1    0    0  501    0  0.00000000000E+00 -0.00000000000E+00 -0.44480918754E+03  0.44480918754E+03  0.00000000000E+00 0. -1.
         23    2    1    2    0    0  0.75631682979E+01 -0.21489171045E+02 -0.13818748631E+03  0.16669237085E+03  0.90396787221E+02 0.  0.
          5    1    1    2  502    0 -0.59630703225E+02 -0.26387252155E+01 -0.20000171640E+03  0.20877155027E+03  0.47000000000E+01 0. -1.
         -5    1    1    2    0  502  0.52067534928E+02  0.24127896260E+02 -0.78562374896E+02  0.97402876347E+02  0.47000000000E+01 0. -1.
        -11    1    3    3    0    0  0.44189505243E+02  0.82017785499E+01 -0.80412637929E+02  0.92120431413E+02  0.00000000000E+00 0.  1.
         11    1    3    3    0    0 -0.36626336945E+02 -0.29690949595E+02 -0.57774848380E+02  0.74571939436E+02  0.00000000000E+00 0. -1.
<mgrwt>
<rscale>  0 0.11759626E+03</rscale>
<asrwt>0</asrwt>
<pdfrwt beam="2">  1        1 0.68432186E-01 0.12706229E+03</pdfrwt>
<pdfrwt beam="1">  1       -1 0.43165552E-02 0.12706229E+03</pdfrwt>
<totfact> 0.10931423E+04</totfact>
</mgrwt>
</event>
<event>
 7    1  0.5107591E-006  0.1267182E+03  0.7546771E-02  0.1247881E+00
          2   -1    0    0  501    0  0.00000000000E+00  0.00000000000E+00  0.45023399322E+02  0.45023399322E+02  0.00000000000E+00 0. -1.
         -2   -1    0    0    0  501 -0.00000000000E+00 -0.00000000000E+00 -0.26702478045E+03  0.26702478045E+03  0.00000000000E+00 0.  1.
         23    2    1    2    0    0  0.18530039028E+02  0.94898640160E+01 -0.91505296726E+02  0.13015056609E+03  0.90180544799E+02 0.  0.
          5    1    1    2  502    0  0.45675208509E+01 -0.26252496109E+02 -0.14640711286E+03  0.14888649534E+03  0.47000000000E+01 0. -1.
         -5    1    1    2    0  502 -0.23097559879E+02  0.16762632093E+02  0.15911028461E+02  0.33011118335E+02  0.47000000000E+01 0. -1.
        -11    1    3    3    0    0 -0.34386088620E+02 -0.85526345196E+01 -0.25530644671E+02  0.43673383944E+02  0.00000000000E+00 0. -1.
         11    1    3    3    0    0  0.52916127649E+02  0.18042498536E+02 -0.65974652055E+02  0.86477182149E+02  0.00000000000E+00 0.  1.
<mgrwt>
<rscale>  0 0.11714569E+03</rscale>
<asrwt>0</asrwt>
<pdfrwt beam="1">  1        2 0.69266768E-02 0.12671825E+03</pdfrwt>
<pdfrwt beam="2">  1       -2 0.41080735E-01 0.12671825E+03</pdfrwt>
<totfact> 0.54644819E+03</totfact>
</mgrwt>
</event>
<event>
 7    1  0.5107591E-006  0.1543399E+03  0.7546771E-02  0.1220740E+00
          2   -1    0    0  501    0  0.00000000000E+00  0.00000000000E+00  0.39196371185E+02  0.39196371185E+02  0.00000000000E+00 0. -1.
         -2   -1    0    0    0  501 -0.00000000000E+00 -0.00000000000E+00 -0.44719672457E+03  0.44719672457E+03  0.00000000000E+00 0.  1.
         23    2    1    2    0    0  0.62766040864E+01  0.18390619960E+02 -0.65731783117E+02  0.11093526645E+03  0.87225887031E+02 0.  0.
          5    1    1    2  502    0 -0.30206103276E+02  0.13583789365E+02 -0.27482891742E+01  0.33564432097E+02  0.47000000000E+01 0. -1.
         -5    1    1    2    0  502  0.23929499189E+02 -0.31974409325E+02 -0.33952028110E+03  0.34189339721E+03  0.47000000000E+01 0.  1.
        -11    1    3    3    0    0  0.31647410151E+02  0.33182585219E+02 -0.67400651023E+02  0.81519876653E+02  0.00000000000E+00 0.  1.
         11    1    3    3    0    0 -0.25370806065E+02 -0.14791965259E+02  0.16688679058E+01  0.29415389793E+02  0.00000000000E+00 0. -1.
<mgrwt>
<rscale>  0 0.13463241E+03</rscale>
<asrwt>0</asrwt>
<pdfrwt beam="1">  1        2 0.60302106E-02 0.15433991E+03</pdfrwt>
<pdfrwt beam="2">  1       -2 0.68799500E-01 0.15433991E+03</pdfrwt>
<totfact> 0.23513113E+03</totfact>
</mgrwt>
</event>
<event>
 7    1  0.5107591E-006  0.1288739E+03  0.7546771E-02  0.1240928E+00
         -1   -1    0    0    0  501 -0.00000000000E+00  0.00000000000E+00  0.47355922567E+02  0.47355922567E+02  0.00000000000E+00 0.  1.
          1   -1    0    0  501    0  0.00000000000E+00 -0.00000000000E+00 -0.32803361812E+03  0.32803361812E+03  0.00000000000E+00 0. -1.
         23    2    1    2    0    0  0.30335694429E+02 -0.80289056533E+01 -0.19771171405E+03  0.22211904608E+03  0.96240485644E+02 0.  0.
          5    1    1    2  502    0 -0.31919155288E+02 -0.52124987439E+02 -0.16490215511E+02  0.63481209798E+02  0.47000000000E+01 0. -1.
         -5    1    1    2    0  502  0.15834608589E+01  0.60153893092E+02 -0.66475765997E+02  0.89789284813E+02  0.47000000000E+01 0. -1.
        -11    1    3    3    0    0  0.41564687669E+02 -0.45784462447E+02 -0.12075311910E+03  0.13566560373E+03  0.00000000000E+00 0. -1.
         11    1    3    3    0    0 -0.11228993240E+02  0.37755556794E+02 -0.76958594953E+02  0.86453442356E+02  0.00000000000E+00 0.  1.
<mgrwt>
<rscale>  0 0.12132439E+03</rscale>
<asrwt>0</asrwt>
<pdfrwt beam="2">  1        1 0.50466711E-01 0.12887393E+03</pdfrwt>
<pdfrwt beam="1">  1       -1 0.72855265E-02 0.12887393E+03</pdfrwt>
<totfact> 0.73745449E+03</totfact>
</mgrwt>
</event>
<event>
 7    1  0.5107591E-006  0.2235436E+03  0.7546771E-02  0.1134466E+00
         -3   -1    0    0    0  501 -0.00000000000E+00  0.00000000000E+00  0.69800164182E+03  0.69800164182E+03  0.00000000000E+00 0.  1.
          3   -1    0    0  501    0  0.00000000000E+00 -0.00000000000E+00 -0.66678483252E+02  0.66678483252E+02  0.00000000000E+00 0. -1.
         23    2    1    2    0    0 -0.17958469327E+03  0.45761360193E+02  0.27511874986E+03  0.34414082847E+03  0.91639615649E+02 0.  0.
          5    1    1    2  502    0  0.15261359280E+03 -0.84685762272E+02  0.25964536130E+03  0.31289038126E+03  0.47000000000E+01 0. -1.
         -5    1    1    2    0  502  0.26971100468E+02  0.38924402079E+02  0.96559047409E+02  0.10764891534E+03  0.47000000000E+01 0. -1.
        -11    1    3    3    0    0 -0.39221789599E+02  0.43036942852E+02  0.41209132727E+02  0.71335263716E+02  0.00000000000E+00 0.  1.
         11    1    3    3    0    0 -0.14036290367E+03  0.27244173411E+01  0.23390961713E+03  0.27280556476E+03  0.00000000000E+00 0. -1.
<mgrwt>
<rscale>  0 0.21921951E+03</rscale>
<asrwt>0</asrwt>
<pdfrwt beam="2">  1        3 0.10258229E-01 0.22354355E+03</pdfrwt>
<pdfrwt beam="1">  1       -3 0.10738486E+00 0.22354355E+03</pdfrwt>
<totfact> 0.13391295E+02</totfact>
</mgrwt>
</event>
<event>
 7    1  0.5107591E-006  0.1183843E+03  0.7546771E-02  0.1257778E+00
         -1   -1    0    0    0  501 -0.00000000000E+00  0.00000000000E+00  0.52063371694E+03  0.52063371694E+03  0.00000000000E+00 0.  1.
          1   -1    0    0  501    0  0.00000000000E+00 -0.00000000000E+00 -0.23221955176E+02  0.23221955176E+02  0.00000000000E+00 0. -1.
         23    2    1    2    0    0  0.16748159896E+02 -0.23115584737E+02  0.14782937055E+03  0.17477210519E+03  0.88752097658E+02 0.  0.
          5    1    1    2  502    0  0.15586100027E+02  0.29780915470E+02  0.23455623111E+02  0.41256341280E+02  0.47000000000E+01 0. -1.
         -5    1    1    2    0  502 -0.32334259923E+02 -0.66653307338E+01  0.32612676811E+03  0.32782722565E+03  0.47000000000E+01 0.  1.
        -11    1    3    3    0    0  0.49013348876E+02 -0.26341780103E+02  0.11906905198E+03  0.13142920865E+03  0.00000000000E+00 0.  1.
         11    1    3    3    0    0 -0.32265188980E+02  0.32261953663E+01  0.28760318569E+02  0.43342896542E+02  0.00000000000E+00 0. -1.
<mgrwt>
<rscale>  0 0.11152159E+03</rscale>
<asrwt>0</asrwt>
<pdfrwt beam="2">  1        1 0.35726089E-02 0.11838425E+03</pdfrwt>
<pdfrwt beam="1">  1       -1 0.80097486E-01 0.11838425E+03</pdfrwt>
<totfact> 0.41146927E+03</totfact>
</mgrwt>
</event>
<event>
 7    1  0.5107591E-006  0.1423848E+03  0.7546771E-02  0.1229196E+00
          2   -1    0    0  501    0  0.00000000000E+00  0.00000000000E+00  0.40393116865E+03  0.40393116865E+03  0.00000000000E+00 0. -1.
         -2   -1    0    0    0  501 -0.00000000000E+00 -0.00000000000E+00 -0.44622952315E+02  0.44622952315E+02  0.00000000000E+00 0.  1.
         23    2    1    2    0    0 -0.15400713073E+02  0.24856397623E+02  0.25434608116E+03  0.27166298983E+03  0.90850583778E+02 0.  0.
          5    1    1    2  502    0  0.68887057903E+02 -0.39815217719E+02  0.87777138392E+02  0.11856472634E+03  0.47000000000E+01 0. -1.
         -5    1    1    2    0  502 -0.53486344830E+02  0.14958820097E+02  0.17184996781E+02  0.58326404795E+02  0.47000000000E+01 0.  1.
        -11    1    3    3    0    0  0.17645813188E+02  0.47494522456E+02  0.98699601055E+02  0.11094465122E+03  0.00000000000E+00 0. -1.
         11    1    3    3    0    0 -0.33046526261E+02 -0.22638124833E+02  0.15564648011E+03  0.16071833860E+03  0.00000000000E+00 0.  1.
<mgrwt>
<rscale>  0 0.12883403E+03</rscale>
<asrwt>0</asrwt>
<pdfrwt beam="1">  1        2 0.62143254E-01 0.14238477E+03</pdfrwt>
<pdfrwt beam="2">  1       -2 0.68650699E-02 0.14238477E+03</pdfrwt>
<totfact> 0.90530418E+03</totfact>
</mgrwt>
</event>
<event>
 7    1  0.5107591E-006  0.2431468E+03  0.7546771E-02  0.1120299E+00
          3   -1    0    0  501    0  0.00000000000E+00  0.00000000000E+00  0.12265675544E+03  0.12265675544E+03  0.00000000000E+00 0. -1.
         -3   -1    0    0    0  501 -0.00000000000E+00 -0.00000000000E+00 -0.46053109841E+03  0.46053109841E+03  0.00000000000E+00 0.  1.
         23    2    1    2    0    0 -0.20727114820E+03  0.23130174446E+02 -0.12447507465E+03  0.25967646454E+03  0.91877571701E+02 0.  0.
          5    1    1    2  502    0  0.17076217566E+03 -0.14588341219E+02 -0.22600365812E+03  0.28367637163E+03  0.47000000000E+01 0.  1.
         -5    1    1    2    0  502  0.36508972539E+02 -0.85418332272E+01  0.12604389810E+02  0.39835017676E+02  0.47000000000E+01 0.  1.
        -11    1    3    3    0    0 -0.16692443801E+03  0.39859714381E+02 -0.60007654648E+02  0.18180617000E+03  0.00000000000E+00 0. -1.
         11    1    3    3    0    0 -0.40346710193E+02 -0.16729539935E+02 -0.64467420003E+02  0.77870294539E+02  0.00000000000E+00 0.  1.
<mgrwt>
<rscale>  0 0.23924171E+03</rscale>
<asrwt>0</asrwt>
<pdfrwt beam="1">  1        3 0.18870270E-01 0.24314681E+03</pdfrwt>
<pdfrwt beam="2">  1       -3 0.70850939E-01 0.24314681E+03</pdfrwt>
<totfact> 0.11984629E+02</totfact>
</mgrwt>
</event>
<event>
 7    1  0.5107591E-006  0.1837950E+03  0.7546771E-02  0.1167266E+00
          2   -1    0    0  501    0  0.00000000000E+00  0.00000000000E+00  0.16872067502E+03  0.16872067502E+03  0.00000000000E+00 0. -1.
         -2   -1    0    0    0  501 -0.00000000000E+00 -0.00000000000E+00 -0.18971885315E+03  0.18971885315E+03  0.00000000000E+00 0.  1.
         23    2    1    2    0    0 -0.13220054762E+03  0.60177974953E+02  0.12433322110E+02  0.17162874188E+03  0.90572976547E+02 0.  0.
          5    1    1    2  502    0 -0.14608292621E+02 -0.24872443822E+02  0.77405167343E+01  0.30233198215E+02  0.47000000000E+01 0. -1.
         -5    1    1    2    0  502  0.14680884025E+03 -0.35305531130E+02 -0.41172016974E+02  0.15657758807E+03  0.47000000000E+01 0.  1.
        -11    1    3    3    0    0 -0.14431368032E+03  0.49780450890E+02  0.19999786747E+02  0.15396273279E+03  0.00000000000E+00 0. -1.
         11    1    3    3    0    0  0.12113132694E+02  0.10397524063E+02 -0.75664646370E+01  0.17666009096E+02  0.00000000000E+00 0.  1.
<mgrwt>
<rscale>  0 0.18055609E+03</rscale>
<asrwt>0</asrwt>
<pdfrwt beam="1">  1        2 0.25957027E-01 0.18379501E+03</pdfrwt>
<pdfrwt beam="2">  1       -2 0.29187516E-01 0.18379501E+03</pdfrwt>
<totfact> 0.21802524E+03</totfact>
</mgrwt>
</event>
<event>
 7    1  0.5107591E-006  0.2194591E+03  0.7546771E-02  0.1137699E+00
          2   -1    0    0  501    0  0.00000000000E+00  0.00000000000E+00  0.63371134693E+03  0.63371134693E+03  0.00000000000E+00 0. -1.
         -2   -1    0    0    0  501 -0.00000000000E+00 -0.00000000000E+00 -0.70171184913E+02  0.70171184913E+02  0.00000000000E+00 0.  1.
         23    2    1    2    0    0  0.94601565188E+02 -0.15354634784E+03  0.25703848327E+03  0.32691359133E+03  0.90982290824E+02 0.  0.
          5    1    1    2  502    0 -0.11061886140E+03  0.16041643316E+03  0.24616124930E+03  0.31398632961E+03  0.47000000000E+01 0. -1.
         -5    1    1    2    0  502  0.16017296214E+02 -0.68700853221E+01  0.60340429443E+02  0.62982610900E+02  0.47000000000E+01 0. -1.
        -11    1    3    3    0    0  0.19561042563E+02 -0.41776904341E+02  0.12541976440E+02  0.47804239305E+02  0.00000000000E+00 0.  1.
         11    1    3    3    0    0  0.75040522624E+02 -0.11176944350E+03  0.24449650683E+03  0.27910935203E+03  0.00000000000E+00 0. -1.
<mgrwt>
<rscale>  0 0.21495754E+03</rscale>
<asrwt>0</asrwt>
<pdfrwt beam="1">  1        2 0.97494049E-01 0.21945911E+03</pdfrwt>
<pdfrwt beam="2">  1       -2 0.10795567E-01 0.21945911E+03</pdfrwt>
<totfact> 0.27545113E+03</totfact>
</mgrwt>
</event>
<event>
 7    1  0.5107591E-006  0.1398070E+03  0.7546771E-02  0.1224610E+00
          1   -1    0    0  501    0  0.00000000000E+00  0.00000000000E+00  0.31647562639E+03  0.31647562639E+03  0.00000000000E+00 0. -1.
         -1   -1    0    0    0  501 -0.00000000000E+00 -0.00000000000E+00 -0.49689367107E+02  0.49689367107E+02  0.00000000000E+00 0.  1.
         23    2    1    2    0    0 -0.61951488738E+02 -0.88455108304E+01  0.11264092734E+03  0.15806219204E+03  0.91539325010E+02 0.  0.
          5    1    1    2  502    0 -0.27543823794E+02 -0.41035736935E+01 -0.12291594269E+01  0.28268398949E+02  0.47000000000E+01 0. -1.
         -5    1    1    2    0  502  0.89495312532E+02  0.12949084524E+02  0.15537449137E+03  0.17983440251E+03  0.47000000000E+01 0. -1.
        -11    1    3    3    0    0 -0.43343993024E+02  0.24277253551E+02  0.10913342137E+03  0.11990909236E+03  0.00000000000E+00 0.  1.
         11    1    3    3    0    0 -0.18607495714E+02 -0.33122764382E+02  0.35075059657E+01  0.38153099679E+02  0.00000000000E+00 0. -1.
<mgrwt>
<rscale>  0 0.13193673E+03</rscale>
<asrwt>0</asrwt>
<pdfrwt beam="1">  1        1 0.48688557E-01 0.13980698E+03</pdfrwt>
<pdfrwt beam="2">  1       -1 0.76445182E-02 0.13980698E+03</pdfrwt>
<totfact> 0.72113897E+03</totfact>
</mgrwt>
</event>
<event>
 7    1  0.5107591E-006  0.1341466E+03  0.7546771E-02  0.1234554E+00
          1   -1    0    0  501    0  0.00000000000E+00  0.00000000000E+00  0.19171906335E+03  0.19171906335E+03  0.00000000000E+00 0. -1.
         -1   -1    0    0    0  501 -0.00000000000E+00 -0.00000000000E+00 -0.76880375231E+02  0.76880375231E+02  0.00000000000E+00 0.  1.
         23    2    1    2    0    0 -0.35999909979E+02  0.32759891353E+02  0.80568595523E+02  0.13014458275E+03  0.89872742443E+02 0.  0.
          5    1    1    2  502    0 -0.15073671901E+02  0.13566955198E+02 -0.34922928122E+02  0.40656841571E+02  0.47000000000E+01 0.  1.
         -5    1    1    2    0  502  0.51073581880E+02 -0.46326846550E+02  0.69193020717E+02  0.97798014260E+02  0.47000000000E+01 0.  1.
        -11    1    3    3    0    0 -0.37597465119E+02  0.72813741938E+01 -0.70001618969E+01  0.38930580012E+02  0.00000000000E+00 0.  1.
         11    1    3    3    0    0  0.15975551393E+01  0.25478517159E+02  0.87568757420E+02  0.91214002736E+02  0.00000000000E+00 0. -1.
<mgrwt>
<rscale>  0 0.12533002E+03</rscale>
<asrwt>0</asrwt>
<pdfrwt beam="1">  1        1 0.29495240E-01 0.13414659E+03</pdfrwt>
<pdfrwt beam="2">  1       -1 0.11827750E-01 0.13414659E+03</pdfrwt>
<totfact> 0.68837651E+03</totfact>
</mgrwt>
</event>
<event>
 7    1  0.5107591E-006  0.2096687E+03  0.7546771E-02  0.1145643E+00
          2   -1    0    0  501    0  0.00000000000E+00  0.00000000000E+00  0.78664720806E+03  0.78664720806E+03  0.00000000000E+00 0.  1.
         -2   -1    0    0    0  501 -0.00000000000E+00 -0.00000000000E+00 -0.51573937766E+02  0.51573937766E+02  0.00000000000E+00 0. -1.
         23    2    1    2    0    0  0.65155953237E+02 -0.15524187048E+03  0.39064137307E+03  0.43499131776E+03  0.90947389058E+02 0.  0.
          5    1    1    2  502    0  0.59789356483E+01  0.99950437537E+01  0.14892933503E+03  0.14945797203E+03  0.47000000000E+01 0.  1.
         -5    1    1    2    0  502 -0.71134888885E+02  0.14524682673E+03  0.19550256219E+03  0.25377185604E+03  0.47000000000E+01 0.  1.
        -11    1    3    3    0    0 -0.53826687654E+01 -0.60187442746E+02  0.21391928564E+03  0.22229026555E+03  0.00000000000E+00 0.  1.
         11    1    3    3    0    0  0.70538622002E+02 -0.95054427739E+02  0.17672208743E+03  0.21270105221E+03  0.00000000000E+00 0. -1.
<mgrwt>
<rscale>  0 0.20493220E+03</rscale>
<asrwt>0</asrwt>
<pdfrwt beam="1">  1        2 0.12102264E+00 0.20966870E+03</pdfrwt>
<pdfrwt beam="2">  1       -2 0.79344525E-02 0.20966870E+03</pdfrwt>
<totfact> 0.34409373E+03</totfact>
</mgrwt>
</event>
<event>
 7    1  0.5107591E-006  0.1294358E+03  0.7546771E-02  0.1240438E+00
          3   -1    0    0  501    0  0.00000000000E+00  0.00000000000E+00  0.24091798858E+03  0.24091798858E+03  0.00000000000E+00 0. -1.
         -3   -1    0    0    0  501 -0.00000000000E+00 -0.00000000000E+00 -0.55736641398E+02  0.55736641398E+02  0.00000000000E+00 0.  1.
         23    2    1    2    0    0  0.14029618067E+02 -0.30985693700E+02  0.97471247462E+02  0.14030025117E+03  0.95008278590E+02 0.  0.
          5    1    1    2  502    0  0.28428382336E+02 -0.30851143854E+02  0.18613622829E+01  0.42255421769E+02  0.47000000000E+01 0.  1.
         -5    1    1    2    0  502 -0.42458000403E+02  0.61836837554E+02  0.85848737441E+02  0.11409895704E+03  0.47000000000E+01 0.  1.
        -11    1    3    3    0    0 -0.39398865481E+01 -0.25099731414E+02 -0.12779300450E+02  0.28439932192E+02  0.00000000000E+00 0.  1.
         11    1    3    3    0    0  0.17969504615E+02 -0.58859622862E+01  0.11025054791E+03  0.11186031898E+03  0.00000000000E+00 0. -1.
<mgrwt>
<rscale>  0 0.12162646E+03</rscale>
<asrwt>0</asrwt>
<pdfrwt beam="1">  1        3 0.37064305E-01 0.12943581E+03</pdfrwt>
<pdfrwt beam="2">  1       -3 0.85748680E-02 0.12943581E+03</pdfrwt>
<totfact> 0.15612706E+03</totfact>
</mgrwt>
</event>
<event>
 7    1  0.5107591E-006  0.1778250E+03  0.7546771E-02  0.1176668E+00
          2   -1    0    0  501    0  0.00000000000E+00  0.00000000000E+00  0.51683319218E+03  0.51683319218E+03  0.00000000000E+00 0. -1.
         -2   -1    0    0    0  501 -0.00000000000E+00 -0.00000000000E+00 -0.56945986990E+02  0.56945986990E+02  0.00000000000E+00 0.  1.
         23    2    1    2    0    0 -0.94973764174E+02  0.83521769452E+02  0.29088644299E+03  0.32845698586E+03  0.85282864604E+02 0.  0.
          5    1    1    2  502    0  0.25418887668E+02 -0.63082282140E+02  0.79385764257E+01  0.68633848544E+02  0.47000000000E+01 0. -1.
         -5    1    1    2    0  502  0.69554876506E+02 -0.20439487311E+02  0.16106218577E+03  0.17668834476E+03  0.47000000000E+01 0. -1.
        -11    1    3    3    0    0 -0.73990071286E+02  0.94290341022E+02  0.27510139729E+03  0.30007661996E+03  0.00000000000E+00 0. -1.
         11    1    3    3    0    0 -0.20983692888E+02 -0.10768571570E+02  0.15785045699E+02  0.28380365900E+02  0.00000000000E+00 0.  1.
<mgrwt>
<rscale>  0 0.17113622E+03</rscale>
<asrwt>0</asrwt>
<pdfrwt beam="1">  1        2 0.79512796E-01 0.17782497E+03</pdfrwt>
<pdfrwt beam="2">  1       -2 0.87609214E-02 0.17782497E+03</pdfrwt>
<totfact> 0.48034411E+03</totfact>
</mgrwt>
</event>
<event>
 7    1  0.5107591E-006  0.1360771E+03  0.7546771E-02  0.1231022E+00
          2   -1    0    0  501    0  0.00000000000E+00  0.00000000000E+00  0.65534609871E+02  0.65534609871E+02  0.00000000000E+00 0. -1.
         -2   -1    0    0    0  501 -0.00000000000E+00 -0.00000000000E+00 -0.25852108549E+03  0.25852108549E+03  0.00000000000E+00 0.  1.
         23    2    1    2    0    0  0.51807945971E+02 -0.14436144418E+02 -0.25645622294E+02  0.10837090603E+03  0.90521211880E+02 0.  0.
          5    1    1    2  502    0 -0.28620443319E+02  0.68623288365E+02 -0.72714848748E+02  0.10410487361E+03  0.47000000000E+01 0.  1.
         -5    1    1    2    0  502 -0.23187502652E+02 -0.54187143947E+02 -0.94626004576E+02  0.11157991571E+03  0.47000000000E+01 0.  1.
        -11    1    3    3    0    0  0.46206118621E+01  0.28361823237E+02 -0.33553955202E+02  0.44177041334E+02  0.00000000000E+00 0.  1.
         11    1    3    3    0    0  0.47187334109E+02 -0.42797967654E+02  0.79083329082E+01  0.64193864699E+02  0.00000000000E+00 0. -1.
<mgrwt>
<rscale>  0 0.12762574E+03</rscale>
<asrwt>0</asrwt>
<pdfrwt beam="1">  1        2 0.10082248E-01 0.13607706E+03</pdfrwt>
<pdfrwt beam="2">  1       -2 0.39772475E-01 0.13607706E+03</pdfrwt>
<totfact> 0.36548290E+03</totfact>
</mgrwt>
</event>
<event>
 7    1  0.5107591E-006  0.2466269E+03  0.7546771E-02  0.1118055E+00
          1   -1    0    0  501    0  0.00000000000E+00  0.00000000000E+00  0.50871404959E+03  0.50871404959E+03  0.00000000000E+00 0. -1.
         -1   -1    0    0    0  501 -0.00000000000E+00 -0.00000000000E+00 -0.11601792660E+03  0.11601792660E+03  0.00000000000E+00 0.  1.
         23    2    1    2    0    0  0.17148805047E+03 -0.12566558273E+03  0.13288415358E+03  0.26650425822E+03  0.90367755537E+02 0.  0.
          5    1    1    2  502    0 -0.98921217304E+02  0.83678367930E+02  0.62785765903E+02  0.14405422206E+03  0.47000000000E+01 0. -1.
         -5    1    1    2    0  502 -0.72566833163E+02  0.41987214804E+02  0.19702620351E+03  0.21417349591E+03  0.47000000000E+01 0. -1.
        -11    1    3    3    0    0  0.16888503542E+03 -0.10625918780E+03  0.89062132898E+02  0.21850682758E+03  0.00000000000E+00 0.  1.
         11    1    3    3    0    0  0.26030150447E+01 -0.19406394929E+02  0.43822020685E+02  0.47997430644E+02  0.00000000000E+00 0. -1.
<mgrwt>
<rscale>  0 0.24262680E+03</rscale>
<asrwt>0</asrwt>
<pdfrwt beam="1">  1        1 0.78263699E-01 0.24662692E+03</pdfrwt>
<pdfrwt beam="2">  1       -1 0.17848912E-01 0.24662692E+03</pdfrwt>
<totfact> 0.10722817E+03</totfact>
</mgrwt>
</event>
<event>
 7    1  0.5107591E-006  0.3070330E+03  0.7546771E-02  0.1083440E+00
         -1   -1    0    0    0  501 -0.00000000000E+00  0.00000000000E+00  0.66795288638E+03  0.66795288638E+03  0.00000000000E+00 0.  1.
          1   -1    0    0  501    0  0.00000000000E+00 -0.00000000000E+00 -0.14262679999E+03  0.14262679999E+03  0.00000000000E+00 0. -1.
         23    2    1    2    0    0  0.27964335394E+03  0.21069465893E+02  0.16370713245E+03  0.33619848989E+03  0.87092316502E+02 0.  0.
          5    1    1    2  502    0 -0.14182903267E+03  0.46196425086E+02  0.13850604878E+03  0.20360648257E+03  0.47000000000E+01 0. -1.
         -5    1    1    2    0  502 -0.13781432127E+03 -0.67265890979E+02  0.22311290517E+03  0.27077471391E+03  0.47000000000E+01 0. -1.
        -11    1    3    3    0    0  0.12887748943E+03  0.51296141118E+02  0.62692839092E+02  0.15222054214E+03  0.00000000000E+00 0.  1.
         11    1    3    3    0    0  0.15076586451E+03 -0.30226675225E+02  0.10101429336E+03  0.18397794775E+03  0.00000000000E+00 0. -1.
<mgrwt>
<rscale>  0 0.30363071E+03</rscale>
<asrwt>0</asrwt>
<pdfrwt beam="2">  1        1 0.21942585E-01 0.30703298E+03</pdfrwt>
<pdfrwt beam="1">  1       -1 0.10276198E+00 0.30703298E+03</pdfrwt>
<totfact> 0.21507596E+02</totfact>
</mgrwt>
</event>
<event>
 7    1  0.5107591E-006  0.1714104E+03  0.7546771E-02  0.1182765E+00
         -1   -1    0    0    0  501 -0.00000000000E+00  0.00000000000E+00  0.81170517492E+02  0.81170517492E+02  0.00000000000E+00 0.  1.
          1   -1    0    0  501    0  0.00000000000E+00 -0.00000000000E+00 -0.36582083481E+03  0.36582083481E+03  0.00000000000E+00 0. -1.
         23    2    1    2    0    0  0.55280949254E+02  0.10344481541E+03 -0.21649938333E+03  0.26252977300E+03  0.91066379893E+02 0.  0.
          5    1    1    2  502    0 -0.60317258439E+02 -0.10920576908E+03 -0.95858675220E+01  0.12521202227E+03  0.47000000000E+01 0. -1.
         -5    1    1    2    0  502  0.50363091850E+01  0.57609536665E+01 -0.58565066471E+02  0.59249557028E+02  0.47000000000E+01 0. -1.
        -11    1    3    3    0    0  0.64323487308E+02  0.11063671536E+03 -0.16012172013E+03  0.20498038702E+03  0.00000000000E+00 0.  1.
         11    1    3    3    0    0 -0.90425380537E+01 -0.71918999539E+01 -0.56377663199E+02  0.57549385984E+02  0.00000000000E+00 0. -1.
<mgrwt>
<rscale>  0 0.16536885E+03</rscale>
<asrwt>0</asrwt>
<pdfrwt beam="2">  1        1 0.56280128E-01 0.17141040E+03</pdfrwt>
<pdfrwt beam="1">  1       -1 0.12487772E-01 0.17141040E+03</pdfrwt>
<totfact> 0.28692121E+03</totfact>
</mgrwt>
</event>
<event>
 7    1  0.5107591E-006  0.1327746E+03  0.7546771E-02  0.1236488E+00
         -1   -1    0    0    0  501 -0.00000000000E+00  0.00000000000E+00  0.27459323975E+02  0.27459323975E+02  0.00000000000E+00 0.  1.
          1   -1    0    0  501    0  0.00000000000E+00 -0.00000000000E+00 -0.50259543589E+03  0.50259543589E+03  0.00000000000E+00 0. -1.
         23    2    1    2    0    0  0.16084692376E+02 -0.41775102323E+02 -0.22834458447E+03  0.24981351025E+03  0.90893696944E+02 0.  0.
          5    1    1    2  502    0 -0.14441828876E+02 -0.43064320648E+02 -0.11128715392E+03  0.12029140768E+03  0.47000000000E+01 0. -1.
         -5    1    1    2    0  502 -0.16428635004E+01  0.84839422971E+02 -0.13550437353E+03  0.15994984194E+03  0.47000000000E+01 0. -1.
        -11    1    3    3    0    0 -0.21106422294E+02 -0.56121272935E+02 -0.11551051261E+03  0.13014513768E+03  0.00000000000E+00 0.  1.
         11    1    3    3    0    0  0.37191114670E+02  0.14346170612E+02 -0.11283407186E+03  0.11966837257E+03  0.00000000000E+00 0. -1.
<mgrwt>
<rscale>  0 0.12409636E+03</rscale>
<asrwt>0</asrwt>
<pdfrwt beam="2">  1        1 0.77322382E-01 0.13277462E+03</pdfrwt>
<pdfrwt beam="1">  1       -1 0.42245110E-02 0.13277462E+03</pdfrwt>
<totfact> 0.96708452E+03</totfact>
</mgrwt>
</event>
<event>
 7    1  0.5107591E-006  0.1561352E+03  0.7546771E-02  0.1199855E+00
          2   -1    0    0  501    0  0.00000000000E+00  0.00000000000E+00  0.73440618036E+03  0.73440618036E+03  0.00000000000E+00 0. -1.
         -2   -1    0    0    0  501 -0.00000000000E+00 -0.00000000000E+00 -0.32146435218E+02  0.32146435218E+02  0.00000000000E+00 0.  1.
         23    2    1    2    0    0  0.68589871414E+02 -0.63628766014E+02  0.45116313761E+03  0.47087082536E+03  0.97046211248E+02 0.  0.
          5    1    1    2  502    0  0.25361473447E+02  0.44513658341E+02  0.13835687987E+03  0.14761228378E+03  0.47000000000E+01 0.  1.
         -5    1    1    2    0  502 -0.93951344861E+02  0.19115107673E+02  0.11273972766E+03  0.14806950643E+03  0.47000000000E+01 0.  1.
        -11    1    3    3    0    0  0.30567861169E+02 -0.62945153978E+02  0.40528311136E+03  0.41127957268E+03  0.00000000000E+00 0. -1.
         11    1    3    3    0    0  0.38022010245E+02 -0.68361203635E+00  0.45880026245E+02  0.59591252687E+02  0.00000000000E+00 0.  1.
<mgrwt>
<rscale>  0 0.15050417E+03</rscale>
<asrwt>0</asrwt>
<pdfrwt beam="1">  1        2 0.11298555E+00 0.15613525E+03</pdfrwt>
<pdfrwt beam="2">  1       -2 0.49456060E-02 0.15613525E+03</pdfrwt>
<totfact> 0.76370243E+03</totfact>
</mgrwt>
</event>
<event>
 7    1  0.5107591E-006  0.3735920E+03  0.7546771E-02  0.1054378E+00
          2   -1    0    0  501    0  0.00000000000E+00  0.00000000000E+00  0.19305203605E+04  0.19305203605E+04  0.00000000000E+00 0. -1.
         -2   -1    0    0    0  501 -0.00000000000E+00 -0.00000000000E+00 -0.71300181926E+02  0.71300181926E+02  0.00000000000E+00 0.  1.
         23    2    1    2    0    0 -0.33132789331E+03  0.11563733219E+03  0.10406370298E+04  0.11020153764E+04  0.91445594061E+02 0.  0.
          5    1    1    2  502    0  0.86596969849E+02 -0.91099837734E+02  0.32010135637E+03  0.34392613156E+03  0.47000000000E+01 0. -1.
         -5    1    1    2    0  502  0.24473092346E+03 -0.24537494453E+02  0.49848179240E+03  0.55587903440E+03  0.47000000000E+01 0.  1.
        -11    1    3    3    0    0 -0.14935297076E+03  0.74237083520E+02  0.36920064322E+03  0.40512537491E+03  0.00000000000E+00 0.  1.
         11    1    3    3    0    0 -0.18197492255E+03  0.41400248667E+02  0.67143638656E+03  0.69689000152E+03  0.00000000000E+00 0. -1.
<mgrwt>
<rscale>  0 0.37082501E+03</rscale>
<asrwt>0</asrwt>
<pdfrwt beam="1">  1        2 0.29700309E+00 0.37359198E+03</pdfrwt>
<pdfrwt beam="2">  1       -2 0.10969260E-01 0.37359198E+03</pdfrwt>
<totfact> 0.45612016E+02</totfact>
</mgrwt>
</event>
<event>
 7    1  0.5107591E-006  0.1831704E+03  0.7546771E-02  0.1169497E+00
         -2   -1    0    0    0  501 -0.00000000000E+00  0.00000000000E+00  0.94278516501E+03  0.94278516501E+03  0.00000000000E+00 0.  1.
          2   -1    0    0  501    0  0.00000000000E+00 -0.00000000000E+00 -0.34223381298E+02  0.34223381298E+02  0.00000000000E+00 0. -1.
         23    2    1    2    0    0 -0.54875900584E+02  0.12212804244E+03  0.30733610952E+03  0.34849943707E+03  0.95235236186E+02 0.  0.
          5    1    1    2  502    0 -0.24705378800E+02 -0.34170045580E+00  0.30592403964E+02  0.39603758422E+02  0.47000000000E+01 0. -1.
         -5    1    1    2    0  502  0.79581279384E+02 -0.12178634199E+03  0.57063327023E+03  0.58890535082E+03  0.47000000000E+01 0. -1.
        -11    1    3    3    0    0  0.30173414793E+01  0.91465523284E+02  0.22755234344E+03  0.24526539769E+03  0.00000000000E+00 0. -1.
         11    1    3    3    0    0 -0.57893242064E+02  0.30662519157E+02  0.79783766075E+02  0.10323403938E+03  0.00000000000E+00 0.  1.
<mgrwt>
<rscale>  0 0.17826029E+03</rscale>
<asrwt>0</asrwt>
<pdfrwt beam="2">  1        2 0.52651363E-02 0.18317038E+03</pdfrwt>
<pdfrwt beam="1">  1       -2 0.14504385E+00 0.18317038E+03</pdfrwt>
<totfact> 0.50229795E+02</totfact>
</mgrwt>
</event>
<event>
 7    1  0.5107591E-006  0.2706739E+03  0.7546771E-02  0.1100895E+00
         -2   -1    0    0    0  501 -0.00000000000E+00  0.00000000000E+00  0.20383065197E+03  0.20383065197E+03  0.00000000000E+00 0.  1.
          2   -1    0    0  501    0  0.00000000000E+00 -0.00000000000E+00 -0.89859356229E+02  0.89859356229E+02  0.00000000000E+00 0. -1.
         23    2    1    2    0    0  0.38749992230E+02 -0.39951275614E+01 -0.27288677183E+02  0.10108518505E+03  0.89196523429E+02 0.  0.
          5    1    1    2  502    0 -0.14037424820E+02  0.77841869625E+01 -0.21853649943E+02  0.27519354608E+02  0.47000000000E+01 0. -1.
         -5    1    1    2    0  502 -0.24712567410E+02 -0.37890594010E+01  0.16311362287E+03  0.16508546854E+03  0.47000000000E+01 0. -1.
        -11    1    3    3    0    0  0.19572532872E+02 -0.29080774442E+02  0.22841501620E+02  0.41839092742E+02  0.00000000000E+00 0.  1.
         11    1    3    3    0    0  0.19177459358E+02  0.25085646881E+02 -0.50130178802E+02  0.59246092307E+02  0.00000000000E+00 0. -1.
<mgrwt>
<rscale>  0 0.27067391E+03</rscale>
<asrwt>0</asrwt>
<pdfrwt beam="2">  1        2 0.13824516E-01 0.27067391E+03</pdfrwt>
<pdfrwt beam="1">  1       -2 0.31358562E-01 0.27067391E+03</pdfrwt>
<totfact> 0.40272025E+03</totfact>
</mgrwt>
</event>
<event>
 7    1  0.5107591E-006  0.1557277E+03  0.7546771E-02  0.1201771E+00
         -1   -1    0    0    0  501 -0.00000000000E+00  0.00000000000E+00  0.64316712230E+02  0.64316712230E+02  0.00000000000E+00 0.  1.
          1   -1    0    0  501    0  0.00000000000E+00 -0.00000000000E+00 -0.34891857048E+03  0.34891857048E+03  0.00000000000E+00 0. -1.
         23    2    1    2    0    0  0.37010285111E+01 -0.92803715447E+02 -0.19199794753E+03  0.23205414849E+03  0.91431333601E+02 0.  0.
          5    1    1    2  502    0  0.41555518952E+02  0.49571436761E+02 -0.98722107948E+02  0.11811999448E+03  0.47000000000E+01 0.  1.
         -5    1    1    2    0  502 -0.45256547463E+02  0.43232278686E+02  0.61181972231E+01  0.63061139745E+02  0.47000000000E+01 0.  1.
        -11    1    3    3    0    0 -0.30871050349E+02 -0.89693795710E+02 -0.15114715617E+03  0.17844736354E+03  0.00000000000E+00 0.  1.
         11    1    3    3    0    0  0.34572078861E+02 -0.31099197373E+01 -0.40850791363E+02  0.53606784948E+02  0.00000000000E+00 0. -1.
<mgrwt>
<rscale>  0 0.14894830E+03</rscale>
<asrwt>0</asrwt>
<pdfrwt beam="2">  1        1 0.53679781E-01 0.15572771E+03</pdfrwt>
<pdfrwt beam="1">  1       -1 0.98948786E-02 0.15572771E+03</pdfrwt>
<totfact> 0.43425783E+03</totfact>
</mgrwt>
</event>
<event>
 7    1  0.5107591E-006  0.1321194E+03  0.7546771E-02  0.1235132E+00
          2   -1    0    0  501    0  0.00000000000E+00  0.00000000000E+00  0.44319978282E+02  0.44319978282E+02  0.00000000000E+00 0. -1.
         -2   -1    0    0    0  501 -0.00000000000E+00 -0.00000000000E+00 -0.35230478205E+03  0.35230478205E+03  0.00000000000E+00 0.  1.
         23    2    1    2    0    0  0.27935752606E+02 -0.32431286037E+02 -0.77975329410E+02  0.13137034813E+03  0.96673790575E+02 0.  0.
          5    1    1    2  502    0  0.62791086607E+00 -0.34029808503E+01  0.14925033084E+02  0.16025640807E+02  0.47000000000E+01 0. -1.
         -5    1    1    2    0  502 -0.28563663472E+02  0.35834266887E+02 -0.24493450744E+03  0.24922877139E+03  0.47000000000E+01 0. -1.
        -11    1    3    3    0    0  0.47881979855E+02 -0.10791293201E+02 -0.11451494276E+01  0.49096307102E+02  0.00000000000E+00 0. -1.
         11    1    3    3    0    0 -0.19946227249E+02 -0.21639992836E+02 -0.76830179982E+02  0.82274041030E+02  0.00000000000E+00 0.  1.
<mgrwt>
<rscale>  0 0.12495989E+03</rscale>
<asrwt>0</asrwt>
<pdfrwt beam="1">  1        2 0.68184584E-02 0.13211943E+03</pdfrwt>
<pdfrwt beam="2">  1       -2 0.54200734E-01 0.13211943E+03</pdfrwt>
<totfact> 0.32543783E+03</totfact>
</mgrwt>
</event>
<event>
 7    1  0.5107591E-006  0.3037411E+03  0.7546771E-02  0.1129130E+00
         -2   -1    0    0    0  501 -0.00000000000E+00  0.00000000000E+00  0.45211515790E+02  0.45211515790E+02  0.00000000000E+00 0.  1.
          2   -1    0    0  501    0  0.00000000000E+00 -0.00000000000E+00 -0.88742074830E+03  0.88742074830E+03  0.00000000000E+00 0. -1.
         23    2    1    2    0    0  0.50489223911E+01  0.30575573877E+02 -0.15404451433E+03  0.18041597897E+03  0.88655827428E+02 0.  0.
          5    1    1    2  502    0 -0.21977050777E+02  0.97678041917E+02 -0.56402340910E+03  0.57285991887E+03  0.47000000000E+01 0. -1.
         -5    1    1    2    0  502  0.16928128386E+02 -0.12825361579E+03 -0.12414130908E+03  0.17935636625E+03  0.47000000000E+01 0.  1.
        -11    1    3    3    0    0  0.40162397092E+02  0.38494929432E+02 -0.11209068950E+03  0.12513672684E+03  0.00000000000E+00 0.  1.
         11    1    3    3    0    0 -0.35113474701E+02 -0.79193555548E+01 -0.41953824836E+02  0.55279252132E+02  0.00000000000E+00 0. -1.
<mgrwt>
<rscale>  0 0.22649706E+03</rscale>
<asrwt>0</asrwt>
<pdfrwt beam="2">  1        2 0.13652627E+00 0.30374111E+03</pdfrwt>
<pdfrwt beam="1">  1       -2 0.69556179E-02 0.30374111E+03</pdfrwt>
<totfact> 0.36435054E+03</totfact>
</mgrwt>
</event>
<event>
 7    1  0.5107591E-006  0.1986955E+03  0.7546771E-02  0.1169663E+00
          1   -1    0    0  501    0  0.00000000000E+00  0.00000000000E+00  0.13475981201E+03  0.13475981201E+03  0.00000000000E+00 0. -1.
         -1   -1    0    0    0  501 -0.00000000000E+00 -0.00000000000E+00 -0.19862626603E+03  0.19862626603E+03  0.00000000000E+00 0.  1.
         23    2    1    2    0    0 -0.65038835632E+02  0.24526675437E+02 -0.31784605555E+02  0.13211721074E+03  0.10776403981E+03 0.  0.
          5    1    1    2  502    0  0.19242426650E+02  0.80723897834E+02 -0.21807253464E+02  0.85931745988E+02  0.47000000000E+01 0. -1.
         -5    1    1    2    0  502  0.45796408982E+02 -0.10525057327E+03 -0.10274594995E+02  0.11533712131E+03  0.47000000000E+01 0.  1.
        -11    1    3    3    0    0 -0.47798254639E+02  0.20794130682E+01 -0.69861012736E+02  0.84673243742E+02  0.00000000000E+00 0.  1.
         11    1    3    3    0    0 -0.17240580992E+02  0.22447262369E+02  0.38076407181E+02  0.47443966999E+02  0.00000000000E+00 0. -1.
<mgrwt>
<rscale>  0 0.17809195E+03</rscale>
<asrwt>0</asrwt>
<pdfrwt beam="1">  1        1 0.20732279E-01 0.19869553E+03</pdfrwt>
<pdfrwt beam="2">  1       -1 0.30557887E-01 0.19869553E+03</pdfrwt>
<totfact> 0.23784024E+03</totfact>
</mgrwt>
</event>
<event>
 7    1  0.5107591E-006  0.1817837E+03  0.7546771E-02  0.1171495E+00
         -2   -1    0    0    0  501 -0.00000000000E+00  0.00000000000E+00  0.91664264112E+02  0.91664264112E+02  0.00000000000E+00 0.  1.
          2   -1    0    0  501    0  0.00000000000E+00 -0.00000000000E+00 -0.32336115226E+03  0.32336115226E+03  0.00000000000E+00 0. -1.
         23    2    1    2    0    0 -0.86162392577E+02 -0.99930740640E+02 -0.86743336002E+02  0.18252414878E+03  0.91545331549E+02 0.  0.
          5    1    1    2  502    0  0.32346675758E+02 -0.21939933764E+02 -0.57887801969E+01  0.39790301611E+02  0.47000000000E+01 0.  1.
         -5    1    1    2    0  502  0.53815716819E+02  0.12187067440E+03 -0.13916477195E+03  0.19271096598E+03  0.47000000000E+01 0.  1.
        -11    1    3    3    0    0 -0.39451701865E+02 -0.31203183222E+02  0.13729063159E+02  0.52139836962E+02  0.00000000000E+00 0.  1.
         11    1    3    3    0    0 -0.46710690712E+02 -0.68727557418E+02 -0.10047239916E+03  0.13038431182E+03  0.00000000000E+00 0. -1.
<mgrwt>
<rscale>  0 0.17623776E+03</rscale>
<asrwt>0</asrwt>
<pdfrwt beam="2">  1        2 0.49747870E-01 0.18178368E+03</pdfrwt>
<pdfrwt beam="1">  1       -2 0.14102194E-01 0.18178368E+03</pdfrwt>
<totfact> 0.37397373E+03</totfact>
</mgrwt>
</event>
<event>
 6    1  0.5107591E-006  0.3482845E+03  0.7546771E-02  0.1102368E+00
         -2   -1    0    0    0  501 -0.00000000000E+00  0.00000000000E+00  0.80675053685E+02  0.80675053685E+02  0.00000000000E+00 0.  1.
          2   -1    0    0  501    0  0.00000000000E+00 -0.00000000000E+00 -0.70529203370E+03  0.70529203370E+03  0.00000000000E+00 0. -1.
          5    1    1    2  502    0  0.31632892342E+02  0.14147824271E+02 -0.96330052838E+01  0.36272380682E+02  0.47000000000E+01 0. -1.
         -5    1    1    2    0  502 -0.43685411810E+02  0.91241149901E+01 -0.21363587556E+03  0.21829805772E+03  0.47000000000E+01 0.  1.
        -11    1    1    2    0    0  0.12688897579E+03  0.10130487834E+03 -0.11603760799E+03  0.19957008048E+03  0.00000000000E+00 0.  1.
         11    1    1    2    0    0 -0.11483645633E+03 -0.12457681760E+03 -0.28531049118E+03  0.33182656850E+03  0.00000000000E+00 0. -1.
<mgrwt>
<rscale>  0 0.26810604E+03</rscale>
<asrwt>0</asrwt>
<pdfrwt beam="2">  1        2 0.10850647E+00 0.34828451E+03</pdfrwt>
<pdfrwt beam="1">  1       -2 0.12411547E-01 0.34828451E+03</pdfrwt>
<totfact> 0.19476078E+03</totfact>
</mgrwt>
</event>
<event>
 7    1  0.5107591E-006  0.1719385E+03  0.7546771E-02  0.1181589E+00
          1   -1    0    0  501    0  0.00000000000E+00  0.00000000000E+00  0.93605283208E+02  0.93605283208E+02  0.00000000000E+00 0. -1.
         -1   -1    0    0    0  501 -0.00000000000E+00 -0.00000000000E+00 -0.27896438887E+03  0.27896438887E+03  0.00000000000E+00 0.  1.
         23    2    1    2    0    0 -0.15249919364E+02  0.11706634021E+03 -0.80240834020E+02  0.17104372871E+03  0.94235225028E+02 0.  0.
          5    1    1    2  502    0 -0.34586689702E+02 -0.19208271327E+02  0.11303723946E+02  0.41413294567E+02  0.47000000000E+01 0. -1.
         -5    1    1    2    0  502  0.49836609066E+02 -0.97858068885E+02 -0.11642199559E+03  0.16011264880E+03  0.47000000000E+01 0. -1.
        -11    1    3    3    0    0 -0.47825241256E+02  0.31817304847E+02 -0.16628899074E+02  0.59800626028E+02  0.00000000000E+00 0.  1.
         11    1    3    3    0    0  0.32575321892E+02  0.85249035365E+02 -0.63611934946E+02  0.11124310268E+03  0.00000000000E+00 0. -1.
<mgrwt>
<rscale>  0 0.16646122E+03</rscale>
<asrwt>0</asrwt>
<pdfrwt beam="1">  1        1 0.14400813E-01 0.17193852E+03</pdfrwt>
<pdfrwt beam="2">  1       -1 0.42917598E-01 0.17193852E+03</pdfrwt>
<totfact> 0.20998744E+03</totfact>
</mgrwt>
</event>
<event>
 7    1  0.5107591E-006  0.2927613E+03  0.7546771E-02  0.1090581E+00
          2   -1    0    0  501    0  0.00000000000E+00  0.00000000000E+00  0.13786080404E+04  0.13786080404E+04  0.00000000000E+00 0.  1.
         -2   -1    0    0    0  501 -0.00000000000E+00 -0.00000000000E+00 -0.59570390129E+02  0.59570390129E+02  0.00000000000E+00 0. -1.
         23    2    1    2    0    0 -0.13778455823E+03  0.22605246540E+03  0.62438190822E+03  0.68435101925E+03  0.91647414801E+02 0.  0.
          5    1    1    2  502    0  0.27124389655E+02 -0.67205501552E+02  0.74087560642E+02  0.10374665583E+03  0.47000000000E+01 0. -1.
         -5    1    1    2    0  502  0.11066016857E+03 -0.15884696385E+03  0.62056818142E+03  0.65008075546E+03  0.47000000000E+01 0. -1.
        -11    1    3    3    0    0 -0.62228529815E+01  0.89038442627E+02  0.17418387887E+03  0.19572069850E+03  0.00000000000E+00 0.  1.
         11    1    3    3    0    0 -0.13156170525E+03  0.13701402277E+03  0.45019802935E+03  0.48863032075E+03  0.00000000000E+00 0. -1.
<mgrwt>
<rscale>  0 0.28955599E+03</rscale>
<asrwt>0</asrwt>
<pdfrwt beam="1">  1        2 0.21209352E+00 0.29276128E+03</pdfrwt>
<pdfrwt beam="2">  1       -2 0.91646765E-02 0.29276128E+03</pdfrwt>
<totfact> 0.12109794E+03</totfact>
</mgrwt>
</event>
<event>
 7    1  0.5107591E-006  0.1717715E+03  0.7546771E-02  0.1182107E+00
         -1   -1    0    0    0  501 -0.00000000000E+00  0.00000000000E+00  0.38539574994E+02  0.38539574994E+02  0.00000000000E+00 0.  1.
          1   -1    0    0  501    0  0.00000000000E+00 -0.00000000000E+00 -0.72420446846E+03  0.72420446846E+03  0.00000000000E+00 0. -1.
         23    2    1    2    0    0  0.99419966557E+02 -0.63211579056E+02 -0.42464297045E+03  0.45027341347E+03  0.92436253976E+02 0.  0.
          5    1    1    2  502    0  0.17128452290E+02  0.51151242717E+02 -0.73261564048E+02  0.91099836861E+02  0.47000000000E+01 0. -1.
         -5    1    1    2    0  502 -0.11654841885E+03  0.12060336339E+02 -0.18776035897E+03  0.22137079313E+03  0.47000000000E+01 0. -1.
        -11    1    3    3    0    0  0.11623196432E+03 -0.64293574072E+02 -0.37226152552E+03  0.39524951180E+03  0.00000000000E+00 0. -1.
         11    1    3    3    0    0 -0.16811997763E+02  0.10819950158E+01 -0.52381444927E+02  0.55023901667E+02  0.00000000000E+00 0.  1.
<mgrwt>
<rscale>  0 0.16597920E+03</rscale>
<asrwt>0</asrwt>
<pdfrwt beam="2">  1        1 0.11141607E+00 0.17177151E+03</pdfrwt>
<pdfrwt beam="1">  1       -1 0.59291655E-02 0.17177151E+03</pdfrwt>
<totfact> 0.35886410E+03</totfact>
</mgrwt>
</event>
<event>
 7    1  0.5107591E-006  0.1359013E+03  0.7546771E-02  0.1232018E+00
         -1   -1    0    0    0  501 -0.00000000000E+00  0.00000000000E+00  0.22242992759E+03  0.22242992759E+03  0.00000000000E+00 0.  1.
          1   -1    0    0  501    0  0.00000000000E+00 -0.00000000000E+00 -0.64447110048E+02  0.64447110048E+02  0.00000000000E+00 0. -1.
         23    2    1    2    0    0  0.42408819550E+02 -0.32338135078E+02  0.67954802631E+02  0.12386110119E+03  0.88766289944E+02 0.  0.
          5    1    1    2  502    0 -0.65399464503E+02 -0.21621055820E+02  0.75700233240E+02  0.10245572373E+03  0.47000000000E+01 0. -1.
         -5    1    1    2    0  502  0.22990644952E+02  0.53959190898E+02  0.14327781672E+02  0.60560212726E+02  0.47000000000E+01 0. -1.
        -11    1    3    3    0    0  0.31132769858E+02 -0.14154060216E+02  0.88080438648E+02  0.94486773953E+02  0.00000000000E+00 0.  1.
         11    1    3    3    0    0  0.11276049692E+02 -0.18184074862E+02 -0.20125636017E+02  0.29374327233E+02  0.00000000000E+00 0. -1.
<mgrwt>
<rscale>  0 0.12697282E+03</rscale>
<asrwt>0</asrwt>
<pdfrwt beam="2">  1        1 0.99149401E-02 0.13590126E+03</pdfrwt>
<pdfrwt beam="1">  1       -1 0.34219989E-01 0.13590126E+03</pdfrwt>
<totfact> 0.50364956E+03</totfact>
</mgrwt>
</event>
<event>
 7    1  0.5107591E-006  0.1330894E+03  0.7546771E-02  0.1236506E+00
          4   -1    0    0  501    0  0.00000000000E+00  0.00000000000E+00  0.22403555010E+02  0.22403555010E+02  0.00000000000E+00 0. -1.
         -4   -1    0    0    0  501 -0.00000000000E+00 -0.00000000000E+00 -0.89817976260E+03  0.89817976260E+03  0.00000000000E+00 0.  1.
         23    2    1    2    0    0 -0.23730943404E+02 -0.39049580985E+02 -0.13718445180E+03  0.17009642317E+03  0.89583435454E+02 0.  0.
          5    1    1    2  502    0  0.34434580220E+02 -0.35889625513E+02 -0.42150516144E+03  0.42445552965E+03  0.47000000000E+01 0.  1.
         -5    1    1    2    0  502 -0.10703636816E+02  0.74939206497E+02 -0.31708659434E+03  0.32603136479E+03  0.47000000000E+01 0.  1.
        -11    1    3    3    0    0 -0.27218820366E+02  0.22451143058E+02 -0.73306712981E+02  0.81355959677E+02  0.00000000000E+00 0.  1.
         11    1    3    3    0    0  0.34878769621E+01 -0.61500724043E+02 -0.63877738823E+02  0.88740463491E+02  0.00000000000E+00 0. -1.
<mgrwt>
<rscale>  0 0.12408488E+03</rscale>
<asrwt>0</asrwt>
<pdfrwt beam="1">  1        4 0.34467012E-02 0.13308943E+03</pdfrwt>
<pdfrwt beam="2">  1       -4 0.13818148E+00 0.13308943E+03</pdfrwt>
<totfact> 0.28272412E+02</totfact>
</mgrwt>
</event>
<event>
 7    1  0.5107591E-006  0.1299158E+03  0.7546771E-02  0.1241530E+00
          1   -1    0    0  501    0  0.00000000000E+00  0.00000000000E+00  0.15384734631E+02  0.15384734631E+02  0.00000000000E+00 0. -1.
         -1   -1    0    0    0  501 -0.00000000000E+00 -0.00000000000E+00 -0.86433853312E+03  0.86433853312E+03  0.00000000000E+00 0.  1.
         23    2    1    2    0    0  0.31145058450E+02  0.16855460040E+02 -0.29462380500E+03  0.31037287559E+03  0.90961608575E+02 0.  0.
          5    1    1    2  502    0  0.68438986098E+01 -0.66614948420E+02 -0.28369238951E+03  0.29152676064E+03  0.47000000000E+01 0.  1.
         -5    1    1    2    0  502 -0.37988957060E+02  0.49759488381E+02 -0.27063760397E+03  0.27782363151E+03  0.47000000000E+01 0.  1.
        -11    1    3    3    0    0  0.38192819826E+02 -0.22807960335E+02 -0.22968809985E+03  0.23395623043E+03  0.00000000000E+00 0.  1.
         11    1    3    3    0    0 -0.70477613759E+01  0.39663420375E+02 -0.64935705143E+02  0.76416645168E+02  0.00000000000E+00 0. -1.
<mgrwt>
<rscale>  0 0.12095466E+03</rscale>
<asrwt>0</asrwt>
<pdfrwt beam="1">  1        1 0.23668823E-02 0.12991585E+03</pdfrwt>
<pdfrwt beam="2">  1       -1 0.13297516E+00 0.12991585E+03</pdfrwt>
<totfact> 0.23657428E+03</totfact>
</mgrwt>
</event>
<event>
 7    1  0.5107591E-006  0.1356049E+03  0.7546771E-02  0.1233037E+00
          2   -1    0    0  501    0  0.00000000000E+00  0.00000000000E+00  0.64150969640E+02  0.64150969640E+02  0.00000000000E+00 0. -1.
         -2   -1    0    0    0  501 -0.00000000000E+00 -0.00000000000E+00 -0.23927565644E+03  0.23927565644E+03  0.00000000000E+00 0.  1.
         23    2    1    2    0    0 -0.48247613122E+02  0.20908598204E+02 -0.33700899448E+02  0.10749457928E+03  0.87489041032E+02 0.  0.
          5    1    1    2  502    0  0.15193069509E+01 -0.68268563043E+02 -0.79683403417E+02  0.10504494169E+03  0.47000000000E+01 0.  1.
         -5    1    1    2    0  502  0.46728306171E+02  0.47359964839E+02 -0.61740383933E+02  0.90887105111E+02  0.47000000000E+01 0.  1.
        -11    1    3    3    0    0 -0.28945270480E+02 -0.23299903806E+02 -0.44589187095E+02  0.58042310484E+02  0.00000000000E+00 0.  1.
         11    1    3    3    0    0 -0.19302342641E+02  0.44208502009E+02  0.10888287647E+02  0.49452268798E+02  0.00000000000E+00 0. -1.
<mgrwt>
<rscale>  0 0.12630963E+03</rscale>
<asrwt>0</asrwt>
<pdfrwt beam="1">  1        2 0.98693797E-02 0.13560486E+03</pdfrwt>
<pdfrwt beam="2">  1       -2 0.36811640E-01 0.13560486E+03</pdfrwt>
<totfact> 0.43370239E+03</totfact>
</mgrwt>
</event>
<event>
 7    1  0.5107591E-006  0.1331875E+03  0.7546771E-02  0.1234661E+00
         -1   -1    0    0    0  501 -0.00000000000E+00  0.00000000000E+00  0.66722878598E+02  0.66722878598E+02  0.00000000000E+00 0.  1.
          1   -1    0    0  501    0  0.00000000000E+00 -0.00000000000E+00 -0.23872921465E+03  0.23872921465E+03  0.00000000000E+00 0. -1.
         23    2    1    2    0    0  0.43638100598E+02 -0.14772013638E+02 -0.12828070148E+03  0.16527062113E+03  0.93466269995E+02 0.  0.
          5    1    1    2  502    0 -0.11442902485E+02  0.43426482552E+02  0.30311170359E+02  0.54384340142E+02  0.47000000000E+01 0.  1.
         -5    1    1    2    0  502 -0.32195198113E+02 -0.28654468914E+02 -0.74036804931E+02  0.85797131972E+02  0.47000000000E+01 0.  1.
        -11    1    3    3    0    0  0.45473500277E+02 -0.39567226822E+02 -0.37143523091E+02  0.70802866986E+02  0.00000000000E+00 0.  1.
         11    1    3    3    0    0 -0.18353996793E+01  0.24795213184E+02 -0.91137178388E+02  0.94467754146E+02  0.00000000000E+00 0. -1.
<mgrwt>
<rscale>  0 0.12526178E+03</rscale>
<asrwt>0</asrwt>
<pdfrwt beam="2">  1        1 0.36727572E-01 0.13318751E+03</pdfrwt>
<pdfrwt beam="1">  1       -1 0.10265058E-01 0.13318751E+03</pdfrwt>
<totfact> 0.65156457E+03</totfact>
</mgrwt>
</event>
<event>
 7    1  0.5107591E-006  0.1261507E+03  0.7546771E-02  0.1248535E+00
         -1   -1    0    0    0  501 -0.00000000000E+00  0.00000000000E+00  0.12723282378E+03  0.12723282378E+03  0.00000000000E+00 0.  1.
          1   -1    0    0  501    0  0.00000000000E+00 -0.00000000000E+00 -0.94173930360E+02  0.94173930360E+02  0.00000000000E+00 0. -1.
         23    2    1    2    0    0 -0.11981471138E+02 -0.11995126385E+02  0.94713335472E+01  0.93069822113E+02  0.91021134476E+02 0.  0.
          5    1    1    2  502    0 -0.81457969189E+01  0.49815418343E+02  0.55154609194E+02  0.74913622443E+02  0.47000000000E+01 0.  1.
         -5    1    1    2    0  502  0.20127268057E+02 -0.37820291958E+02 -0.31567049326E+02  0.53423309579E+02  0.47000000000E+01 0.  1.
        -11    1    3    3    0    0  0.22041883010E+02 -0.44445470364E+01  0.40554642267E+02  0.46371085974E+02  0.00000000000E+00 0.  1.
         11    1    3    3    0    0 -0.34023354148E+02 -0.75505793486E+01 -0.31083308720E+02  0.46698736139E+02  0.00000000000E+00 0. -1.
<mgrwt>
<rscale>  0 0.11676274E+03</rscale>
<asrwt>0</asrwt>
<pdfrwt beam="2">  1        1 0.14488297E-01 0.12615068E+03</pdfrwt>
<pdfrwt beam="1">  1       -1 0.19574281E-01 0.12615068E+03</pdfrwt>
<totfact> 0.76599201E+03</totfact>
</mgrwt>
</event>
<event>
 7    1  0.5107591E-006  0.1471255E+03  0.7546771E-02  0.1213723E+00
         -1   -1    0    0    0  501 -0.00000000000E+00  0.00000000000E+00  0.19374264401E+02  0.19374264401E+02  0.00000000000E+00 0.  1.
          1   -1    0    0  501    0  0.00000000000E+00 -0.00000000000E+00 -0.94227817306E+03  0.94227817306E+03  0.00000000000E+00 0. -1.
         23    2    1    2    0    0  0.43712875363E+02  0.64089717246E+02 -0.49160803911E+03  0.50595293632E+03  0.91058235876E+02 0.  0.
          5    1    1    2  502    0 -0.44044189332E+02 -0.99285050282E+02 -0.35987662455E+03  0.37593973815E+03  0.47000000000E+01 0.  1.
         -5    1    1    2    0  502  0.33131396917E+00  0.35195333036E+02 -0.71419245001E+02  0.79759762995E+02  0.47000000000E+01 0.  1.
        -11    1    3    3    0    0  0.10762532864E+02 -0.22656102156E+02 -0.73179320929E+02  0.77358542451E+02  0.00000000000E+00 0.  1.
         11    1    3    3    0    0  0.32950342499E+02  0.86745819401E+02 -0.41842871818E+03  0.42859439387E+03  0.00000000000E+00 0. -1.
<mgrwt>
<rscale>  0 0.13970776E+03</rscale>
<asrwt>0</asrwt>
<pdfrwt beam="2">  1        1 0.14496588E+00 0.14712548E+03</pdfrwt>
<pdfrwt beam="1">  1       -1 0.29806559E-02 0.14712548E+03</pdfrwt>
<totfact> 0.65657910E+03</totfact>
</mgrwt>
</event>
<event>
 7    1  0.5107591E-006  0.1991140E+03  0.7546771E-02  0.1155157E+00
          2   -1    0    0  501    0  0.00000000000E+00  0.00000000000E+00  0.14034327116E+03  0.14034327116E+03  0.00000000000E+00 0. -1.
         -2   -1    0    0    0  501 -0.00000000000E+00 -0.00000000000E+00 -0.29947391893E+03  0.29947391893E+03  0.00000000000E+00 0.  1.
         23    2    1    2    0    0  0.10882710540E+03  0.11035519112E+03  0.98941122619E+01  0.17863573591E+03  0.88267919468E+02 0.  0.
          5    1    1    2  502    0 -0.11083312718E+03 -0.60652160841E+02 -0.57332730539E+02  0.13882290404E+03  0.47000000000E+01 0. -1.
         -5    1    1    2    0  502  0.20060217794E+01 -0.49703030280E+02 -0.11169202949E+03  0.12235855015E+03  0.47000000000E+01 0. -1.
        -11    1    3    3    0    0  0.73065840057E+02  0.28764710517E+02  0.35163241205E+02  0.86037660861E+02  0.00000000000E+00 0. -1.
         11    1    3    3    0    0  0.35761265345E+02  0.81590480605E+02 -0.25269128943E+02  0.92598075044E+02  0.00000000000E+00 0.  1.
<mgrwt>
<rscale>  0 0.19370982E+03</rscale>
<asrwt>0</asrwt>
<pdfrwt beam="1">  1        2 0.21591272E-01 0.19911399E+03</pdfrwt>
<pdfrwt beam="2">  1       -2 0.46072911E-01 0.19911399E+03</pdfrwt>
<totfact> 0.11407512E+03</totfact>
</mgrwt>
</event>
<event>
 7    1  0.5107591E-006  0.1342569E+03  0.7546771E-02  0.1233200E+00
         -2   -1    0    0    0  501 -0.00000000000E+00  0.00000000000E+00  0.19060910188E+03  0.19060910188E+03  0.00000000000E+00 0.  1.
          2   -1    0    0  501    0  0.00000000000E+00 -0.00000000000E+00 -0.74999904203E+02  0.74999904203E+02  0.00000000000E+00 0. -1.
         23    2    1    2    0    0  0.45271617576E+02  0.18779115051E+02  0.48163894206E+02  0.11536322570E+03  0.92664656799E+02 0.  0.
          5    1    1    2  502    0 -0.70810318881E+02  0.30201638766E+02  0.50837613890E+02  0.92373119631E+02  0.47000000000E+01 0.  1.
         -5    1    1    2    0  502  0.25538701305E+02 -0.48980753818E+02  0.16607689583E+02  0.57872660749E+02  0.47000000000E+01 0.  1.
        -11    1    3    3    0    0  0.11859579592E+02  0.17116550478E+02  0.71567901545E+02  0.74535833395E+02  0.00000000000E+00 0.  1.
         11    1    3    3    0    0  0.33412037984E+02  0.16625645730E+01 -0.23404007339E+02  0.40827392309E+02  0.00000000000E+00 0. -1.
<mgrwt>
<rscale>  0 0.12620364E+03</rscale>
<asrwt>0</asrwt>
<pdfrwt beam="2">  1        2 0.11538447E-01 0.13425694E+03</pdfrwt>
<pdfrwt beam="1">  1       -2 0.29324477E-01 0.13425694E+03</pdfrwt>
<totfact> 0.54275871E+03</totfact>
</mgrwt>
</event>
<event>
 7    1  0.5107591E-006  0.1420625E+03  0.7546771E-02  0.1221613E+00
         -1   -1    0    0    0  501 -0.00000000000E+00  0.00000000000E+00  0.17046657434E+03  0.17046657434E+03  0.00000000000E+00 0.  1.
          1   -1    0    0  501    0  0.00000000000E+00 -0.00000000000E+00 -0.11134499241E+03  0.11134499241E+03  0.00000000000E+00 0. -1.
         23    2    1    2    0    0  0.49129719877E+02  0.46288284043E+02 -0.26963791617E+02  0.11570186272E+03  0.90019666540E+02 0.  0.
          5    1    1    2  502    0 -0.50148876755E+02 -0.87013096318E+02  0.67428257884E+02  0.12105721264E+03  0.47000000000E+01 0.  1.
         -5    1    1    2    0  502  0.10191568781E+01  0.40724812276E+02  0.18657115662E+02  0.45052491390E+02  0.47000000000E+01 0.  1.
        -11    1    3    3    0    0  0.41468764680E+02  0.29528901276E+02 -0.59502148590E+02  0.78307854916E+02  0.00000000000E+00 0. -1.
         11    1    3    3    0    0  0.76609551968E+01  0.16759382767E+02  0.32538356973E+02  0.37394007806E+02  0.00000000000E+00 0.  1.
<mgrwt>
<rscale>  0 0.13401801E+03</rscale>
<asrwt>0</asrwt>
<pdfrwt beam="2">  1        1 0.17129999E-01 0.14206246E+03</pdfrwt>
<pdfrwt beam="1">  1       -1 0.26225627E-01 0.14206246E+03</pdfrwt>
<totfact> 0.38665471E+03</totfact>
</mgrwt>
</event>
<event>
 7    1  0.5107591E-006  0.1572955E+03  0.7546771E-02  0.1199818E+00
          1   -1    0    0  501    0  0.00000000000E+00  0.00000000000E+00  0.43185760549E+03  0.43185760549E+03  0.00000000000E+00 0.  1.
         -1   -1    0    0    0  501 -0.00000000000E+00 -0.00000000000E+00 -0.76708940252E+02  0.76708940252E+02  0.00000000000E+00 0. -1.
         23    2    1    2    0    0  0.93042755992E+02 -0.21466770039E+02  0.32176483705E+03  0.34776745359E+03  0.91059402351E+02 0.  0.
          5    1    1    2  502    0 -0.81831189359E+02  0.55051218826E+02 -0.15821769280E+02  0.99996993101E+02  0.47000000000E+01 0.  1.
         -5    1    1    2    0  502 -0.11211566633E+02 -0.33584448787E+02  0.49205597467E+02  0.60802099049E+02  0.47000000000E+01 0.  1.
        -11    1    3    3    0    0  0.66211480249E+02  0.10677144786E+02  0.28255037971E+03  0.29040089292E+03  0.00000000000E+00 0.  1.
         11    1    3    3    0    0  0.26831275743E+02 -0.32143914824E+02  0.39214457344E+02  0.57366560669E+02  0.00000000000E+00 0. -1.
<mgrwt>
<rscale>  0 0.15053440E+03</rscale>
<asrwt>0</asrwt>
<pdfrwt beam="1">  1        1 0.66439630E-01 0.15729548E+03</pdfrwt>
<pdfrwt beam="2">  1       -1 0.11801376E-01 0.15729548E+03</pdfrwt>
<totfact> 0.25299966E+03</totfact>
</mgrwt>
</event>
<event>
 7    1  0.5107591E-006  0.1667550E+03  0.7546771E-02  0.1188740E+00
          1   -1    0    0  501    0  0.00000000000E+00  0.00000000000E+00  0.69493746968E+03  0.69493746968E+03  0.00000000000E+00 0. -1.
         -1   -1    0    0    0  501 -0.00000000000E+00 -0.00000000000E+00 -0.34429883598E+02  0.34429883598E+02  0.00000000000E+00 0.  1.
         23    2    1    2    0    0  0.13014807453E+01  0.11036423201E+03  0.33776186420E+03  0.36608782521E+03  0.88063961393E+02 0.  0.
          5    1    1    2  502    0  0.58002316888E+02 -0.40965996309E+02  0.18240494456E+03  0.19579615782E+03  0.47000000000E+01 0.  1.
         -5    1    1    2    0  502 -0.59303797633E+02 -0.69398235696E+02  0.14034077732E+03  0.16748337025E+03  0.47000000000E+01 0.  1.
        -11    1    3    3    0    0 -0.27010568461E+02  0.87883145720E+02  0.15866231008E+03  0.18337597103E+03  0.00000000000E+00 0.  1.
         11    1    3    3    0    0  0.28312049206E+02  0.22481086286E+02  0.17909955412E+03  0.18271185418E+03  0.00000000000E+00 0. -1.
<mgrwt>
<rscale>  0 0.15996211E+03</rscale>
<asrwt>0</asrwt>
<pdfrwt beam="1">  1        1 0.10691345E+00 0.16675495E+03</pdfrwt>
<pdfrwt beam="2">  1       -1 0.52969057E-02 0.16675495E+03</pdfrwt>
<totfact> 0.45036148E+03</totfact>
</mgrwt>
</event>
<event>
 7    1  0.5107591E-006  0.1565717E+03  0.7546771E-02  0.1200874E+00
          2   -1    0    0  501    0  0.00000000000E+00  0.00000000000E+00  0.26801302617E+03  0.26801302617E+03  0.00000000000E+00 0. -1.
         -2   -1    0    0    0  501 -0.00000000000E+00 -0.00000000000E+00 -0.10756348133E+03  0.10756348133E+03  0.00000000000E+00 0.  1.
         23    2    1    2    0    0  0.92766682547E+02 -0.16928680723E+02  0.17486416862E+03  0.21834264555E+03  0.90574807632E+02 0.  0.
          5    1    1    2  502    0 -0.10106971621E+03  0.44063870402E+02  0.20238942071E+02  0.11219811489E+03  0.47000000000E+01 0. -1.
         -5    1    1    2    0  502  0.83030336632E+01 -0.27135189679E+02 -0.34653565844E+02  0.45035747053E+02  0.47000000000E+01 0. -1.
        -11    1    3    3    0    0  0.89199546959E+02  0.20355394573E+02  0.10660752595E+03  0.14048510901E+03  0.00000000000E+00 0. -1.
         11    1    3    3    0    0  0.35671355888E+01 -0.37284075296E+02  0.68256642671E+02  0.77857536538E+02  0.00000000000E+00 0.  1.
<mgrwt>
<rscale>  0 0.14967419E+03</rscale>
<asrwt>0</asrwt>
<pdfrwt beam="1">  1        2 0.41232773E-01 0.15657173E+03</pdfrwt>
<pdfrwt beam="2">  1       -2 0.16548228E-01 0.15657173E+03</pdfrwt>
<totfact> 0.34882949E+03</totfact>
</mgrwt>
</event>
<event>
 7    1  0.5107591E-006  0.1364668E+03  0.7546771E-02  0.1230052E+00
         -2   -1    0    0    0  501 -0.00000000000E+00  0.00000000000E+00  0.71939089575E+02  0.71939089575E+02  0.00000000000E+00 0.  1.
          2   -1    0    0  501    0  0.00000000000E+00 -0.00000000000E+00 -0.22549968361E+03  0.22549968361E+03  0.00000000000E+00 0. -1.
         23    2    1    2    0    0  0.54651138849E+02 -0.33340620183E+01 -0.11252896341E+03  0.15493688887E+03  0.91349925988E+02 0.  0.
          5    1    1    2  502    0 -0.53498688542E+02  0.58057804024E+01  0.36234474768E+02  0.65044937724E+02  0.47000000000E+01 0.  1.
         -5    1    1    2    0  502 -0.11524503076E+01 -0.24717183840E+01 -0.77266105394E+02  0.77456946598E+02  0.47000000000E+01 0.  1.
        -11    1    3    3    0    0 -0.53648577059E+01 -0.17127227244E+02  0.79519301947E+01  0.19630507000E+02  0.00000000000E+00 0.  1.
         11    1    3    3    0    0  0.60015996555E+02  0.13793165225E+02 -0.12048089361E+03  0.13530638187E+03  0.00000000000E+00 0. -1.
<mgrwt>
<rscale>  0 0.12826546E+03</rscale>
<asrwt>0</asrwt>
<pdfrwt beam="2">  1        2 0.34692258E-01 0.13646682E+03</pdfrwt>
<pdfrwt beam="1">  1       -2 0.11067553E-01 0.13646682E+03</pdfrwt>
<totfact> 0.79840368E+03</totfact>
</mgrwt>
</event>
<event>
 7    1  0.5107591E-006  0.1598140E+03  0.7546771E-02  0.1196511E+00
          2   -1    0    0  501    0  0.00000000000E+00  0.00000000000E+00  0.98206724479E+03  0.98206724479E+03  0.00000000000E+00 0. -1.
         -2   -1    0    0    0  501 -0.00000000000E+00 -0.00000000000E+00 -0.22217697004E+02  0.22217697004E+02  0.00000000000E+00 0.  1.
         23    2    1    2    0    0 -0.86759472902E+02 -0.48879618512E+02  0.41368784310E+03  0.43522155713E+03  0.91453534731E+02 0.  0.
          5    1    1    2  502    0 -0.53800132323E+01  0.60751123327E+02  0.29389208448E+03  0.30019042431E+03  0.47000000000E+01 0. -1.
         -5    1    1    2    0  502  0.92139486134E+02 -0.11871504815E+02  0.25226962020E+03  0.26887296035E+03  0.47000000000E+01 0. -1.
        -11    1    3    3    0    0 -0.55593026365E+02 -0.64847844126E+02  0.36729230858E+03  0.37709344652E+03  0.00000000000E+00 0. -1.
         11    1    3    3    0    0 -0.31166446537E+02  0.15968225614E+02  0.46395534521E+02  0.58128110605E+02  0.00000000000E+00 0.  1.
<mgrwt>
<rscale>  0 0.15327056E+03</rscale>
<asrwt>0</asrwt>
<pdfrwt beam="1">  1        2 0.15108723E+00 0.15981404E+03</pdfrwt>
<pdfrwt beam="2">  1       -2 0.34181080E-02 0.15981404E+03</pdfrwt>
<totfact> 0.91376650E+03</totfact>
</mgrwt>
</event>
<event>
 7    1  0.5107591E-006  0.1314080E+03  0.7546771E-02  0.1239430E+00
         -3   -1    0    0    0  501 -0.00000000000E+00  0.00000000000E+00  0.49263818263E+02  0.49263818263E+02  0.00000000000E+00 0.  1.
          3   -1    0    0  501    0  0.00000000000E+00 -0.00000000000E+00 -0.26886153722E+03  0.26886153722E+03  0.00000000000E+00 0. -1.
         23    2    1    2    0    0  0.39242076587E+01 -0.40340296655E+02 -0.85596481999E+02  0.13044371404E+03  0.89699865451E+02 0.  0.
          5    1    1    2  502    0  0.48137846845E+02 -0.17946014892E+02 -0.39581162840E+02  0.65023612643E+02  0.47000000000E+01 0. -1.
         -5    1    1    2    0  502 -0.52062054504E+02  0.58286311547E+02 -0.94420074122E+02  0.12265802880E+03  0.47000000000E+01 0. -1.
        -11    1    3    3    0    0 -0.40353182059E+02 -0.14749204847E+02 -0.20340763478E+02  0.47535933827E+02  0.00000000000E+00 0.  1.
         11    1    3    3    0    0  0.44277389718E+02 -0.25591091807E+02 -0.65255718521E+02  0.82907780212E+02  0.00000000000E+00 0. -1.
<mgrwt>
<rscale>  0 0.12225037E+03</rscale>
<asrwt>0</asrwt>
<pdfrwt beam="2">  1        3 0.41363316E-01 0.13140802E+03</pdfrwt>
<pdfrwt beam="1">  1       -3 0.75790485E-02 0.13140802E+03</pdfrwt>
<totfact> 0.15501767E+03</totfact>
</mgrwt>
</event>
<event>
 7    1  0.5107591E-006  0.2400087E+03  0.7546771E-02  0.1122466E+00
          2   -1    0    0  501    0  0.00000000000E+00  0.00000000000E+00  0.38111015348E+03  0.38111015348E+03  0.00000000000E+00 0. -1.
         -2   -1    0    0    0  501 -0.00000000000E+00 -0.00000000000E+00 -0.14158904513E+03  0.14158904513E+03  0.00000000000E+00 0.  1.
         23    2    1    2    0    0 -0.16925550210E+03  0.11546390590E+03  0.12104400085E+03  0.25504079389E+03  0.91732316280E+02 0.  0.
          5    1    1    2  502    0  0.14651347119E+03 -0.13401720658E+03  0.12818400517E+03  0.23638958962E+03  0.47000000000E+01 0.  1.
         -5    1    1    2    0  502  0.22742030907E+02  0.18553300671E+02 -0.97068976697E+01  0.31268815103E+02  0.47000000000E+01 0.  1.
        -11    1    3    3    0    0 -0.41129953054E+02  0.49638171096E+02  0.84771973694E+02  0.10649839713E+03  0.00000000000E+00 0.  1.
         11    1    3    3    0    0 -0.12812554904E+03  0.65825734809E+02  0.36272027156E+02  0.14854239676E+03  0.00000000000E+00 0. -1.
<mgrwt>
<rscale>  0 0.23603033E+03</rscale>
<asrwt>0</asrwt>
<pdfrwt beam="1">  1        2 0.58632331E-01 0.24000874E+03</pdfrwt>
<pdfrwt beam="2">  1       -2 0.21782930E-01 0.24000874E+03</pdfrwt>
<totfact> 0.15213940E+03</totfact>
</mgrwt>
</event>
<event>
 7    1  0.5107591E-006  0.1472300E+03  0.7546771E-02  0.1213143E+00
          2   -1    0    0  501    0  0.00000000000E+00  0.00000000000E+00  0.11254675132E+03  0.11254675132E+03  0.00000000000E+00 0. -1.
         -2   -1    0    0    0  501 -0.00000000000E+00 -0.00000000000E+00 -0.16001714012E+03  0.16001714012E+03  0.00000000000E+00 0.  1.
         23    2    1    2    0    0  0.56535413571E+02  0.53447366130E+02 -0.14770263104E+02  0.12174625402E+03  0.92472243199E+02 0.  0.
          5    1    1    2  502    0 -0.14062483918E+02 -0.75639132167E+02  0.19798986229E+02  0.79580912439E+02  0.47000000000E+01 0.  1.
         -5    1    1    2    0  502 -0.42472929653E+02  0.22191766038E+02 -0.52499111920E+02  0.71236724978E+02  0.47000000000E+01 0.  1.
        -11    1    3    3    0    0  0.16326361451E+02 -0.26382891240E+02  0.69376074292E+00  0.31033664501E+02  0.00000000000E+00 0.  1.
         11    1    3    3    0    0  0.40209052120E+02  0.79830257369E+02 -0.15464023847E+02  0.90712589521E+02  0.00000000000E+00 0. -1.
<mgrwt>
<rscale>  0 0.14013806E+03</rscale>
<asrwt>0</asrwt>
<pdfrwt beam="1">  1        2 0.17314885E-01 0.14722996E+03</pdfrwt>
<pdfrwt beam="2">  1       -2 0.24618022E-01 0.14722996E+03</pdfrwt>
<totfact> 0.46076739E+03</totfact>
</mgrwt>
</event>
<event>
 7    1  0.5107591E-006  0.1365848E+03  0.7546771E-02  0.1228759E+00
          2   -1    0    0  501    0  0.00000000000E+00  0.00000000000E+00  0.42186979576E+03  0.42186979576E+03  0.00000000000E+00 0. -1.
         -2   -1    0    0    0  501 -0.00000000000E+00 -0.00000000000E+00 -0.45076813256E+02  0.45076813256E+02  0.00000000000E+00 0.  1.
         23    2    1    2    0    0 -0.28549051783E+02  0.47067282847E+02  0.27722531442E+03  0.29792258286E+03  0.94199856402E+02 0.  0.
          5    1    1    2  502    0  0.28671652102E+02 -0.62265277433E+02  0.52556983760E+00  0.68712405225E+02  0.47000000000E+01 0. -1.
         -5    1    1    2    0  502 -0.12260031955E+00  0.15197994586E+02  0.99042098238E+02  0.10031162093E+03  0.47000000000E+01 0. -1.
        -11    1    3    3    0    0  0.21053184831E+02  0.25675015203E+02  0.29624833082E+02  0.44498019421E+02  0.00000000000E+00 0.  1.
         11    1    3    3    0    0 -0.49602236614E+02  0.21392267644E+02  0.24760048134E+03  0.25342456344E+03  0.00000000000E+00 0. -1.
<mgrwt>
<rscale>  0 0.12912588E+03</rscale>
<asrwt>0</asrwt>
<pdfrwt beam="1">  1        2 0.64903043E-01 0.13658478E+03</pdfrwt>
<pdfrwt beam="2">  1       -2 0.69348946E-02 0.13658478E+03</pdfrwt>
<totfact> 0.84844452E+03</totfact>
</mgrwt>
</event>
<event>
 7    1  0.5107591E-006  0.2118782E+03  0.7546771E-02  0.1143512E+00
         -2   -1    0    0    0  501 -0.00000000000E+00  0.00000000000E+00  0.11140579313E+03  0.11140579313E+03  0.00000000000E+00 0.  1.
          2   -1    0    0  501    0  0.00000000000E+00 -0.00000000000E+00 -0.40045486994E+03  0.40045486994E+03  0.00000000000E+00 0. -1.
         23    2    1    2    0    0 -0.10620664322E+03  0.13412142263E+03 -0.20747959457E+03  0.28482329694E+03  0.93851591601E+02 0.  0.
          5    1    1    2  502    0  0.47518878328E+02  0.15249562939E+02 -0.93681255336E+01  0.50994556017E+02  0.47000000000E+01 0. -1.
         -5    1    1    2    0  502  0.58687764891E+02 -0.14937098557E+03 -0.72201356704E+02  0.17604281010E+03  0.47000000000E+01 0. -1.
        -11    1    3    3    0    0 -0.84846092958E+02  0.65422830468E+02 -0.17654450380E+03  0.20651142355E+03  0.00000000000E+00 0. -1.
         11    1    3    3    0    0 -0.21360550261E+02  0.68698592165E+02 -0.30935090773E+02  0.78311873391E+02  0.00000000000E+00 0.  1.
<mgrwt>
<rscale>  0 0.20756156E+03</rscale>
<asrwt>0</asrwt>
<pdfrwt beam="2">  1        2 0.61608441E-01 0.21187823E+03</pdfrwt>
<pdfrwt beam="1">  1       -2 0.17139353E-01 0.21187823E+03</pdfrwt>
<totfact> 0.21629648E+03</totfact>
</mgrwt>
</event>
<event>
 7    1  0.5107591E-006  0.1285788E+03  0.7546771E-02  0.1244012E+00
          3   -1    0    0  501    0  0.00000000000E+00  0.00000000000E+00  0.76653603703E+02  0.76653603703E+02  0.00000000000E+00 0. -1.
         -3   -1    0    0    0  501 -0.00000000000E+00 -0.00000000000E+00 -0.17280285930E+03  0.17280285930E+03  0.00000000000E+00 0.  1.
         23    2    1    2    0    0  0.18190722379E+02 -0.24017830586E+02 -0.13761395596E+02  0.96746695507E+02  0.90899881827E+02 0.  0.
          5    1    1    2  502    0  0.14449319530E+01  0.58168343940E+02 -0.94633735955E+02  0.11119027856E+03  0.47000000000E+01 0.  1.
         -5    1    1    2    0  502 -0.19635654332E+02 -0.34150513354E+02  0.12245875958E+02  0.41519488934E+02  0.47000000000E+01 0.  1.
        -11    1    3    3    0    0 -0.23030232204E+02  0.15528885442E+02  0.16289644694E+02  0.32200782641E+02  0.00000000000E+00 0.  1.
         11    1    3    3    0    0  0.41220954582E+02 -0.39546716028E+02 -0.30051040290E+02  0.64545912867E+02  0.00000000000E+00 0. -1.
<mgrwt>
<rscale>  0 0.11944734E+03</rscale>
<asrwt>0</asrwt>
<pdfrwt beam="1">  1        3 0.11792862E-01 0.12857882E+03</pdfrwt>
<pdfrwt beam="2">  1       -3 0.26585055E-01 0.12857882E+03</pdfrwt>
<totfact> 0.17083811E+03</totfact>
</mgrwt>
</event>
<event>
 7    1  0.5107591E-006  0.1857649E+03  0.7546771E-02  0.1170352E+00
          2   -1    0    0  501    0  0.00000000000E+00  0.00000000000E+00  0.79759324676E+03  0.79759324676E+03  0.00000000000E+00 0. -1.
         -2   -1    0    0    0  501 -0.00000000000E+00 -0.00000000000E+00 -0.44553341498E+02  0.44553341498E+02  0.00000000000E+00 0.  1.
         23    2    1    2    0    0 -0.27080635452E+02 -0.13472174090E+03  0.52909912552E+03  0.55118596976E+03  0.70546299306E+02 0.  0.
          5    1    1    2  502    0 -0.18137026594E+02  0.13016766871E+03  0.20004387191E+03  0.23939969591E+03  0.47000000000E+01 0. -1.
         -5    1    1    2    0  502  0.45217662046E+02  0.45540721898E+01  0.23896907826E+02  0.51560922588E+02  0.47000000000E+01 0. -1.
        -11    1    3    3    0    0  0.20884354562E+02 -0.51579361286E+02  0.24745765121E+03  0.25363729205E+03  0.00000000000E+00 0. -1.
         11    1    3    3    0    0 -0.47964990014E+02 -0.83142379613E+02  0.28164147430E+03  0.29754867770E+03  0.00000000000E+00 0.  1.
<mgrwt>
<rscale>  0 0.17739109E+03</rscale>
<asrwt>0</asrwt>
<pdfrwt beam="1">  1        2 0.12270664E+00 0.18576493E+03</pdfrwt>
<pdfrwt beam="2">  1       -2 0.68543608E-02 0.18576493E+03</pdfrwt>
<totfact> 0.42272397E+03</totfact>
</mgrwt>
</event>
<event>
 7    1  0.5107591E-006  0.1314472E+03  0.7546771E-02  0.1238876E+00
          1   -1    0    0  501    0  0.00000000000E+00  0.00000000000E+00  0.33556895944E+03  0.33556895944E+03  0.00000000000E+00 0. -1.
         -1   -1    0    0    0  501 -0.00000000000E+00 -0.00000000000E+00 -0.52170400059E+02  0.52170400059E+02  0.00000000000E+00 0.  1.
         23    2    1    2    0    0 -0.30041844929E+02  0.27501638638E+02  0.22076060516E+03  0.24213071293E+03  0.90736898650E+02 0.  0.
          5    1    1    2  502    0  0.62461617973E+02  0.25423014446E+02  0.21251731880E+02  0.70862609967E+02  0.47000000000E+01 0.  1.
         -5    1    1    2    0  502 -0.32419773045E+02 -0.52924653084E+02  0.41386222335E+02  0.74746036601E+02  0.47000000000E+01 0.  1.
        -11    1    3    3    0    0 -0.23694253026E+02  0.52783116529E+02  0.78589802329E+02  0.97590122692E+02  0.00000000000E+00 0.  1.
         11    1    3    3    0    0 -0.63475919023E+01 -0.25281477891E+02  0.14217080283E+03  0.14454059023E+03  0.00000000000E+00 0. -1.
<mgrwt>
<rscale>  0 0.12259541E+03</rscale>
<asrwt>0</asrwt>
<pdfrwt beam="1">  1        1 0.51625992E-01 0.13144719E+03</pdfrwt>
<pdfrwt beam="2">  1       -1 0.80262156E-02 0.13144719E+03</pdfrwt>
<totfact> 0.62063123E+03</totfact>
</mgrwt>
</event>
<event>
 7    1  0.5107591E-006  0.1736413E+03  0.7546771E-02  0.1179246E+00
          1   -1    0    0  501    0  0.00000000000E+00  0.00000000000E+00  0.13255072918E+04  0.13255072918E+04  0.00000000000E+00 0. -1.
         -1   -1    0    0    0  501 -0.00000000000E+00 -0.00000000000E+00 -0.21550131444E+02  0.21550131444E+02  0.00000000000E+00 0.  1.
         23    2    1    2    0    0  0.92809578079E+02 -0.76877281421E+02  0.77703330744E+03  0.79226011621E+03  0.96807007410E+02 0.  0.
          5    1    1    2  502    0 -0.10547937609E+03  0.13951155205E+02  0.37432868183E+03  0.38918451351E+03  0.47000000000E+01 0.  1.
         -5    1    1    2    0  502  0.12669798010E+02  0.62926126216E+02  0.15259517111E+03  0.16561279355E+03  0.47000000000E+01 0.  1.
        -11    1    3    3    0    0  0.41882092763E+02  0.18581463374E+02  0.20128016056E+03  0.20642936688E+03  0.00000000000E+00 0.  1.
         11    1    3    3    0    0  0.50927485316E+02 -0.95458744795E+02  0.57575314689E+03  0.58583074934E+03  0.00000000000E+00 0. -1.
<mgrwt>
<rscale>  0 0.16866654E+03</rscale>
<asrwt>0</asrwt>
<pdfrwt beam="1">  1        1 0.20392413E+00 0.17364131E+03</pdfrwt>
<pdfrwt beam="2">  1       -1 0.33154059E-02 0.17364131E+03</pdfrwt>
<totfact> 0.30314456E+03</totfact>
</mgrwt>
</event>
<event>
 7    1  0.5107591E-006  0.1932168E+03  0.7546771E-02  0.1161040E+00
          4   -1    0    0  501    0  0.00000000000E+00  0.00000000000E+00  0.10831469819E+03  0.10831469819E+03  0.00000000000E+00 0. -1.
         -4   -1    0    0    0  501 -0.00000000000E+00 -0.00000000000E+00 -0.35085883492E+03  0.35085883492E+03  0.00000000000E+00 0.  1.
         23    2    1    2    0    0  0.21650751077E+01 -0.14730840162E+03 -0.31479561809E+02  0.17302499501E+03  0.85101312248E+02 0.  0.
          5    1    1    2  502    0  0.17595568010E+02  0.16515010935E+03 -0.18326340074E+03  0.24736961552E+03  0.47000000000E+01 0. -1.
         -5    1    1    2    0  502 -0.19760643117E+02 -0.17841707727E+02 -0.27801174181E+02  0.38778922585E+02  0.47000000000E+01 0. -1.
        -11    1    3    3    0    0  0.18260744842E+02 -0.14400942081E+03 -0.44751313261E+02  0.15190407540E+03  0.00000000000E+00 0.  1.
         11    1    3    3    0    0 -0.16095669735E+02 -0.32989808181E+01  0.13271751452E+02  0.21120919612E+02  0.00000000000E+00 0. -1.
<mgrwt>
<rscale>  0 0.18716883E+03</rscale>
<asrwt>0</asrwt>
<pdfrwt beam="1">  1        4 0.16663800E-01 0.19321680E+03</pdfrwt>
<pdfrwt beam="2">  1       -4 0.53978282E-01 0.19321680E+03</pdfrwt>
<totfact> 0.18336917E+02</totfact>
</mgrwt>
</event>
<event>
 7    1  0.5107591E-006  0.1555406E+03  0.7546771E-02  0.1201275E+00
         -1   -1    0    0    0  501 -0.00000000000E+00  0.00000000000E+00  0.76652171465E+02  0.76652171465E+02  0.00000000000E+00 0.  1.
          1   -1    0    0  501    0  0.00000000000E+00 -0.00000000000E+00 -0.33287802657E+03  0.33287802657E+03  0.00000000000E+00 0. -1.
         23    2    1    2    0    0 -0.56242066079E+02  0.73526719979E+02 -0.20840187381E+03  0.24680343954E+03  0.94399407896E+02 0.  0.
          5    1    1    2  502    0  0.41371623141E+02 -0.95030289065E+01  0.36171491494E+02  0.55967718879E+02  0.47000000000E+01 0. -1.
         -5    1    1    2    0  502  0.14870442939E+02 -0.64023691072E+02 -0.83995472790E+02  0.10675903962E+03  0.47000000000E+01 0. -1.
        -11    1    3    3    0    0  0.21179851999E+02  0.42857896894E+02 -0.92019296427E+02  0.10369636624E+03  0.00000000000E+00 0. -1.
         11    1    3    3    0    0 -0.77421918078E+02  0.30668823085E+02 -0.11638257738E+03  0.14310707329E+03  0.00000000000E+00 0.  1.
<mgrwt>
<rscale>  0 0.14934898E+03</rscale>
<asrwt>0</asrwt>
<pdfrwt beam="2">  1        1 0.51212006E-01 0.15554056E+03</pdfrwt>
<pdfrwt beam="1">  1       -1 0.11792641E-01 0.15554056E+03</pdfrwt>
<totfact> 0.35161113E+03</totfact>
</mgrwt>
</event>
<event>
 7    1  0.5107591E-006  0.1342821E+03  0.7546771E-02  0.1234737E+00
         -2   -1    0    0    0  501 -0.00000000000E+00  0.00000000000E+00  0.85043781435E+02  0.85043781435E+02  0.00000000000E+00 0.  1.
          2   -1    0    0  501    0  0.00000000000E+00 -0.00000000000E+00 -0.16781390659E+03  0.16781390659E+03  0.00000000000E+00 0. -1.
         23    2    1    2    0    0 -0.47802262655E+02  0.11094109660E+02 -0.55977316481E+02  0.11592873313E+03  0.88869992798E+02 0.  0.
          5    1    1    2  502    0 -0.14219768753E+02 -0.36221952073E+02 -0.52128421470E+02  0.65220349280E+02  0.47000000000E+01 0.  1.
         -5    1    1    2    0  502  0.62022031408E+02  0.25127842413E+02  0.25335612793E+02  0.71708605620E+02  0.47000000000E+01 0.  1.
        -11    1    3    3    0    0 -0.53544645224E+00  0.43139934271E+02 -0.33238023102E+02  0.54461975832E+02  0.00000000000E+00 0.  1.
         11    1    3    3    0    0 -0.47266816203E+02 -0.32045824611E+02 -0.22739293379E+02  0.61466757295E+02  0.00000000000E+00 0. -1.
<mgrwt>
<rscale>  0 0.12521315E+03</rscale>
<asrwt>0</asrwt>
<pdfrwt beam="2">  1        2 0.25817524E-01 0.13428211E+03</pdfrwt>
<pdfrwt beam="1">  1       -2 0.13083659E-01 0.13428211E+03</pdfrwt>
<totfact> 0.84088784E+03</totfact>
</mgrwt>
</event>
<event>
 7    1  0.5107591E-006  0.1427508E+03  0.7546771E-02  0.1226819E+00
         -3   -1    0    0    0  501 -0.00000000000E+00  0.00000000000E+00  0.35964340699E+03  0.35964340699E+03  0.00000000000E+00 0.  1.
          3   -1    0    0  501    0  0.00000000000E+00 -0.00000000000E+00 -0.52606696474E+02  0.52606696474E+02  0.00000000000E+00 0. -1.
         23    2    1    2    0    0 -0.17690614535E+02  0.25339998958E+02  0.35783747509E+02  0.10572774369E+03  0.94566409524E+02 0.  0.
          5    1    1    2  502    0 -0.38168850962E+02  0.31948922359E+02  0.47965408899E+02  0.69284668394E+02  0.47000000000E+01 0. -1.
         -5    1    1    2    0  502  0.55859465497E+02 -0.57288921317E+02  0.22328755411E+03  0.23723769138E+03  0.47000000000E+01 0.  1.
        -11    1    3    3    0    0  0.84900641255E+01 -0.11141055799E+02  0.55095276621E+02  0.56847988699E+02  0.00000000000E+00 0.  1.
         11    1    3    3    0    0 -0.26180678660E+02  0.36481054757E+02 -0.19311529112E+02  0.48879754991E+02  0.00000000000E+00 0. -1.
<mgrwt>
<rscale>  0 0.13042975E+03</rscale>
<asrwt>0</asrwt>
<pdfrwt beam="2">  1        3 0.80933382E-02 0.14275079E+03</pdfrwt>
<pdfrwt beam="1">  1       -3 0.55329753E-01 0.14275079E+03</pdfrwt>
<totfact> 0.79277382E+02</totfact>
</mgrwt>
</event>
<event>
 7    1  0.5107591E-006  0.1217472E+03  0.7546771E-02  0.1250456E+00
          1   -1    0    0  501    0  0.00000000000E+00  0.00000000000E+00  0.82490416062E+02  0.82490416062E+02  0.00000000000E+00 0. -1.
         -1   -1    0    0    0  501 -0.00000000000E+00 -0.00000000000E+00 -0.15472735023E+03  0.15472735023E+03  0.00000000000E+00 0.  1.
         23    2    1    2    0    0  0.23678486725E+02  0.28366258988E+02 -0.76857402350E+01  0.99416308996E+02  0.91973999092E+02 0.  0.
          5    1    1    2  502    0  0.10194931951E+02  0.41788618670E+02 -0.17539261137E+02  0.46689837963E+02  0.47000000000E+01 0. -1.
         -5    1    1    2    0  502 -0.33873418676E+02 -0.70154877657E+02 -0.47011932793E+02  0.91111619330E+02  0.47000000000E+01 0.  1.
        -11    1    3    3    0    0 -0.21778155769E+02 -0.15738160089E+02 -0.21711864647E+02  0.34545373324E+02  0.00000000000E+00 0.  1.
         11    1    3    3    0    0  0.45456642494E+02  0.44104419077E+02  0.14026124412E+02  0.64870935672E+02  0.00000000000E+00 0. -1.
<mgrwt>
<rscale>  0 0.11564671E+03</rscale>
<asrwt>0</asrwt>
<pdfrwt beam="1">  1        1 0.12690833E-01 0.12174722E+03</pdfrwt>
<pdfrwt beam="2">  1       -1 0.23804208E-01 0.12174722E+03</pdfrwt>
<totfact> 0.66166449E+03</totfact>
</mgrwt>
</event>
<event>
 7    1  0.5107591E-006  0.1304256E+03  0.7546771E-02  0.1237674E+00
          1   -1    0    0  501    0  0.00000000000E+00  0.00000000000E+00  0.94518193165E+02  0.94518193165E+02  0.00000000000E+00 0. -1.
         -1   -1    0    0    0  501 -0.00000000000E+00 -0.00000000000E+00 -0.14958322864E+03  0.14958322864E+03  0.00000000000E+00 0.  1.
         23    2    1    2    0    0  0.31389839338E+02  0.20004454219E+02 -0.51971850602E+01  0.10446751589E+03  0.97472821551E+02 0.  0.
          5    1    1    2  502    0 -0.65100279131E+02  0.27775602131E+02 -0.19444918841E+02  0.73550834702E+02  0.47000000000E+01 0. -1.
         -5    1    1    2    0  502  0.33710439793E+02 -0.47780056349E+02 -0.30422931575E+02  0.66083071217E+02  0.47000000000E+01 0. -1.
        -11    1    3    3    0    0 -0.69471116892E+01 -0.35010565418E+02  0.68345752054E+01  0.36341621730E+02  0.00000000000E+00 0.  1.
         11    1    3    3    0    0  0.38336951027E+02  0.55015019637E+02 -0.12031760266E+02  0.68125894158E+02  0.00000000000E+00 0. -1.
<mgrwt>
<rscale>  0 0.12334820E+03</rscale>
<asrwt>0</asrwt>
<pdfrwt beam="1">  1        1 0.14541261E-01 0.13042555E+03</pdfrwt>
<pdfrwt beam="2">  1       -1 0.23012804E-01 0.13042555E+03</pdfrwt>
<totfact> 0.58872364E+03</totfact>
</mgrwt>
</event>
<event>
 7    1  0.5107591E-006  0.3695770E+03  0.7546771E-02  0.1055797E+00
         -2   -1    0    0    0  501 -0.00000000000E+00  0.00000000000E+00  0.22274079474E+03  0.22274079474E+03  0.00000000000E+00 0. -1.
          2   -1    0    0  501    0  0.00000000000E+00 -0.00000000000E+00 -0.60476100725E+03  0.60476100725E+03  0.00000000000E+00 0.  1.
         23    2    1    2    0    0  0.13492072647E+03 -0.32055975581E+03 -0.23469517579E+03  0.42964277292E+03  0.92460409373E+02 0.  0.
          5    1    1    2  502    0 -0.79656989245E+02  0.24138536217E+03 -0.47001541845E+02  0.25854083612E+03  0.47000000000E+01 0. -1.
         -5    1    1    2    0  502 -0.55263737228E+02  0.79174393642E+02 -0.10032349487E+03  0.13931819294E+03  0.47000000000E+01 0. -1.
        -11    1    3    3    0    0  0.14883281795E+02 -0.47419039393E+02  0.54825204977E+00  0.49702896840E+02  0.00000000000E+00 0. -1.
         11    1    3    3    0    0  0.12003744468E+03 -0.27314071642E+03 -0.23524342784E+03  0.37993987608E+03  0.00000000000E+00 0.  1.
<mgrwt>
<rscale>  0 0.36712761E+03</rscale>
<asrwt>0</asrwt>
<pdfrwt beam="2">  1        2 0.93040154E-01 0.36957698E+03</pdfrwt>
<pdfrwt beam="1">  1       -2 0.34267815E-01 0.36957698E+03</pdfrwt>
<totfact> 0.40002865E+02</totfact>
</mgrwt>
</event>
<event>
 7    1  0.5107591E-006  0.1629795E+03  0.7546771E-02  0.1191644E+00
          2   -1    0    0  501    0  0.00000000000E+00  0.00000000000E+00  0.27522704239E+03  0.27522704239E+03  0.00000000000E+00 0. -1.
         -2   -1    0    0    0  501 -0.00000000000E+00 -0.00000000000E+00 -0.17321058369E+03  0.17321058369E+03  0.00000000000E+00 0.  1.
         23    2    1    2    0    0 -0.21004279791E+02  0.10243028401E+03  0.20964828008E+03  0.25312528227E+03  0.95848131597E+02 0.  0.
          5    1    1    2  502    0  0.38244450236E+02 -0.30510456599E+01 -0.82729705444E+02  0.91313969448E+02  0.47000000000E+01 0.  1.
         -5    1    1    2    0  502 -0.17240170445E+02 -0.99379238348E+02 -0.24902115932E+02  0.10399837436E+03  0.47000000000E+01 0.  1.
        -11    1    3    3    0    0 -0.22778525208E+02  0.53988048035E+02  0.27669724432E+02  0.64801112578E+02  0.00000000000E+00 0.  1.
         11    1    3    3    0    0  0.17742454170E+01  0.48442235973E+02  0.18197855565E+03  0.18832416969E+03  0.00000000000E+00 0. -1.
<mgrwt>
<rscale>  0 0.15741755E+03</rscale>
<asrwt>0</asrwt>
<pdfrwt beam="1">  1        2 0.42342622E-01 0.16297945E+03</pdfrwt>
<pdfrwt beam="2">  1       -2 0.26647782E-01 0.16297945E+03</pdfrwt>
<totfact> 0.15030072E+03</totfact>
</mgrwt>
</event>
<event>
 7    1  0.5107591E-006  0.1276350E+03  0.7546771E-02  0.1246478E+00
         -1   -1    0    0    0  501 -0.00000000000E+00  0.00000000000E+00  0.10747771031E+03  0.10747771031E+03  0.00000000000E+00 0.  1.
          1   -1    0    0  501    0  0.00000000000E+00 -0.00000000000E+00 -0.11463110097E+03  0.11463110097E+03  0.00000000000E+00 0. -1.
         23    2    1    2    0    0  0.12187962395E+02 -0.22767106677E+02 -0.14413205822E+02  0.94267534566E+02  0.89508323621E+02 0.  0.
          5    1    1    2  502    0 -0.63244611158E+01  0.37729372275E+02  0.60664551645E+02  0.71873375925E+02  0.47000000000E+01 0.  1.
         -5    1    1    2    0  502 -0.58635012794E+01 -0.14962265598E+02 -0.53404736483E+02  0.55967900782E+02  0.47000000000E+01 0.  1.
        -11    1    3    3    0    0  0.49578086232E+02 -0.25021986549E+02 -0.58388779335E+01  0.55840656701E+02  0.00000000000E+00 0.  1.
         11    1    3    3    0    0 -0.37390123837E+02  0.22548798717E+01 -0.85743278889E+01  0.38426877866E+02  0.00000000000E+00 0. -1.
<mgrwt>
<rscale>  0 0.11797328E+03</rscale>
<asrwt>0</asrwt>
<pdfrwt beam="2">  1        1 0.17635554E-01 0.12763498E+03</pdfrwt>
<pdfrwt beam="1">  1       -1 0.16535032E-01 0.12763498E+03</pdfrwt>
<totfact> 0.77822596E+03</totfact>
</mgrwt>
</event>
<event>
 7    1  0.5107591E-006  0.1448195E+03  0.7546771E-02  0.1217403E+00
         -2   -1    0    0    0  501 -0.00000000000E+00  0.00000000000E+00  0.32719186973E+03  0.32719186973E+03  0.00000000000E+00 0.  1.
          2   -1    0    0  501    0  0.00000000000E+00 -0.00000000000E+00 -0.57406467509E+02  0.57406467509E+02  0.00000000000E+00 0. -1.
         23    2    1    2    0    0 -0.27105133160E+02  0.67926913275E+02  0.62680650896E+02  0.13188295232E+03  0.90086044017E+02 0.  0.
          5    1    1    2  502    0 -0.39665306193E+02 -0.21915583783E+02  0.14041182759E+03  0.14761842925E+03  0.47000000000E+01 0.  1.
         -5    1    1    2    0  502  0.66770439352E+02 -0.46011329492E+02  0.66692923736E+02  0.10509695566E+03  0.47000000000E+01 0.  1.
        -11    1    3    3    0    0  0.23908465587E+01 -0.14995157337E+02 -0.96254846227E+01  0.17978343780E+02  0.00000000000E+00 0. -1.
         11    1    3    3    0    0 -0.29495979718E+02  0.82922070612E+02  0.72306135518E+02  0.11390460855E+03  0.00000000000E+00 0.  1.
<mgrwt>
<rscale>  0 0.13701498E+03</rscale>
<asrwt>0</asrwt>
<pdfrwt beam="2">  1        2 0.88317645E-02 0.14481950E+03</pdfrwt>
<pdfrwt beam="1">  1       -2 0.50337209E-01 0.14481950E+03</pdfrwt>
<totfact> 0.27385489E+03</totfact>
</mgrwt>
</event>
<event>
 7    1  0.5107591E-006  0.1632217E+03  0.7546771E-02  0.1192403E+00
          2   -1    0    0  501    0  0.00000000000E+00  0.00000000000E+00  0.32081692196E+03  0.32081692196E+03  0.00000000000E+00 0. -1.
         -2   -1    0    0    0  501 -0.00000000000E+00 -0.00000000000E+00 -0.71378360979E+02  0.71378360979E+02  0.00000000000E+00 0.  1.
         23    2    1    2    0    0 -0.94193885190E+02  0.46288322729E+02  0.10284987443E+03  0.17281077669E+03  0.90941580369E+02 0.  0.
          5    1    1    2  502    0  0.45052916530E+02 -0.11820216496E+02  0.15189297398E+03  0.15894353825E+03  0.47000000000E+01 0.  1.
         -5    1    1    2    0  502  0.49140968660E+02 -0.34468106233E+02 -0.53042874319E+01  0.60440968004E+02  0.47000000000E+01 0.  1.
        -11    1    3    3    0    0 -0.83683595708E+01  0.50708125096E+02  0.51198748126E+02  0.72544160360E+02  0.00000000000E+00 0. -1.
         11    1    3    3    0    0 -0.85825525620E+02 -0.44198023674E+01  0.51651126305E+02  0.10026661633E+03  0.00000000000E+00 0.  1.
<mgrwt>
<rscale>  0 0.15676069E+03</rscale>
<asrwt>0</asrwt>
<pdfrwt beam="1">  1        2 0.49356449E-01 0.16322169E+03</pdfrwt>
<pdfrwt beam="2">  1       -2 0.10981286E-01 0.16322169E+03</pdfrwt>
<totfact> 0.56141436E+03</totfact>
</mgrwt>
</event>
<event>
 7    1  0.5107591E-006  0.2235937E+03  0.7546771E-02  0.1134469E+00
          1   -1    0    0  501    0  0.00000000000E+00  0.00000000000E+00  0.29883958723E+03  0.29883958723E+03  0.00000000000E+00 0. -1.
         -1   -1    0    0    0  501 -0.00000000000E+00 -0.00000000000E+00 -0.18017490335E+03  0.18017490335E+03  0.00000000000E+00 0.  1.
         23    2    1    2    0    0  0.12443950088E+03 -0.13742222789E+03  0.14711175114E+03  0.25361844960E+03  0.91161354498E+02 0.  0.
          5    1    1    2  502    0 -0.17491185436E+02  0.10646146323E+03  0.76370694738E+01  0.10826079415E+03  0.47000000000E+01 0.  1.
         -5    1    1    2    0  502 -0.10694831545E+03  0.30960764669E+02 -0.36084136741E+02  0.11713524683E+03  0.47000000000E+01 0.  1.
        -11    1    3    3    0    0  0.60871159561E+02 -0.74901477824E+01  0.52914311631E+02  0.81002004639E+02  0.00000000000E+00 0.  1.
         11    1    3    3    0    0  0.63568341321E+02 -0.12993208011E+03  0.94197439510E+02  0.17261644496E+03  0.00000000000E+00 0. -1.
<mgrwt>
<rscale>  0 0.21921652E+03</rscale>
<asrwt>0</asrwt>
<pdfrwt beam="1">  1        1 0.45975321E-01 0.22359369E+03</pdfrwt>
<pdfrwt beam="2">  1       -1 0.27719216E-01 0.22359369E+03</pdfrwt>
<totfact> 0.10292008E+03</totfact>
</mgrwt>
</event>
<event>
 7    1  0.5107591E-006  0.1521615E+03  0.7546771E-02  0.1206759E+00
         -1   -1    0    0    0  501 -0.00000000000E+00  0.00000000000E+00  0.31364512594E+02  0.31364512594E+02  0.00000000000E+00 0.  1.
          1   -1    0    0  501    0  0.00000000000E+00 -0.00000000000E+00 -0.61709554382E+03  0.61709554382E+03  0.00000000000E+00 0. -1.
         23    2    1    2    0    0  0.56841497085E+02  0.65549886454E+02 -0.28631682911E+03  0.31260000112E+03  0.90629413886E+02 0.  0.
          5    1    1    2  502    0  0.27095596178E+02 -0.61704641466E+02 -0.12059841452E+03  0.13823061056E+03  0.47000000000E+01 0. -1.
         -5    1    1    2    0  502 -0.83937093263E+02 -0.38452449882E+01 -0.17881578760E+03  0.19762944474E+03  0.47000000000E+01 0. -1.
        -11    1    3    3    0    0  0.19503326620E+02  0.44035209815E+02 -0.40184624847E+02  0.62723867282E+02  0.00000000000E+00 0.  1.
         11    1    3    3    0    0  0.37338170465E+02  0.21514676639E+02 -0.24613220427E+03  0.24987613384E+03  0.00000000000E+00 0. -1.
<mgrwt>
<rscale>  0 0.14499701E+03</rscale>
<asrwt>0</asrwt>
<pdfrwt beam="2">  1        1 0.94937760E-01 0.15216147E+03</pdfrwt>
<pdfrwt beam="1">  1       -1 0.48253104E-02 0.15216147E+03</pdfrwt>
<totfact> 0.60880082E+03</totfact>
</mgrwt>
</event>
<event>
 6    1  0.5107591E-006  0.1669200E+03  0.7546771E-02  0.1204295E+00
         -2   -1    0    0    0  501 -0.00000000000E+00  0.00000000000E+00  0.15543362524E+03  0.15543362524E+03  0.00000000000E+00 0.  1.
          2   -1    0    0  501    0  0.00000000000E+00 -0.00000000000E+00 -0.12486761272E+03  0.12486761272E+03  0.00000000000E+00 0. -1.
          5    1    1    2  502    0  0.39597909053E+02 -0.73744736584E+01 -0.10039545035E+02  0.41776305816E+02  0.47000000000E+01 0. -1.
         -5    1    1    2    0  502 -0.84891054306E+02 -0.79838324531E+02  0.67509227482E+02  0.13475991600E+03  0.47000000000E+01 0.  1.
        -11    1    1    2    0    0  0.43093148429E+02  0.69357198898E+02 -0.26221973244E+02  0.85761485303E+02  0.00000000000E+00 0. -1.
         11    1    1    2    0    0  0.21999968245E+01  0.17855599292E+02 -0.68169668242E+00  0.18003530833E+02  0.00000000000E+00 0.  1.
<mgrwt>
<rscale>  0 0.14693192E+03</rscale>
<asrwt>0</asrwt>
<pdfrwt beam="2">  1        2 0.19210402E-01 0.16691996E+03</pdfrwt>
<pdfrwt beam="1">  1       -2 0.23912865E-01 0.16691996E+03</pdfrwt>
<totfact> 0.43343564E+03</totfact>
</mgrwt>
</event>
<event>
 7    1  0.5107591E-006  0.1274583E+03  0.7546771E-02  0.1246425E+00
         -1   -1    0    0    0  501 -0.00000000000E+00  0.00000000000E+00  0.42225575173E+02  0.42225575173E+02  0.00000000000E+00 0.  1.
          1   -1    0    0  501    0  0.00000000000E+00 -0.00000000000E+00 -0.29957832694E+03  0.29957832694E+03  0.00000000000E+00 0. -1.
         23    2    1    2    0    0 -0.23335966694E+02 -0.87579436990E+01 -0.14074256467E+03  0.16905104752E+03  0.90269143339E+02 0.  0.
          5    1    1    2  502    0 -0.41612273282E+02  0.36112182881E+02 -0.38124111717E+02  0.67165533828E+02  0.47000000000E+01 0. -1.
         -5    1    1    2    0  502  0.64948239976E+02 -0.27354239182E+02 -0.78486075379E+02  0.10558732076E+03  0.47000000000E+01 0. -1.
        -11    1    3    3    0    0  0.11040312058E+02  0.25494497318E+02 -0.98906706170E+01  0.29490392488E+02  0.00000000000E+00 0.  1.
         11    1    3    3    0    0 -0.34376278753E+02 -0.34252441017E+02 -0.13085189405E+03  0.13956065503E+03  0.00000000000E+00 0. -1.
<mgrwt>
<rscale>  0 0.11800480E+03</rscale>
<asrwt>0</asrwt>
<pdfrwt beam="2">  1        1 0.46088972E-01 0.12745828E+03</pdfrwt>
<pdfrwt beam="1">  1       -1 0.64962425E-02 0.12745828E+03</pdfrwt>
<totfact> 0.97870312E+03</totfact>
</mgrwt>
</event>
<event>
 7    1  0.5107591E-006  0.1333928E+03  0.7546771E-02  0.1235541E+00
         -2   -1    0    0    0  501 -0.00000000000E+00  0.00000000000E+00  0.18799537863E+02  0.18799537863E+02  0.00000000000E+00 0.  1.
          2   -1    0    0  501    0  0.00000000000E+00 -0.00000000000E+00 -0.76757487841E+03  0.76757487841E+03  0.00000000000E+00 0. -1.
         23    2    1    2    0    0 -0.12518194969E+02 -0.44847151757E+02 -0.40529540327E+03  0.41790173173E+03  0.90606408408E+02 0.  0.
          5    1    1    2  502    0 -0.43932000644E+02  0.48726875759E+02 -0.10980133178E+03  0.12799512319E+03  0.47000000000E+01 0.  1.
         -5    1    1    2    0  502  0.56450195614E+02 -0.38797240015E+01 -0.23367860550E+03  0.24047756135E+03  0.47000000000E+01 0.  1.
        -11    1    3    3    0    0 -0.38473488408E+02 -0.60112411594E+02 -0.26774747690E+03  0.27709641413E+03  0.00000000000E+00 0. -1.
         11    1    3    3    0    0  0.25955293438E+02  0.15265259836E+02 -0.13754792637E+03  0.14080531760E+03  0.00000000000E+00 0.  1.
<mgrwt>
<rscale>  0 0.12469842E+03</rscale>
<asrwt>0</asrwt>
<pdfrwt beam="2">  1        2 0.11808841E+00 0.13339285E+03</pdfrwt>
<pdfrwt beam="1">  1       -2 0.28922373E-02 0.13339285E+03</pdfrwt>
<totfact> 0.15898433E+04</totfact>
</mgrwt>
</event>
<event>
 7    1  0.5107591E-006  0.1254460E+03  0.7546771E-02  0.1250182E+00
         -2   -1    0    0    0  501 -0.00000000000E+00  0.00000000000E+00  0.27067848269E+02  0.27067848269E+02  0.00000000000E+00 0.  1.
          2   -1    0    0  501    0  0.00000000000E+00 -0.00000000000E+00 -0.44220554254E+03  0.44220554254E+03  0.00000000000E+00 0. -1.
         23    2    1    2    0    0  0.67017314503E+01 -0.81349850630E+01 -0.20854977204E+03  0.22758088973E+03  0.90492887928E+02 0.  0.
          5    1    1    2  502    0 -0.18750828913E+01  0.58881790759E+02 -0.51552704935E+02  0.78424183801E+02  0.47000000000E+01 0. -1.
         -5    1    1    2    0  502 -0.48266485590E+01 -0.50746805696E+02 -0.15503521730E+03  0.16326831728E+03  0.47000000000E+01 0. -1.
        -11    1    3    3    0    0 -0.31379048000E+02 -0.16953677882E+02 -0.36064637476E+02  0.50722085164E+02  0.00000000000E+00 0.  1.
         11    1    3    3    0    0  0.38080779450E+02  0.88186928191E+01 -0.17248513457E+03  0.17685880457E+03  0.00000000000E+00 0. -1.
<mgrwt>
<rscale>  0 0.11580510E+03</rscale>
<asrwt>0</asrwt>
<pdfrwt beam="2">  1        2 0.68031620E-01 0.12544599E+03</pdfrwt>
<pdfrwt beam="1">  1       -2 0.41642845E-02 0.12544599E+03</pdfrwt>
<totfact> 0.17276571E+04</totfact>
</mgrwt>
</event>
<event>
 7    1  0.5107591E-006  0.2355277E+03  0.7546771E-02  0.1125793E+00
          1   -1    0    0  501    0  0.00000000000E+00  0.00000000000E+00  0.13734793745E+03  0.13734793745E+03  0.00000000000E+00 0. -1.
         -1   -1    0    0    0  501 -0.00000000000E+00 -0.00000000000E+00 -0.37576678938E+03  0.37576678938E+03  0.00000000000E+00 0.  1.
         23    2    1    2    0    0 -0.12800737323E+03  0.15317619172E+03 -0.10894211658E+03  0.24434431982E+03  0.89369617620E+02 0.  0.
          5    1    1    2  502    0  0.12005568649E+03 -0.92059814668E+02 -0.34163540492E+02  0.15516963245E+03  0.47000000000E+01 0.  1.
         -5    1    1    2    0  502  0.79516867386E+01 -0.61116377054E+02 -0.95313194866E+02  0.11360077456E+03  0.47000000000E+01 0.  1.
        -11    1    3    3    0    0 -0.79877955534E+02  0.35089650587E+02 -0.67341991174E+02  0.11021213696E+03  0.00000000000E+00 0.  1.
         11    1    3    3    0    0 -0.48129417691E+02  0.11808654113E+03 -0.41600125402E+02  0.13413218286E+03  0.00000000000E+00 0. -1.
<mgrwt>
<rscale>  0 0.23120680E+03</rscale>
<asrwt>0</asrwt>
<pdfrwt beam="1">  1        1 0.21130452E-01 0.23552772E+03</pdfrwt>
<pdfrwt beam="2">  1       -1 0.57810274E-01 0.23552772E+03</pdfrwt>
<totfact> 0.74284872E+02</totfact>
</mgrwt>
</event>
<event>
 7    1  0.5107591E-006  0.1374843E+03  0.7546771E-02  0.1226808E+00
          3   -1    0    0  501    0  0.00000000000E+00  0.00000000000E+00  0.28205218877E+03  0.28205218877E+03  0.00000000000E+00 0. -1.
         -3   -1    0    0    0  501 -0.00000000000E+00 -0.00000000000E+00 -0.76379334986E+02  0.76379334986E+02  0.00000000000E+00 0.  1.
         23    2    1    2    0    0  0.61425739450E+02  0.11973922285E+02  0.18974779053E+03  0.22002796290E+03  0.92149791989E+02 0.  0.
          5    1    1    2  502    0 -0.84763040400E+01 -0.17731952743E+02  0.63620923531E+02  0.66753140669E+02  0.47000000000E+01 0. -1.
         -5    1    1    2    0  502 -0.52949435410E+02  0.57580304579E+01 -0.47695860280E+02  0.71650420186E+02  0.47000000000E+01 0.  1.
        -11    1    3    3    0    0  0.15917194627E+02  0.24433298031E+02  0.16340997471E+03  0.16599145451E+03  0.00000000000E+00 0. -1.
         11    1    3    3    0    0  0.45508544823E+02 -0.12459375745E+02  0.26337815820E+02  0.54036508381E+02  0.00000000000E+00 0.  1.
<mgrwt>
<rscale>  0 0.13043765E+03</rscale>
<asrwt>0</asrwt>
<pdfrwt beam="1">  1        3 0.43392644E-01 0.13748432E+03</pdfrwt>
<pdfrwt beam="2">  1       -3 0.11750667E-01 0.13748432E+03</pdfrwt>
<totfact> 0.69129850E+02</totfact>
</mgrwt>
</event>
<event>
 7    1  0.5107591E-006  0.1408691E+03  0.7546771E-02  0.1223907E+00
          1   -1    0    0  501    0  0.00000000000E+00  0.00000000000E+00  0.17662992642E+03  0.17662992642E+03  0.00000000000E+00 0. -1.
         -1   -1    0    0    0  501 -0.00000000000E+00 -0.00000000000E+00 -0.13295895602E+03  0.13295895602E+03  0.00000000000E+00 0.  1.
         23    2    1    2    0    0  0.16372038264E+02 -0.62855039392E+02  0.10851227578E+03  0.15451312197E+03  0.88772694295E+02 0.  0.
          5    1    1    2  502    0  0.48275980435E+02 -0.27515403545E+01 -0.20217792197E+02  0.52621197084E+02  0.47000000000E+01 0. -1.
         -5    1    1    2    0  502 -0.64648018699E+02  0.65606579746E+02 -0.44623513187E+02  0.10245456338E+03  0.47000000000E+01 0. -1.
        -11    1    3    3    0    0  0.50555193168E+02 -0.38810445100E+02  0.43277033736E+02  0.77038820435E+02  0.00000000000E+00 0.  1.
         11    1    3    3    0    0 -0.34183154904E+02 -0.24044594292E+02  0.65235242046E+02  0.77474301537E+02  0.00000000000E+00 0. -1.
<mgrwt>
<rscale>  0 0.13242110E+03</rscale>
<asrwt>0</asrwt>
<pdfrwt beam="1">  1        1 0.27173835E-01 0.14086908E+03</pdfrwt>
<pdfrwt beam="2">  1       -1 0.20455224E-01 0.14086908E+03</pdfrwt>
<totfact> 0.32299962E+03</totfact>
</mgrwt>
</event>
<event>
 7    1  0.5107591E-006  0.1317203E+03  0.7546771E-02  0.1226032E+00
         -1   -1    0    0    0  501 -0.00000000000E+00  0.00000000000E+00  0.20750659924E+03  0.20750659924E+03  0.00000000000E+00 0.  1.
          1   -1    0    0  501    0  0.00000000000E+00 -0.00000000000E+00 -0.84839193126E+02  0.84839193126E+02  0.00000000000E+00 0. -1.
         23    2    1    2    0    0 -0.16693139764E+02 -0.38049419770E+02  0.32628644125E+02  0.13279262293E+03  0.12183116608E+03 0.  0.
          5    1    1    2  502    0  0.29634046142E+02  0.54715788395E+02  0.11233109456E+03  0.12850042411E+03  0.47000000000E+01 0. -1.
         -5    1    1    2    0  502 -0.12940906378E+02 -0.16666368625E+02 -0.22292332569E+02  0.31052745327E+02  0.47000000000E+01 0. -1.
        -11    1    3    3    0    0 -0.13644277015E+02  0.20845104207E+02  0.62066639659E+02  0.66880134743E+02  0.00000000000E+00 0.  1.
         11    1    3    3    0    0 -0.30488627488E+01 -0.58894523977E+02 -0.29437995534E+02  0.65912488192E+02  0.00000000000E+00 0. -1.
<mgrwt>
<rscale>  0 0.13096413E+03</rscale>
<asrwt>0</asrwt>
<pdfrwt beam="2">  1        1 0.13052184E-01 0.13172029E+03</pdfrwt>
<pdfrwt beam="1">  1       -1 0.31924092E-01 0.13172029E+03</pdfrwt>
<totfact> 0.39403310E+03</totfact>
</mgrwt>
</event>
<event>
 7    1  0.5107591E-006  0.2587510E+03  0.7546771E-02  0.1110170E+00
         -2   -1    0    0    0  501 -0.00000000000E+00  0.00000000000E+00  0.85196334021E+03  0.85196334021E+03  0.00000000000E+00 0.  1.
          2   -1    0    0  501    0  0.00000000000E+00 -0.00000000000E+00 -0.84526135339E+02  0.84526135339E+02  0.00000000000E+00 0. -1.
         23    2    1    2    0    0  0.47620878220E+02  0.22149754343E+03  0.21048920925E+03  0.32236965604E+03  0.91036136447E+02 0.  0.
          5    1    1    2  502    0 -0.30890938392E+02 -0.19999524546E+03  0.54933704012E+03  0.58544480690E+03  0.47000000000E+01 0.  1.
         -5    1    1    2    0  502 -0.16729939828E+02 -0.21502297961E+02  0.76109555005E+01  0.28675012605E+02  0.47000000000E+01 0.  1.
        -11    1    3    3    0    0  0.36800287408E+02  0.11561806566E+03  0.16920591266E+03  0.20821248555E+03  0.00000000000E+00 0.  1.
         11    1    3    3    0    0  0.10820590812E+02  0.10587947777E+03  0.41283296598E+02  0.11415717050E+03  0.00000000000E+00 0. -1.
<mgrwt>
<rscale>  0 0.25502475E+03</rscale>
<asrwt>0</asrwt>
<pdfrwt beam="2">  1        2 0.13004021E-01 0.25875101E+03</pdfrwt>
<pdfrwt beam="1">  1       -2 0.13107128E+00 0.25875101E+03</pdfrwt>
<totfact> 0.20729601E+02</totfact>
</mgrwt>
</event>
<event>
 7    1  0.5107591E-006  0.1367947E+03  0.7546771E-02  0.1229105E+00
         -1   -1    0    0    0  501 -0.00000000000E+00  0.00000000000E+00  0.58510430207E+02  0.58510430207E+02  0.00000000000E+00 0.  1.
          1   -1    0    0  501    0  0.00000000000E+00 -0.00000000000E+00 -0.29423235663E+03  0.29423235663E+03  0.00000000000E+00 0. -1.
         23    2    1    2    0    0  0.44432123298E+02  0.33430265411E+02 -0.16918202477E+03  0.20062324114E+03  0.92386855952E+02 0.  0.
          5    1    1    2  502    0  0.20343007529E+01  0.36681572382E+02 -0.56112310993E+02  0.67233604521E+02  0.47000000000E+01 0.  1.
         -5    1    1    2    0  502 -0.46466424050E+02 -0.70111837793E+02 -0.10427590659E+02  0.84885941178E+02  0.47000000000E+01 0.  1.
        -11    1    3    3    0    0  0.13622083723E+02  0.34233690231E+02 -0.95756856111E+01  0.38068365695E+02  0.00000000000E+00 0.  1.
         11    1    3    3    0    0  0.30810039575E+02 -0.80342481919E+00 -0.15960633916E+03  0.16255487544E+03  0.00000000000E+00 0. -1.
<mgrwt>
<rscale>  0 0.12889500E+03</rscale>
<asrwt>0</asrwt>
<pdfrwt beam="2">  1        1 0.45266516E-01 0.13679473E+03</pdfrwt>
<pdfrwt beam="1">  1       -1 0.90016048E-02 0.13679473E+03</pdfrwt>
<totfact> 0.61566363E+03</totfact>
</mgrwt>
</event>
<event>
 7    1  0.5107591E-006  0.2514100E+03  0.7546771E-02  0.1114929E+00
          2   -1    0    0  501    0  0.00000000000E+00  0.00000000000E+00  0.14634874313E+04  0.14634874313E+04  0.00000000000E+00 0. -1.
         -2   -1    0    0    0  501 -0.00000000000E+00 -0.00000000000E+00 -0.41299995801E+02  0.41299995801E+02  0.00000000000E+00 0.  1.
         23    2    1    2    0    0 -0.69365429785E+02  0.20681074781E+03  0.78882597944E+03  0.82335239692E+03  0.89891575886E+02 0.  0.
          5    1    1    2  502    0  0.88034166527E+02 -0.17073647988E+03  0.59540514232E+03  0.62564393511E+03  0.47000000000E+01 0.  1.
         -5    1    1    2    0  502 -0.18668736742E+02 -0.36074267932E+02  0.37956313786E+02  0.55791095120E+02  0.47000000000E+01 0.  1.
        -11    1    3    3    0    0 -0.40735300890E+02  0.10650728238E+03  0.25361442596E+03  0.27807093159E+03  0.00000000000E+00 0.  1.
         11    1    3    3    0    0 -0.28630128895E+02  0.10030346543E+03  0.53521155348E+03  0.54528146534E+03  0.00000000000E+00 0. -1.
<mgrwt>
<rscale>  0 0.24744714E+03</rscale>
<asrwt>0</asrwt>
<pdfrwt beam="1">  1        2 0.22515187E+00 0.25140996E+03</pdfrwt>
<pdfrwt beam="2">  1       -2 0.63538466E-02 0.25140996E+03</pdfrwt>
<totfact> 0.19351842E+03</totfact>
</mgrwt>
</event>
<event>
 7    1  0.5107591E-006  0.1321061E+03  0.7546771E-02  0.1236553E+00
          2   -1    0    0  501    0  0.00000000000E+00  0.00000000000E+00  0.51552371846E+03  0.51552371846E+03  0.00000000000E+00 0.  1.
         -2   -1    0    0    0  501 -0.00000000000E+00 -0.00000000000E+00 -0.26998567645E+02  0.26998567645E+02  0.00000000000E+00 0. -1.
         23    2    1    2    0    0 -0.55230480101E+01  0.41350201874E+02  0.24016756832E+03  0.26121549218E+03  0.93876137687E+02 0.  0.
          5    1    1    2  502    0  0.21339466161E+02 -0.52729763441E+02  0.25412007330E+03  0.26045134367E+03  0.47000000000E+01 0.  1.
         -5    1    1    2    0  502 -0.15816418151E+02  0.11379561567E+02 -0.57624908102E+01  0.20855450245E+02  0.47000000000E+01 0.  1.
        -11    1    3    3    0    0  0.55108482910E+01 -0.29211940942E+02  0.92961281515E+02  0.97598702877E+02  0.00000000000E+00 0.  1.
         11    1    3    3    0    0 -0.11033896301E+02  0.70562142816E+02  0.14720628681E+03  0.16361678930E+03  0.00000000000E+00 0. -1.
<mgrwt>
<rscale>  0 0.12405508E+03</rscale>
<asrwt>0</asrwt>
<pdfrwt beam="1">  1        2 0.79311334E-01 0.13210611E+03</pdfrwt>
<pdfrwt beam="2">  1       -2 0.41536262E-02 0.13210611E+03</pdfrwt>
<totfact> 0.14739064E+04</totfact>
</mgrwt>
</event>
<event>
 7    1  0.5107591E-006  0.1377601E+03  0.7546771E-02  0.1227457E+00
         -2   -1    0    0    0  501 -0.00000000000E+00  0.00000000000E+00  0.32280115742E+02  0.32280115742E+02  0.00000000000E+00 0. -1.
          2   -1    0    0  501    0  0.00000000000E+00 -0.00000000000E+00 -0.59225443729E+03  0.59225443729E+03  0.00000000000E+00 0.  1.
         23    2    1    2    0    0 -0.47775819215E+02  0.32725998739E+02 -0.39385975023E+03  0.40872933475E+03  0.92631778236E+02 0.  0.
          5    1    1    2  502    0  0.98935507425E+01 -0.53437168068E+02 -0.16342999817E+03  0.17229297020E+03  0.47000000000E+01 0.  1.
         -5    1    1    2    0  502  0.37882268472E+02  0.20711169329E+02 -0.26845731380E+01  0.43512248075E+02  0.47000000000E+01 0.  1.
        -11    1    3    3    0    0 -0.51185556210E+02 -0.20896735431E+02 -0.18659898445E+03  0.19461710026E+03  0.00000000000E+00 0.  1.
         11    1    3    3    0    0  0.34097369956E+01  0.53622734170E+02 -0.20726076579E+03  0.21411223450E+03  0.00000000000E+00 0. -1.
<mgrwt>
<rscale>  0 0.12999947E+03</rscale>
<asrwt>0</asrwt>
<pdfrwt beam="2">  1        2 0.91116069E-01 0.13776009E+03</pdfrwt>
<pdfrwt beam="1">  1       -2 0.49661716E-02 0.13776009E+03</pdfrwt>
<totfact> 0.96928703E+03</totfact>
</mgrwt>
</event>
<event>
 7    1  0.5107591E-006  0.1176305E+03  0.7546771E-02  0.1256730E+00
         -1   -1    0    0    0  501 -0.00000000000E+00  0.00000000000E+00  0.63859884204E+02  0.63859884204E+02  0.00000000000E+00 0.  1.
          1   -1    0    0  501    0  0.00000000000E+00 -0.00000000000E+00 -0.19097185853E+03  0.19097185853E+03  0.00000000000E+00 0. -1.
         23    2    1    2    0    0 -0.21283859718E+02  0.22271479415E+02 -0.87676163961E+02  0.13076679702E+03  0.91999043449E+02 0.  0.
          5    1    1    2  502    0 -0.19679832326E+02 -0.54104639481E+02 -0.42758978761E+02  0.71868129783E+02  0.47000000000E+01 0. -1.
         -5    1    1    2    0  502  0.40963692044E+02  0.31833160067E+02  0.33231683928E+01  0.52196815936E+02  0.47000000000E+01 0.  1.
        -11    1    3    3    0    0  0.18766798724E+02  0.35946252448E+02 -0.77148339235E+02  0.87156136021E+02  0.00000000000E+00 0.  1.
         11    1    3    3    0    0 -0.40050658441E+02 -0.13674773033E+02 -0.10527824726E+02  0.43610660997E+02  0.00000000000E+00 0. -1.
<mgrwt>
<rscale>  0 0.11209984E+03</rscale>
<asrwt>0</asrwt>
<pdfrwt beam="2">  1        1 0.29380285E-01 0.11763047E+03</pdfrwt>
<pdfrwt beam="1">  1       -1 0.98245979E-02 0.11763047E+03</pdfrwt>
<totfact> 0.90978774E+03</totfact>
</mgrwt>
</event>
<event>
 7    1  0.5834534E-006  0.4543446E+03  0.7546771E-02  0.1027011E+00
          2   -1    0    0  501    0  0.00000000000E+00  0.00000000000E+00  0.23004326504E+04  0.23004326504E+04  0.00000000000E+00 0. -1.
         -2   -1    0    0    0  501 -0.00000000000E+00 -0.00000000000E+00 -0.88537541580E+02  0.88537541580E+02  0.00000000000E+00 0.  1.
         23    2    1    2    0    0  0.43543262416E+03  0.34689099153E+02  0.11691042500E+04  0.12514985164E+04  0.92945604218E+02 0.  0.
          5    1    1    2  502    0 -0.12906669069E+03  0.15742241720E+02  0.44787013466E+03  0.46638586636E+03  0.47000000000E+01 0.  1.
         -5    1    1    2    0  502 -0.30636593347E+03 -0.50431340872E+02  0.59492072417E+03  0.67108580925E+03  0.47000000000E+01 0.  1.
        -11    1    3    3    0    0  0.32899317569E+03 -0.44782302176E+01  0.78960302276E+03  0.85541188778E+03  0.00000000000E+00 0.  1.
         11    1    3    3    0    0  0.10643944847E+03  0.39167329370E+02  0.37950122721E+03  0.39608662857E+03  0.00000000000E+00 0. -1.
<mgrwt>
<rscale>  0 0.45239376E+03</rscale>
<asrwt>0</asrwt>
<pdfrwt beam="1">  1        2 0.35391267E+00 0.45434462E+03</pdfrwt>
<pdfrwt beam="2">  1       -2 0.13621162E-01 0.45434462E+03</pdfrwt>
<totfact> 0.19986113E+02</totfact>
</mgrwt>
</event>
<event>
 7    1  0.5107591E-006  0.1793069E+03  0.7546771E-02  0.1174009E+00
          1   -1    0    0  501    0  0.00000000000E+00  0.00000000000E+00  0.42963613851E+03  0.42963613851E+03  0.00000000000E+00 0. -1.
         -1   -1    0    0    0  501 -0.00000000000E+00 -0.00000000000E+00 -0.69523329059E+02  0.69523329059E+02  0.00000000000E+00 0.  1.
         23    2    1    2    0    0  0.68019593456E+02 -0.10908253322E+03  0.22356317338E+03  0.27377805352E+03  0.91914449078E+02 0.  0.
          5    1    1    2  502    0 -0.33180277734E+02  0.10844823982E+03  0.36341345425E+02  0.11918361858E+03  0.47000000000E+01 0. -1.
         -5    1    1    2    0  502 -0.34839315722E+02  0.63429340206E+00  0.10020829064E+03  0.10619779546E+03  0.47000000000E+01 0. -1.
        -11    1    3    3    0    0  0.23949848971E+02 -0.31281029507E+02  0.77186170091E+01  0.40145673756E+02  0.00000000000E+00 0.  1.
         11    1    3    3    0    0  0.44069744485E+02 -0.77801503715E+02  0.21584455637E+03  0.23363237977E+03  0.00000000000E+00 0. -1.
<mgrwt>
<rscale>  0 0.17373355E+03</rscale>
<asrwt>0</asrwt>
<pdfrwt beam="1">  1        1 0.66097866E-01 0.17930694E+03</pdfrwt>
<pdfrwt beam="2">  1       -1 0.10695897E-01 0.17930694E+03</pdfrwt>
<totfact> 0.29779898E+03</totfact>
</mgrwt>
</event>
<event>
 7    1  0.5107591E-006  0.2403837E+03  0.7546771E-02  0.1122259E+00
         -2   -1    0    0    0  501 -0.00000000000E+00  0.00000000000E+00  0.43369885902E+02  0.43369885902E+02  0.00000000000E+00 0.  1.
          2   -1    0    0  501    0  0.00000000000E+00 -0.00000000000E+00 -0.13579004454E+04  0.13579004454E+04  0.00000000000E+00 0. -1.
         23    2    1    2    0    0 -0.19553190924E+03 -0.62663380109E+02 -0.83755893360E+03  0.86714836353E+03  0.91004892133E+02 0.  0.
          5    1    1    2  502    0  0.30365564344E+02 -0.11548171761E+02 -0.20332446467E+03  0.20595716958E+03  0.47000000000E+01 0. -1.
         -5    1    1    2    0  502  0.16516634490E+03  0.74211551870E+02 -0.27364716121E+03  0.32816479816E+03  0.47000000000E+01 0. -1.
        -11    1    3    3    0    0 -0.15443191332E+03 -0.65005041429E+01 -0.60167813887E+03  0.62121498307E+03  0.00000000000E+00 0. -1.
         11    1    3    3    0    0 -0.41099995922E+02 -0.56162875966E+02 -0.23588079473E+03  0.24593338046E+03  0.00000000000E+00 0.  1.
<mgrwt>
<rscale>  0 0.23633450E+03</rscale>
<asrwt>0</asrwt>
<pdfrwt beam="2">  1        2 0.20890779E+00 0.24038374E+03</pdfrwt>
<pdfrwt beam="1">  1       -2 0.66722891E-02 0.24038374E+03</pdfrwt>
<totfact> 0.20471004E+03</totfact>
</mgrwt>
</event>
<event>
 7    1  0.5107591E-006  0.2266151E+03  0.7546771E-02  0.1132153E+00
          2   -1    0    0  501    0  0.00000000000E+00  0.00000000000E+00  0.41188696379E+03  0.41188696379E+03  0.00000000000E+00 0. -1.
         -2   -1    0    0    0  501 -0.00000000000E+00 -0.00000000000E+00 -0.14561024453E+03  0.14561024453E+03  0.00000000000E+00 0.  1.
         23    2    1    2    0    0 -0.17922808215E+03  0.60061418911E+02  0.25537777880E+03  0.33062021234E+03  0.91443072084E+02 0.  0.
          5    1    1    2  502    0  0.17117245469E+03 -0.13539009062E+02 -0.15690642258E+02  0.17248652198E+03  0.47000000000E+01 0.  1.
         -5    1    1    2    0  502  0.80556274554E+01 -0.46522409849E+02  0.26589582720E+02  0.54390473992E+02  0.47000000000E+01 0.  1.
        -11    1    3    3    0    0 -0.15765374043E+03  0.54019069515E+02  0.25894135712E+03  0.30793406464E+03  0.00000000000E+00 0. -1.
         11    1    3    3    0    0 -0.21574341721E+02  0.60423493958E+01 -0.35635783189E+01  0.22686147698E+02  0.00000000000E+00 0.  1.
<mgrwt>
<rscale>  0 0.22233685E+03</rscale>
<asrwt>0</asrwt>
<pdfrwt beam="1">  1        2 0.63367225E-01 0.22661506E+03</pdfrwt>
<pdfrwt beam="2">  1       -2 0.22401576E-01 0.22661506E+03</pdfrwt>
<totfact> 0.13305334E+03</totfact>
</mgrwt>
</event>
<event>
 7    1  0.5107591E-006  0.2250181E+03  0.7546771E-02  0.1133714E+00
          2   -1    0    0  501    0  0.00000000000E+00  0.00000000000E+00  0.11211792650E+04  0.11211792650E+04  0.00000000000E+00 0. -1.
         -2   -1    0    0    0  501 -0.00000000000E+00 -0.00000000000E+00 -0.41869961946E+02  0.41869961946E+02  0.00000000000E+00 0.  1.
         23    2    1    2    0    0 -0.82977282963E+02 -0.16769909969E+03  0.46290647711E+03  0.50685902624E+03  0.87266536561E+02 0.  0.
          5    1    1    2  502    0  0.44026401388E+02  0.10685635856E+02  0.27038273254E+03  0.27419230275E+03  0.47000000000E+01 0.  1.
         -5    1    1    2    0  502  0.38950881575E+02  0.15701346384E+03  0.34602009340E+03  0.38199789795E+03  0.47000000000E+01 0.  1.
        -11    1    3    3    0    0 -0.22211702300E+02 -0.13609210411E+03  0.31535435593E+03  0.34418423893E+03  0.00000000000E+00 0.  1.
         11    1    3    3    0    0 -0.60765580662E+02 -0.31606995586E+02  0.14755212118E+03  0.16267478732E+03  0.00000000000E+00 0. -1.
<mgrwt>
<rscale>  0 0.22022641E+03</rscale>
<asrwt>0</asrwt>
<pdfrwt beam="1">  1        2 0.17248910E+00 0.22501808E+03</pdfrwt>
<pdfrwt beam="2">  1       -2 0.64415334E-02 0.22501808E+03</pdfrwt>
<totfact> 0.29337430E+03</totfact>
</mgrwt>
</event>
<event>
 7    1  0.5107591E-006  0.1259303E+03  0.7546771E-02  0.1248552E+00
          2   -1    0    0  501    0  0.00000000000E+00  0.00000000000E+00  0.12327250614E+03  0.12327250614E+03  0.00000000000E+00 0. -1.
         -2   -1    0    0    0  501 -0.00000000000E+00 -0.00000000000E+00 -0.11075286802E+03  0.11075286802E+03  0.00000000000E+00 0.  1.
         23    2    1    2    0    0  0.14334906525E+02 -0.52922475834E+01  0.45896430367E+02  0.10374700682E+03  0.91779418578E+02 0.  0.
          5    1    1    2  502    0 -0.52319717475E+02 -0.39720094732E+02 -0.94455054050E+01  0.66530792379E+02  0.47000000000E+01 0. -1.
         -5    1    1    2    0  502  0.37984810949E+02  0.45012342316E+02 -0.23931286846E+02  0.63747574964E+02  0.47000000000E+01 0. -1.
        -11    1    3    3    0    0 -0.85373258316E+00 -0.36792377137E+02 -0.97067750962E+01  0.38060863856E+02  0.00000000000E+00 0.  1.
         11    1    3    3    0    0  0.15188639108E+02  0.31500129554E+02  0.55603205464E+02  0.65686142966E+02  0.00000000000E+00 0. -1.
<mgrwt>
<rscale>  0 0.11675309E+03</rscale>
<asrwt>0</asrwt>
<pdfrwt beam="1">  1        2 0.18965001E-01 0.12593031E+03</pdfrwt>
<pdfrwt beam="2">  1       -2 0.17038903E-01 0.12593031E+03</pdfrwt>
<totfact> 0.76733474E+03</totfact>
</mgrwt>
</event>
<event>
 7    1  0.5107591E-006  0.1750650E+03  0.7546771E-02  0.1178519E+00
          1   -1    0    0  501    0  0.00000000000E+00  0.00000000000E+00  0.21212285694E+03  0.21212285694E+03  0.00000000000E+00 0. -1.
         -1   -1    0    0    0  501 -0.00000000000E+00 -0.00000000000E+00 -0.16986372828E+03  0.16986372828E+03  0.00000000000E+00 0.  1.
         23    2    1    2    0    0  0.79874692073E+02 -0.92961161776E+02  0.11575821725E+03  0.19211857783E+03  0.92129468972E+02 0.  0.
          5    1    1    2  502    0 -0.77290071914E+02  0.10734403544E+03 -0.19569986226E+02  0.13379675453E+03  0.47000000000E+01 0. -1.
         -5    1    1    2    0  502 -0.25846201590E+01 -0.14382873664E+02 -0.53929102367E+02  0.56071252869E+02  0.47000000000E+01 0. -1.
        -11    1    3    3    0    0 -0.16227547672E+02 -0.24632292882E+02  0.42037440416E+01  0.29795211360E+02  0.00000000000E+00 0.  1.
         11    1    3    3    0    0  0.96102239745E+02 -0.68328868894E+02  0.11155447321E+03  0.16232336647E+03  0.00000000000E+00 0. -1.
<mgrwt>
<rscale>  0 0.16935774E+03</rscale>
<asrwt>0</asrwt>
<pdfrwt beam="1">  1        1 0.32634286E-01 0.17506497E+03</pdfrwt>
<pdfrwt beam="2">  1       -1 0.26132881E-01 0.17506497E+03</pdfrwt>
<totfact> 0.17358054E+03</totfact>
</mgrwt>
</event>
<event>
 7    1  0.5107591E-006  0.1310163E+03  0.7546771E-02  0.1239860E+00
         -1   -1    0    0    0  501 -0.00000000000E+00  0.00000000000E+00  0.13274862230E+02  0.13274862230E+02  0.00000000000E+00 0.  1.
          1   -1    0    0  501    0  0.00000000000E+00 -0.00000000000E+00 -0.10035432601E+04  0.10035432601E+04  0.00000000000E+00 0. -1.
         23    2    1    2    0    0  0.14001116051E+02 -0.36649851857E+02 -0.48046758065E+03  0.49045119721E+03  0.90299711513E+02 0.  0.
          5    1    1    2  502    0  0.11851612672E+01  0.81817573381E+02 -0.35451771675E+03  0.36386868704E+03  0.47000000000E+01 0.  1.
         -5    1    1    2    0  502 -0.15186277318E+02 -0.45167721524E+02 -0.15528310052E+03  0.16249823812E+03  0.47000000000E+01 0.  1.
        -11    1    3    3    0    0  0.48009977384E+02 -0.42179167970E+02 -0.30188497229E+03  0.30857507455E+03  0.00000000000E+00 0.  1.
         11    1    3    3    0    0 -0.34008861334E+02  0.55293161128E+01 -0.17858260835E+03  0.18187612266E+03  0.00000000000E+00 0. -1.
<mgrwt>
<rscale>  0 0.12198398E+03</rscale>
<asrwt>0</asrwt>
<pdfrwt beam="2">  1        1 0.15439133E+00 0.13101628E+03</pdfrwt>
<pdfrwt beam="1">  1       -1 0.20422857E-02 0.13101628E+03</pdfrwt>
<totfact> 0.10169870E+04</totfact>
</mgrwt>
</event>
<event>
 7    1  0.5107591E-006  0.1669250E+03  0.7546771E-02  0.1191406E+00
          3   -1    0    0  501    0  0.00000000000E+00  0.00000000000E+00  0.16835238965E+02  0.16835238965E+02  0.00000000000E+00 0. -1.
         -3   -1    0    0    0  501 -0.00000000000E+00 -0.00000000000E+00 -0.13520308557E+04  0.13520308557E+04  0.00000000000E+00 0.  1.
         23    2    1    2    0    0  0.63353105761E+01  0.11044749582E+03 -0.51236420365E+03  0.52927364004E+03  0.73312504804E+02 0.  0.
          5    1    1    2  502    0  0.21831007292E+02 -0.86137924872E+02 -0.76814840229E+03  0.77328545371E+03  0.47000000000E+01 0. -1.
         -5    1    1    2    0  502 -0.28166317868E+02 -0.24309570949E+02 -0.54683010829E+02  0.66307000952E+02  0.47000000000E+01 0. -1.
        -11    1    3    3    0    0 -0.10169078555E+02  0.91987670209E+02 -0.47823559547E+03  0.48710822864E+03  0.00000000000E+00 0.  1.
         11    1    3    3    0    0  0.16504389131E+02  0.18459825612E+02 -0.34128608179E+02  0.42165411399E+02  0.00000000000E+00 0. -1.
<mgrwt>
<rscale>  0 0.15762379E+03</rscale>
<asrwt>0</asrwt>
<pdfrwt beam="1">  1        3 0.25900356E-02 0.16692500E+03</pdfrwt>
<pdfrwt beam="2">  1       -3 0.20800484E+00 0.16692500E+03</pdfrwt>
<totfact> 0.22039397E+02</totfact>
</mgrwt>
</event>
<event>
 7    1  0.5107591E-006  0.2130754E+03  0.7546771E-02  0.1142874E+00
         -2   -1    0    0    0  501 -0.00000000000E+00  0.00000000000E+00  0.46920799381E+02  0.46920799381E+02  0.00000000000E+00 0.  1.
          2   -1    0    0  501    0  0.00000000000E+00 -0.00000000000E+00 -0.10123266157E+04  0.10123266157E+04  0.00000000000E+00 0. -1.
         23    2    1    2    0    0 -0.17005118919E+03  0.29314738406E+02 -0.65035473365E+03  0.67890766219E+03  0.90429936256E+02 0.  0.
          5    1    1    2  502    0  0.28779470077E+02 -0.46869231119E+02 -0.16254743725E+03  0.17166462093E+03  0.47000000000E+01 0.  1.
         -5    1    1    2    0  502  0.14127171911E+03  0.17554492713E+02 -0.15250364546E+03  0.20867513199E+03  0.47000000000E+01 0.  1.
        -11    1    3    3    0    0 -0.82172458037E+02  0.40429834139E+01 -0.15802998208E+03  0.17816322238E+03  0.00000000000E+00 0.  1.
         11    1    3    3    0    0 -0.87878731150E+02  0.25271754992E+02 -0.49232475157E+03  0.50074443981E+03  0.00000000000E+00 0. -1.
<mgrwt>
<rscale>  0 0.20835682E+03</rscale>
<asrwt>0</asrwt>
<pdfrwt beam="2">  1        2 0.15574253E+00 0.21307544E+03</pdfrwt>
<pdfrwt beam="1">  1       -2 0.72185857E-02 0.21307544E+03</pdfrwt>
<totfact> 0.28516440E+03</totfact>
</mgrwt>
</event>
<event>
 7    1  0.5107591E-006  0.4326747E+03  0.7546771E-02  0.1033018E+00
          2   -1    0    0  501    0  0.00000000000E+00  0.00000000000E+00  0.24529894230E+03  0.24529894230E+03  0.00000000000E+00 0. -1.
         -2   -1    0    0    0  501 -0.00000000000E+00 -0.00000000000E+00 -0.19079515470E+03  0.19079515470E+03  0.00000000000E+00 0.  1.
         23    2    1    2    0    0 -0.10370642922E+03  0.74625003299E+02  0.11981099667E+02  0.16591976026E+03  0.10517559372E+03 0.  0.
          5    1    1    2  502    0  0.15006814273E+03 -0.66968675239E+02  0.10257685844E+03  0.19377655383E+03  0.47000000000E+01 0. -1.
         -5    1    1    2    0  502 -0.46361713504E+02 -0.76563280603E+01 -0.60054170507E+02  0.76397782911E+02  0.47000000000E+01 0.  1.
        -11    1    3    3    0    0 -0.76288559157E+02  0.87505397104E+02 -0.24349248802E+02  0.11861713492E+03  0.00000000000E+00 0.  1.
         11    1    3    3    0    0 -0.27417870065E+02 -0.12880393804E+02  0.36330348468E+02  0.47302625332E+02  0.00000000000E+00 0. -1.
<mgrwt>
<rscale>  0 0.43267470E+03</rscale>
<asrwt>0</asrwt>
<pdfrwt beam="1">  1        2 0.37738299E-01 0.43267470E+03</pdfrwt>
<pdfrwt beam="2">  1       -2 0.29353101E-01 0.43267470E+03</pdfrwt>
<totfact> 0.14598311E+03</totfact>
</mgrwt>
</event>
<event>
 6    1  0.5107591E-006  0.1713017E+03  0.7546771E-02  0.1249683E+00
         -2   -1    0    0    0  501 -0.00000000000E+00  0.00000000000E+00  0.77488272409E+03  0.77488272409E+03  0.00000000000E+00 0.  1.
          2   -1    0    0  501    0  0.00000000000E+00 -0.00000000000E+00 -0.15387924272E+02  0.15387924272E+02  0.00000000000E+00 0. -1.
          5    1    1    2  502    0  0.50827941638E+02 -0.64826146703E+02  0.24005886200E+03  0.25384297542E+03  0.47000000000E+01 0. -1.
         -5    1    1    2    0  502 -0.52674577160E+02  0.59755699320E+02  0.45998646348E+03  0.46685649965E+03  0.47000000000E+01 0.  1.
        -11    1    1    2    0    0 -0.36435766642E+01  0.19878019136E+02  0.36331479630E+02  0.41573882520E+02  0.00000000000E+00 0.  1.
         11    1    1    2    0    0  0.54902121861E+01 -0.14807571754E+02  0.23117994712E+02  0.27997290773E+02  0.00000000000E+00 0. -1.
<mgrwt>
<rscale>  0 0.11609415E+03</rscale>
<asrwt>0</asrwt>
<pdfrwt beam="2">  1        2 0.23673736E-02 0.17130171E+03</pdfrwt>
<pdfrwt beam="1">  1       -2 0.11921270E+00 0.17130171E+03</pdfrwt>
<totfact> 0.23782406E+03</totfact>
</mgrwt>
</event>
<event>
 7    1  0.5107591E-006  0.1593246E+03  0.7546771E-02  0.1195357E+00
         -2   -1    0    0    0  501 -0.00000000000E+00  0.00000000000E+00  0.35374848349E+02  0.35374848349E+02  0.00000000000E+00 0.  1.
          2   -1    0    0  501    0  0.00000000000E+00 -0.00000000000E+00 -0.67996530668E+03  0.67996530668E+03  0.00000000000E+00 0. -1.
         23    2    1    2    0    0 -0.94035957525E+02 -0.30306866601E+02 -0.39674101595E+03  0.42069852831E+03  0.99108781221E+02 0.  0.
          5    1    1    2  502    0  0.68511426240E+02 -0.42067816129E+02 -0.10402565540E+03  0.13155585757E+03  0.47000000000E+01 0.  1.
         -5    1    1    2    0  502  0.25524531284E+02  0.72374682730E+02 -0.14382378698E+03  0.16308576915E+03  0.47000000000E+01 0.  1.
        -11    1    3    3    0    0  0.17615912500E+02 -0.23919218724E+01 -0.19944179901E+02  0.26717259878E+02  0.00000000000E+00 0.  1.
         11    1    3    3    0    0 -0.11165187003E+03 -0.27914944729E+02 -0.37679683605E+03  0.39398126843E+03  0.00000000000E+00 0. -1.
<mgrwt>
<rscale>  0 0.15424084E+03</rscale>
<asrwt>0</asrwt>
<pdfrwt beam="2">  1        2 0.10461004E+00 0.15932464E+03</pdfrwt>
<pdfrwt beam="1">  1       -2 0.54422849E-02 0.15932464E+03</pdfrwt>
<totfact> 0.72563468E+03</totfact>
</mgrwt>
</event>
<event>
 7    1  0.5107591E-006  0.1526290E+03  0.7546771E-02  0.1205077E+00
         -2   -1    0    0    0  501 -0.00000000000E+00  0.00000000000E+00  0.74089344802E+03  0.74089344802E+03  0.00000000000E+00 0. -1.
          2   -1    0    0  501    0  0.00000000000E+00 -0.00000000000E+00 -0.42078282471E+02  0.42078282471E+02  0.00000000000E+00 0.  1.
         23    2    1    2    0    0  0.86241912726E+02  0.15311963061E+02  0.94884735568E+02  0.16005313123E+03  0.94560922430E+02 0.  0.
          5    1    1    2  502    0  0.32589658963E+02 -0.32281488410E+01  0.13348032685E+03  0.13751943307E+03  0.47000000000E+01 0.  1.
         -5    1    1    2    0  502 -0.11883157169E+03 -0.12083814220E+02  0.47045010313E+03  0.48539916618E+03  0.47000000000E+01 0.  1.
        -11    1    3    3    0    0  0.25712398817E+02 -0.22566004801E+02  0.80148254398E+02  0.87144103120E+02  0.00000000000E+00 0. -1.
         11    1    3    3    0    0  0.60529513909E+02  0.37877967861E+02  0.14736481170E+02  0.72909028115E+02  0.00000000000E+00 0.  1.
<mgrwt>
<rscale>  0 0.14631429E+03</rscale>
<asrwt>0</asrwt>
<pdfrwt beam="2">  1        2 0.64735824E-02 0.15262902E+03</pdfrwt>
<pdfrwt beam="1">  1       -2 0.11398360E+00 0.15262902E+03</pdfrwt>
<totfact> 0.69043478E+02</totfact>
</mgrwt>
</event>
<event>
 7    1  0.5107591E-006  0.1511320E+03  0.7546771E-02  0.1215882E+00
          2   -1    0    0  501    0  0.00000000000E+00  0.00000000000E+00  0.31871539669E+03  0.31871539669E+03  0.00000000000E+00 0. -1.
         -2   -1    0    0    0  501 -0.00000000000E+00 -0.00000000000E+00 -0.52491593444E+02  0.52491593444E+02  0.00000000000E+00 0.  1.
         23    2    1    2    0    0 -0.92324602832E+01 -0.63793399397E+02  0.86391143604E+02  0.13630133316E+03  0.83425341469E+02 0.  0.
          5    1    1    2  502    0 -0.51223248642E+01  0.10426509191E+02  0.17899797316E+03  0.17943610201E+03  0.47000000000E+01 0. -1.
         -5    1    1    2    0  502  0.14354785147E+02  0.53366890206E+02  0.83468647961E+00  0.55469554968E+02  0.47000000000E+01 0.  1.
        -11    1    3    3    0    0  0.14837813747E+02  0.13256849183E+02  0.36025358304E+02  0.41154965776E+02  0.00000000000E+00 0.  1.
         11    1    3    3    0    0 -0.24070274030E+02 -0.77050248580E+02  0.50365785299E+02  0.95146367387E+02  0.00000000000E+00 0. -1.
<mgrwt>
<rscale>  0 0.13811924E+03</rscale>
<asrwt>0</asrwt>
<pdfrwt beam="1">  1        2 0.49033137E-01 0.15113200E+03</pdfrwt>
<pdfrwt beam="2">  1       -2 0.80756299E-02 0.15113200E+03</pdfrwt>
<totfact> 0.91139534E+03</totfact>
</mgrwt>
</event>
<event>
 7    1  0.5107591E-006  0.1469511E+03  0.7546771E-02  0.1213991E+00
          2   -1    0    0  501    0  0.00000000000E+00  0.00000000000E+00  0.16035045839E+03  0.16035045839E+03  0.00000000000E+00 0. -1.
         -2   -1    0    0    0  501 -0.00000000000E+00 -0.00000000000E+00 -0.13449806034E+03  0.13449806034E+03  0.00000000000E+00 0.  1.
         23    2    1    2    0    0 -0.72365167410E+02  0.27071924232E+02  0.73718040621E+02  0.14029842396E+03  0.90992811349E+02 0.  0.
          5    1    1    2  502    0  0.51134907842E+02 -0.64620283352E+02 -0.67785536741E+02  0.10680603359E+03  0.47000000000E+01 0. -1.
         -5    1    1    2    0  502  0.21230259568E+02  0.37548359120E+02  0.19919894172E+02  0.47744061178E+02  0.47000000000E+01 0. -1.
        -11    1    3    3    0    0 -0.33904734311E+02  0.56357218797E+02  0.21630451058E+02  0.69235421081E+02  0.00000000000E+00 0.  1.
         11    1    3    3    0    0 -0.38460433099E+02 -0.29285294565E+02  0.52087589562E+02  0.71063002880E+02  0.00000000000E+00 0. -1.
<mgrwt>
<rscale>  0 0.13950948E+03</rscale>
<asrwt>0</asrwt>
<pdfrwt beam="1">  1        2 0.24669301E-01 0.14695105E+03</pdfrwt>
<pdfrwt beam="2">  1       -2 0.20692009E-01 0.14695105E+03</pdfrwt>
<totfact> 0.41672925E+03</totfact>
</mgrwt>
</event>
<event>
 7    1  0.5107591E-006  0.1360360E+03  0.7546771E-02  0.1230108E+00
          2   -1    0    0  501    0  0.00000000000E+00  0.00000000000E+00  0.11733294640E+03  0.11733294640E+03  0.00000000000E+00 0. -1.
         -2   -1    0    0    0  501 -0.00000000000E+00 -0.00000000000E+00 -0.14286867639E+03  0.14286867639E+03  0.00000000000E+00 0.  1.
         23    2    1    2    0    0 -0.50061882700E+02 -0.19355799128E+02  0.32645180775E+02  0.11224618046E+03  0.93019665342E+02 0.  0.
          5    1    1    2  502    0  0.47397766956E+02  0.70239066569E+02 -0.36592562336E+02  0.92418506822E+02  0.47000000000E+01 0. -1.
         -5    1    1    2    0  502  0.26641157441E+01 -0.50883267441E+02 -0.21588348432E+02  0.55536935513E+02  0.47000000000E+01 0. -1.
        -11    1    3    3    0    0 -0.54626917441E+01 -0.32177638116E+02  0.52462333373E+02  0.61786226772E+02  0.00000000000E+00 0. -1.
         11    1    3    3    0    0 -0.44599190956E+02  0.12821838988E+02 -0.19817152597E+02  0.50459953687E+02  0.00000000000E+00 0.  1.
<mgrwt>
<rscale>  0 0.12822879E+03</rscale>
<asrwt>0</asrwt>
<pdfrwt beam="1">  1        2 0.18051223E-01 0.13603600E+03</pdfrwt>
<pdfrwt beam="2">  1       -2 0.21979796E-01 0.13603600E+03</pdfrwt>
<totfact> 0.53169307E+03</totfact>
</mgrwt>
</event>
<event>
 7    1  0.5107591E-006  0.1599424E+03  0.7546771E-02  0.1196394E+00
         -1   -1    0    0    0  501 -0.00000000000E+00  0.00000000000E+00  0.40983700255E+03  0.40983700255E+03  0.00000000000E+00 0.  1.
          1   -1    0    0  501    0  0.00000000000E+00 -0.00000000000E+00 -0.69167840862E+02  0.69167840862E+02  0.00000000000E+00 0. -1.
         23    2    1    2    0    0 -0.90147302892E+02 -0.42770875475E+02  0.44410132101E+02  0.14232847235E+03  0.91264725941E+02 0.  0.
          5    1    1    2  502    0  0.37064085574E+02  0.84053766235E+02  0.18457596471E+03  0.20622598965E+03  0.47000000000E+01 0. -1.
         -5    1    1    2    0  502  0.53083217319E+02 -0.41282890760E+02  0.11168306487E+03  0.13045038141E+03  0.47000000000E+01 0. -1.
        -11    1    3    3    0    0 -0.25836485618E+02  0.18032984464E+02  0.43634570057E+02  0.53820890199E+02  0.00000000000E+00 0.  1.
         11    1    3    3    0    0 -0.64310817274E+02 -0.60803859939E+02  0.77556204439E+00  0.88507582152E+02  0.00000000000E+00 0. -1.
<mgrwt>
<rscale>  0 0.15336807E+03</rscale>
<asrwt>0</asrwt>
<pdfrwt beam="2">  1        1 0.10641206E-01 0.15994238E+03</pdfrwt>
<pdfrwt beam="1">  1       -1 0.63051845E-01 0.15994238E+03</pdfrwt>
<totfact> 0.15303449E+03</totfact>
</mgrwt>
</event>
<event>
 7    1  0.5107591E-006  0.1250820E+03  0.7546771E-02  0.1254239E+00
          1   -1    0    0  501    0  0.00000000000E+00  0.00000000000E+00  0.40736962984E+02  0.40736962984E+02  0.00000000000E+00 0. -1.
         -1   -1    0    0    0  501 -0.00000000000E+00 -0.00000000000E+00 -0.76474715189E+03  0.76474715189E+03  0.00000000000E+00 0.  1.
         23    2    1    2    0    0  0.34297619825E+02  0.36437041872E+02 -0.15699938288E+02  0.86214405475E+02  0.68428436363E+02 0.  0.
          5    1    1    2  502    0  0.34206740467E+02 -0.41677017303E+02 -0.37820218600E+03  0.38205504624E+03  0.47000000000E+01 0. -1.
         -5    1    1    2    0  502 -0.68504360292E+02  0.52399754314E+01 -0.33010806462E+03  0.33721466315E+03  0.47000000000E+01 0.  1.
        -11    1    3    3    0    0  0.54233898525E+02  0.30396612661E+02 -0.39472597102E+01  0.62296473975E+02  0.00000000000E+00 0. -1.
         11    1    3    3    0    0 -0.19936278700E+02  0.60404292105E+01 -0.11752678578E+02  0.23917931500E+02  0.00000000000E+00 0.  1.
<mgrwt>
<rscale>  0 0.11349070E+03</rscale>
<asrwt>0</asrwt>
<pdfrwt beam="1">  1        1 0.62672249E-02 0.12508199E+03</pdfrwt>
<pdfrwt beam="2">  1       -1 0.11765341E+00 0.12508199E+03</pdfrwt>
<totfact> 0.83052277E+02</totfact>
</mgrwt>
</event>
<event>
 6    1  0.5107591E-006  0.3867208E+03  0.7546771E-02  0.1048477E+00
         -1   -1    0    0    0  501 -0.00000000000E+00  0.00000000000E+00  0.15138836461E+03  0.15138836461E+03  0.00000000000E+00 0.  1.
          1   -1    0    0  501    0  0.00000000000E+00 -0.00000000000E+00 -0.24696905140E+03  0.24696905140E+03  0.00000000000E+00 0. -1.
          5    1    1    2  502    0 -0.69967374725E+02 -0.54491902315E+02  0.29426993764E+02  0.93556608029E+02  0.47000000000E+01 0. -1.
         -5    1    1    2    0  502 -0.79084559601E+01  0.57703402761E+02  0.15237646701E+02  0.60386275285E+02  0.47000000000E+01 0. -1.
        -11    1    1    2    0    0  0.10247787289E+03 -0.52192301005E+02 -0.26301482153E+02  0.11797253358E+03  0.00000000000E+00 0.  1.
         11    1    1    2    0    0 -0.24602042203E+02  0.48980800559E+02 -0.11394384510E+03  0.12644199911E+03  0.00000000000E+00 0. -1.
<mgrwt>
<rscale>  0 0.38672078E+03</rscale>
<asrwt>0</asrwt>
<pdfrwt beam="2">  1        1 0.37995238E-01 0.38672078E+03</pdfrwt>
<pdfrwt beam="1">  1       -1 0.23290518E-01 0.38672078E+03</pdfrwt>
<totfact> 0.17665182E+03</totfact>
</mgrwt>
</event>
<event>
 7    1  0.5107591E-006  0.1840872E+03  0.7546771E-02  0.1169725E+00
         -1   -1    0    0    0  501 -0.00000000000E+00  0.00000000000E+00  0.13362760475E+03  0.13362760475E+03  0.00000000000E+00 0.  1.
          1   -1    0    0  501    0  0.00000000000E+00 -0.00000000000E+00 -0.22321817474E+03  0.22321817474E+03  0.00000000000E+00 0. -1.
         23    2    1    2    0    0 -0.88759203010E+02  0.10191233330E+03 -0.34298459917E+02  0.16463411956E+03  0.87542499234E+02 0.  0.
          5    1    1    2  502    0  0.97707431547E+02 -0.12341186834E+03 -0.35834826231E+02  0.16150373431E+03  0.47000000000E+01 0.  1.
         -5    1    1    2    0  502 -0.89482285375E+01  0.21499535037E+02 -0.19457283846E+02  0.30707925612E+02  0.47000000000E+01 0.  1.
        -11    1    3    3    0    0 -0.33581131596E+02  0.13276412284E+02  0.25600604269E+02  0.44264505660E+02  0.00000000000E+00 0.  1.
         11    1    3    3    0    0 -0.55178071414E+02  0.88635921018E+02 -0.59899064186E+02  0.12036961390E+03  0.00000000000E+00 0. -1.
<mgrwt>
<rscale>  0 0.17802823E+03</rscale>
<asrwt>0</asrwt>
<pdfrwt beam="2">  1        1 0.34341258E-01 0.18408722E+03</pdfrwt>
<pdfrwt beam="1">  1       -1 0.20558093E-01 0.18408722E+03</pdfrwt>
<totfact> 0.24183862E+03</totfact>
</mgrwt>
</event>
<event>
 7    1  0.5107591E-006  0.1700151E+03  0.7546771E-02  0.1184684E+00
         -1   -1    0    0    0  501 -0.00000000000E+00  0.00000000000E+00  0.52265684027E+02  0.52265684027E+02  0.00000000000E+00 0.  1.
          1   -1    0    0  501    0  0.00000000000E+00 -0.00000000000E+00 -0.56686457865E+03  0.56686457865E+03  0.00000000000E+00 0. -1.
         23    2    1    2    0    0  0.11418630325E+03 -0.15469691657E+02 -0.36360129732E+03  0.39174199847E+03  0.89320024318E+02 0.  0.
          5    1    1    2  502    0 -0.75492652285E+02 -0.16967735337E+02 -0.10757336279E+02  0.78261452039E+02  0.47000000000E+01 0.  1.
         -5    1    1    2    0  502 -0.38693650960E+02  0.32437426994E+02 -0.14024026103E+03  0.14912681217E+03  0.47000000000E+01 0.  1.
        -11    1    3    3    0    0  0.10267033041E+03  0.22160441599E+02 -0.28714503350E+03  0.30575243610E+03  0.00000000000E+00 0.  1.
         11    1    3    3    0    0  0.11515972838E+02 -0.37630133256E+02 -0.76456263819E+02  0.85989562369E+02  0.00000000000E+00 0. -1.
<mgrwt>
<rscale>  0 0.16360652E+03</rscale>
<asrwt>0</asrwt>
<pdfrwt beam="2">  1        1 0.87209936E-01 0.17001514E+03</pdfrwt>
<pdfrwt beam="1">  1       -1 0.80408744E-02 0.17001514E+03</pdfrwt>
<totfact> 0.31950135E+03</totfact>
</mgrwt>
</event>
<event>
 7    1  0.5107591E-006  0.1782349E+03  0.7546771E-02  0.1182033E+00
         -2   -1    0    0    0  501 -0.00000000000E+00  0.00000000000E+00  0.29649011855E+02  0.29649011855E+02  0.00000000000E+00 0.  1.
          2   -1    0    0  501    0  0.00000000000E+00 -0.00000000000E+00 -0.83848066316E+03  0.83848066316E+03  0.00000000000E+00 0. -1.
         23    2    1    2    0    0 -0.68678109136E+02  0.70375225474E+02 -0.40612404424E+03  0.42774224435E+03  0.91418451413E+02 0.  0.
          5    1    1    2  502    0 -0.22623180300E+01  0.33116547495E+02 -0.19358497886E+03  0.19646642930E+03  0.47000000000E+01 0. -1.
         -5    1    1    2    0  502  0.70940427166E+02 -0.10349177297E+03 -0.20912262821E+03  0.24392100136E+03  0.47000000000E+01 0.  1.
        -11    1    3    3    0    0  0.14539166964E+02 -0.10535866107E+02 -0.63675704292E+02  0.66158802647E+02  0.00000000000E+00 0. -1.
         11    1    3    3    0    0 -0.83217276100E+02  0.80911091581E+02 -0.34244833994E+03  0.36158344170E+03  0.00000000000E+00 0.  1.
<mgrwt>
<rscale>  0 0.16604814E+03</rscale>
<asrwt>0</asrwt>
<pdfrwt beam="2">  1        2 0.12899703E+00 0.17823488E+03</pdfrwt>
<pdfrwt beam="1">  1       -2 0.45613863E-02 0.17823488E+03</pdfrwt>
<totfact> 0.73602714E+03</totfact>
</mgrwt>
</event>
<event>
 7    1  0.5107591E-006  0.1318492E+03  0.7546771E-02  0.1238771E+00
          1   -1    0    0  501    0  0.00000000000E+00  0.00000000000E+00  0.17604841601E+03  0.17604841601E+03  0.00000000000E+00 0. -1.
         -1   -1    0    0    0  501 -0.00000000000E+00 -0.00000000000E+00 -0.75889239124E+02  0.75889239124E+02  0.00000000000E+00 0.  1.
         23    2    1    2    0    0 -0.41935715018E+02  0.46372799432E+00  0.51612345875E+02  0.11143493668E+03  0.89415276260E+02 0.  0.
          5    1    1    2  502    0 -0.33282117948E+02  0.25962367194E+00  0.55425335617E+02  0.64821482610E+02  0.47000000000E+01 0. -1.
         -5    1    1    2    0  502  0.75217832966E+02 -0.72335166626E+00 -0.68785046022E+01  0.75681235847E+02  0.47000000000E+01 0. -1.
        -11    1    3    3    0    0 -0.63687235563E+02  0.58269276477E+01  0.10772772877E+02  0.64854218790E+02  0.00000000000E+00 0.  1.
         11    1    3    3    0    0  0.21751520545E+02 -0.53631996534E+01  0.40839572998E+02  0.46580717891E+02  0.00000000000E+00 0. -1.
<mgrwt>
<rscale>  0 0.12266073E+03</rscale>
<asrwt>0</asrwt>
<pdfrwt beam="1">  1        1 0.27084372E-01 0.13184923E+03</pdfrwt>
<pdfrwt beam="2">  1       -1 0.11675268E-01 0.13184923E+03</pdfrwt>
<totfact> 0.78005026E+03</totfact>
</mgrwt>
</event>
<event>
 7    1  0.5107591E-006  0.2889360E+03  0.7546771E-02  0.1104541E+00
          3   -1    0    0  501    0  0.00000000000E+00  0.00000000000E+00  0.29881434474E+03  0.29881434474E+03  0.00000000000E+00 0. -1.
         -3   -1    0    0    0  501 -0.00000000000E+00 -0.00000000000E+00 -0.33868504522E+03  0.33868504522E+03  0.00000000000E+00 0.  1.
         23    2    1    2    0    0 -0.15833973152E+03 -0.86201987964E+02  0.18271398187E+03  0.27276944278E+03  0.92284974049E+02 0.  0.
          5    1    1    2  502    0  0.18710489181E+02  0.12799215277E+03 -0.16062627902E+03  0.20628854813E+03  0.47000000000E+01 0. -1.
         -5    1    1    2    0  502  0.13962924234E+03 -0.41790164805E+02 -0.61958403325E+02  0.15844139905E+03  0.47000000000E+01 0.  1.
        -11    1    3    3    0    0 -0.14474037788E+03 -0.51268373280E+02  0.10362745073E+03  0.18524813530E+03  0.00000000000E+00 0. -1.
         11    1    3    3    0    0 -0.13599353641E+02 -0.34933614683E+02  0.79086531144E+02  0.87521307478E+02  0.00000000000E+00 0.  1.
<mgrwt>
<rscale>  0 0.26437722E+03</rscale>
<asrwt>0</asrwt>
<pdfrwt beam="1">  1        3 0.45971438E-01 0.28893597E+03</pdfrwt>
<pdfrwt beam="2">  1       -3 0.52105392E-01 0.28893597E+03</pdfrwt>
<totfact> 0.43479830E+01</totfact>
</mgrwt>
</event>
<event>
 6    1  0.5107591E-006  0.1144699E+03  0.7546771E-02  0.1309302E+00
         -2   -1    0    0    0  501 -0.00000000000E+00  0.00000000000E+00  0.13604239766E+02  0.13604239766E+02  0.00000000000E+00 0.  1.
          2   -1    0    0  501    0  0.00000000000E+00 -0.00000000000E+00 -0.43233951816E+03  0.43233951816E+03  0.00000000000E+00 0. -1.
          5    1    1    2  502    0  0.12431094465E+02 -0.45739374934E+02 -0.85110724211E+02  0.97532291600E+02  0.47000000000E+01 0. -1.
         -5    1    1    2    0  502 -0.62900205711E+01  0.60307599495E+02 -0.22340602846E+03  0.23153598957E+03  0.47000000000E+01 0.  1.
        -11    1    1    2    0    0 -0.10507537463E+02 -0.24938524514E+02 -0.68102418794E+02  0.73282179240E+02  0.00000000000E+00 0. -1.
         11    1    1    2    0    0  0.43664635696E+01  0.10370299953E+02 -0.42116106936E+02  0.43593297520E+02  0.00000000000E+00 0.  1.
<mgrwt>
<rscale>  0 0.87388336E+02</rscale>
<asrwt>0</asrwt>
<pdfrwt beam="2">  1        2 0.66513773E-01 0.11446985E+03</pdfrwt>
<pdfrwt beam="1">  1       -2 0.20929599E-02 0.11446985E+03</pdfrwt>
<totfact> 0.48041275E+04</totfact>
</mgrwt>
</event>
<event>
 7    1  0.5107591E-006  0.1844672E+03  0.7546771E-02  0.1168406E+00
          2   -1    0    0  501    0  0.00000000000E+00  0.00000000000E+00  0.53175868336E+02  0.53175868336E+02  0.00000000000E+00 0. -1.
         -2   -1    0    0    0  501 -0.00000000000E+00 -0.00000000000E+00 -0.62548158171E+03  0.62548158171E+03  0.00000000000E+00 0.  1.
         23    2    1    2    0    0  0.12101230196E+03 -0.61301974937E+02 -0.17422895758E+03  0.23991690232E+03  0.93821538048E+02 0.  0.
          5    1    1    2  502    0 -0.74288979695E+02  0.90204243471E+02 -0.33568476926E+03  0.35547434838E+03  0.47000000000E+01 0. -1.
         -5    1    1    2    0  502 -0.46723322266E+02 -0.28902268534E+02 -0.62391986543E+02  0.83266199353E+02  0.47000000000E+01 0. -1.
        -11    1    3    3    0    0  0.35136842594E+02 -0.25249760772E+02 -0.10489777268E+01  0.43281040661E+02  0.00000000000E+00 0.  1.
         11    1    3    3    0    0  0.85875459368E+02 -0.36052214165E+02 -0.17317997985E+03  0.19663586166E+03  0.00000000000E+00 0. -1.
<mgrwt>
<rscale>  0 0.17937806E+03</rscale>
<asrwt>0</asrwt>
<pdfrwt beam="1">  1        2 0.81809032E-02 0.18446725E+03</pdfrwt>
<pdfrwt beam="2">  1       -2 0.96227931E-01 0.18446725E+03</pdfrwt>
<totfact> 0.76601141E+02</totfact>
</mgrwt>
</event>
<event>
 7    1  0.5107591E-006  0.1296603E+03  0.7546771E-02  0.1241801E+00
         -1   -1    0    0    0  501 -0.00000000000E+00  0.00000000000E+00  0.14625783741E+03  0.14625783741E+03  0.00000000000E+00 0.  1.
          1   -1    0    0  501    0  0.00000000000E+00 -0.00000000000E+00 -0.92365468104E+02  0.92365468104E+02  0.00000000000E+00 0. -1.
         23    2    1    2    0    0 -0.24829437415E+01  0.34407755656E+02 -0.14055639392E+01  0.97663574516E+02  0.91357208355E+02 0.  0.
          5    1    1    2  502    0  0.53932178050E+02  0.12279797023E+02  0.64154678704E+01  0.55881315949E+02  0.47000000000E+01 0. -1.
         -5    1    1    2    0  502 -0.51449234309E+02 -0.46687552679E+02  0.48882465371E+02  0.85078415047E+02  0.47000000000E+01 0. -1.
        -11    1    3    3    0    0 -0.21390169696E+02  0.12614599622E+02 -0.41443081175E+02  0.48313522544E+02  0.00000000000E+00 0. -1.
         11    1    3    3    0    0  0.18907225955E+02  0.21793156034E+02  0.40037517236E+02  0.49350051972E+02  0.00000000000E+00 0.  1.
<mgrwt>
<rscale>  0 0.12078892E+03</rscale>
<asrwt>0</asrwt>
<pdfrwt beam="2">  1        1 0.14210072E-01 0.12966027E+03</pdfrwt>
<pdfrwt beam="1">  1       -1 0.22501206E-01 0.12966027E+03</pdfrwt>
<totfact> 0.62886330E+03</totfact>
</mgrwt>
</event>
<event>
 7    1  0.5107591E-006  0.1526546E+03  0.7546771E-02  0.1205459E+00
         -2   -1    0    0    0  501 -0.00000000000E+00  0.00000000000E+00  0.16749689921E+03  0.16749689921E+03  0.00000000000E+00 0.  1.
          2   -1    0    0  501    0  0.00000000000E+00 -0.00000000000E+00 -0.12315214942E+03  0.12315214942E+03  0.00000000000E+00 0. -1.
         23    2    1    2    0    0  0.84439223337E+02  0.23409453791E+02 -0.11058827949E+02  0.12825147186E+03  0.92995469758E+02 0.  0.
          5    1    1    2  502    0  0.93329854786E+01 -0.53149267459E+02  0.19489274644E+02  0.57566232077E+02  0.47000000000E+01 0.  1.
         -5    1    1    2    0  502 -0.93772208815E+02  0.29739813668E+02  0.35914303090E+02  0.10483134469E+03  0.47000000000E+01 0.  1.
        -11    1    3    3    0    0  0.79484683306E+02  0.42370710336E+02 -0.35593554812E+02  0.96850364577E+02  0.00000000000E+00 0. -1.
         11    1    3    3    0    0  0.49545400310E+01 -0.18961256545E+02  0.24534726863E+02  0.31401107288E+02  0.00000000000E+00 0.  1.
<mgrwt>
<rscale>  0 0.14601343E+03</rscale>
<asrwt>0</asrwt>
<pdfrwt beam="2">  1        2 0.18946484E-01 0.15265457E+03</pdfrwt>
<pdfrwt beam="1">  1       -2 0.25768754E-01 0.15265457E+03</pdfrwt>
<totfact> 0.38438591E+03</totfact>
</mgrwt>
</event>
<event>
 7    1  0.5107591E-006  0.1262946E+03  0.7546771E-02  0.1248301E+00
          2   -1    0    0  501    0  0.00000000000E+00  0.00000000000E+00  0.32882367348E+02  0.32882367348E+02  0.00000000000E+00 0. -1.
         -2   -1    0    0    0  501 -0.00000000000E+00 -0.00000000000E+00 -0.36504743288E+03  0.36504743288E+03  0.00000000000E+00 0.  1.
         23    2    1    2    0    0 -0.15617698321E+02 -0.90698812562E+01 -0.14724150638E+03  0.17399445464E+03  0.90927629462E+02 0.  0.
          5    1    1    2  502    0  0.55302337446E+02 -0.33651156488E+02 -0.73261132960E+02  0.97877640258E+02  0.47000000000E+01 0. -1.
         -5    1    1    2    0  502 -0.39684639125E+02  0.42721037744E+02 -0.11166242620E+03  0.12605770533E+03  0.47000000000E+01 0. -1.
        -11    1    3    3    0    0 -0.17453064179E+02 -0.48341175498E+02 -0.65213113997E+02  0.83031493633E+02  0.00000000000E+00 0. -1.
         11    1    3    3    0    0  0.18353658580E+01  0.39271294242E+02 -0.82028392379E+02  0.90962961009E+02  0.00000000000E+00 0.  1.
<mgrwt>
<rscale>  0 0.11689958E+03</rscale>
<asrwt>0</asrwt>
<pdfrwt beam="1">  1        2 0.50588259E-02 0.12629456E+03</pdfrwt>
<pdfrwt beam="2">  1       -2 0.56161141E-01 0.12629456E+03</pdfrwt>
<totfact> 0.44344534E+03</totfact>
</mgrwt>
</event>
<event>
 7    1  0.5107591E-006  0.1232958E+03  0.7546771E-02  0.1246534E+00
         -1   -1    0    0    0  501 -0.00000000000E+00  0.00000000000E+00  0.44633320779E+03  0.44633320779E+03  0.00000000000E+00 0.  1.
          1   -1    0    0  501    0  0.00000000000E+00 -0.00000000000E+00 -0.28773920720E+02  0.28773920720E+02  0.00000000000E+00 0. -1.
         23    2    1    2    0    0 -0.13469871269E+02 -0.46303618309E+02  0.19818495796E+03  0.22345864184E+03  0.91274446311E+02 0.  0.
          5    1    1    2  502    0  0.55170373156E+01  0.71303712262E+02  0.70948005483E+02  0.10084823531E+03  0.47000000000E+01 0. -1.
         -5    1    1    2    0  502  0.79528339534E+01 -0.25000093953E+02  0.14842632362E+03  0.15080025136E+03  0.47000000000E+01 0.  1.
        -11    1    3    3    0    0 -0.28503950062E+02 -0.68811777248E+02  0.12602687013E+03  0.14639094184E+03  0.00000000000E+00 0.  1.
         11    1    3    3    0    0  0.15034078793E+02  0.22508158939E+02  0.72158087826E+02  0.77067699996E+02  0.00000000000E+00 0. -1.
<mgrwt>
<rscale>  0 0.11794053E+03</rscale>
<asrwt>0</asrwt>
<pdfrwt beam="2">  1        1 0.44267574E-02 0.12329584E+03</pdfrwt>
<pdfrwt beam="1">  1       -1 0.68666642E-01 0.12329584E+03</pdfrwt>
<totfact> 0.41829623E+03</totfact>
</mgrwt>
</event>
<event>
 7    1  0.5107591E-006  0.1217679E+03  0.7546771E-02  0.1253820E+00
         -1   -1    0    0    0  501 -0.00000000000E+00  0.00000000000E+00  0.20344622558E+03  0.20344622558E+03  0.00000000000E+00 0.  1.
          1   -1    0    0  501    0  0.00000000000E+00 -0.00000000000E+00 -0.66975576262E+02  0.66975576262E+02  0.00000000000E+00 0. -1.
         23    2    1    2    0    0 -0.74853822322E+01 -0.29820582582E+02  0.73517965920E+01  0.92941952533E+02  0.87400569420E+02 0.  0.
          5    1    1    2  502    0 -0.13367331131E+02 -0.35389316886E+02  0.90441617039E+01  0.39178771703E+02  0.47000000000E+01 0. -1.
         -5    1    1    2    0  502  0.20852713363E+02  0.65209899468E+02  0.12007469103E+03  0.13830107761E+03  0.47000000000E+01 0.  1.
        -11    1    3    3    0    0 -0.96305044554E+01  0.30605669080E+02  0.48297199809E+00  0.32088734126E+02  0.00000000000E+00 0.  1.
         11    1    3    3    0    0  0.21451222231E+01 -0.60426251661E+02  0.68688245939E+01  0.60853218407E+02  0.00000000000E+00 0. -1.
<mgrwt>
<rscale>  0 0.11372653E+03</rscale>
<asrwt>0</asrwt>
<pdfrwt beam="2">  1        1 0.10303935E-01 0.12176789E+03</pdfrwt>
<pdfrwt beam="1">  1       -1 0.31299419E-01 0.12176789E+03</pdfrwt>
<totfact> 0.55269985E+03</totfact>
</mgrwt>
</event>
<event>
 7    1  0.5107591E-006  0.1645483E+03  0.7546771E-02  0.1190928E+00
         -2   -1    0    0    0  501 -0.00000000000E+00  0.00000000000E+00  0.20705189166E+04  0.20705189166E+04  0.00000000000E+00 0.  1.
          2   -1    0    0  501    0  0.00000000000E+00 -0.00000000000E+00 -0.12003107600E+02  0.12003107600E+02  0.00000000000E+00 0. -1.
         23    2    1    2    0    0  0.51054524311E+01  0.10688901397E+03  0.68342906978E+03  0.69762503497E+03  0.90299883983E+02 0.  0.
          5    1    1    2  502    0  0.29893532237E+02 -0.73626033435E+02  0.36197163398E+03  0.37062105967E+03  0.47000000000E+01 0.  1.
         -5    1    1    2    0  502 -0.34998984668E+02 -0.33262980539E+02  0.10131151052E+04  0.10142759295E+04  0.47000000000E+01 0.  1.
        -11    1    3    3    0    0 -0.27328334453E+02  0.22655392732E+01  0.86939406187E+02  0.91161564710E+02  0.00000000000E+00 0.  1.
         11    1    3    3    0    0  0.32433786884E+02  0.10462347470E+03  0.59648966359E+03  0.60646347026E+03  0.00000000000E+00 0. -1.
<mgrwt>
<rscale>  0 0.15803997E+03</rscale>
<asrwt>0</asrwt>
<pdfrwt beam="2">  1        2 0.18466336E-02 0.16454826E+03</pdfrwt>
<pdfrwt beam="1">  1       -2 0.31854109E+00 0.16454826E+03</pdfrwt>
<totfact> 0.17465057E+02</totfact>
</mgrwt>
</event>
<event>
 7    1  0.5107591E-006  0.1444422E+03  0.7546771E-02  0.1216827E+00
          2   -1    0    0  501    0  0.00000000000E+00  0.00000000000E+00  0.19626149228E+03  0.19626149228E+03  0.00000000000E+00 0. -1.
         -2   -1    0    0    0  501 -0.00000000000E+00 -0.00000000000E+00 -0.10981923968E+03  0.10981923968E+03  0.00000000000E+00 0.  1.
         23    2    1    2    0    0  0.65700518532E+02  0.30332233970E+02  0.10775329776E+03  0.16007489127E+03  0.93683483516E+02 0.  0.
          5    1    1    2  502    0 -0.18218747125E+02 -0.33902792635E+01 -0.70086328485E+02  0.72647093409E+02  0.47000000000E+01 0. -1.
         -5    1    1    2    0  502 -0.47481771407E+02 -0.26941954707E+02  0.48775283333E+02  0.73358747287E+02  0.47000000000E+01 0. -1.
        -11    1    3    3    0    0  0.21531750185E+02 -0.12525635039E+02 -0.10289697716E+02  0.26951543151E+02  0.00000000000E+00 0.  1.
         11    1    3    3    0    0  0.44168768348E+02  0.42857869009E+02  0.11804299547E+03  0.13312334812E+03  0.00000000000E+00 0. -1.
<mgrwt>
<rscale>  0 0.13743195E+03</rscale>
<asrwt>0</asrwt>
<pdfrwt beam="1">  1        2 0.30194076E-01 0.14444219E+03</pdfrwt>
<pdfrwt beam="2">  1       -2 0.16895268E-01 0.14444219E+03</pdfrwt>
<totfact> 0.46903198E+03</totfact>
</mgrwt>
</event>
<event>
 7    1  0.5107591E-006  0.1421235E+03  0.7546771E-02  0.1219576E+00
          1   -1    0    0  501    0  0.00000000000E+00  0.00000000000E+00  0.88141166010E+02  0.88141166010E+02  0.00000000000E+00 0. -1.
         -1   -1    0    0    0  501 -0.00000000000E+00 -0.00000000000E+00 -0.20044586872E+03  0.20044586872E+03  0.00000000000E+00 0.  1.
         23    2    1    2    0    0 -0.36333233064E+02  0.57042705489E+02 -0.19600841726E+02  0.11890178708E+03  0.95809539711E+02 0.  0.
          5    1    1    2  502    0 -0.34737389332E+02 -0.19515864130E+02  0.78421442446E+01  0.40879633031E+02  0.47000000000E+01 0.  1.
         -5    1    1    2    0  502  0.71070622396E+02 -0.37526841360E+02 -0.10054600523E+03  0.12880561462E+03  0.47000000000E+01 0.  1.
        -11    1    3    3    0    0 -0.57545053535E+02  0.38871218029E+02 -0.43667843743E+02  0.82032221441E+02  0.00000000000E+00 0.  1.
         11    1    3    3    0    0  0.21211820471E+02  0.18171487460E+02  0.24067002017E+02  0.36869565637E+02  0.00000000000E+00 0. -1.
<mgrwt>
<rscale>  0 0.13545678E+03</rscale>
<asrwt>0</asrwt>
<pdfrwt beam="1">  1        1 0.13560180E-01 0.14212346E+03</pdfrwt>
<pdfrwt beam="2">  1       -1 0.30837826E-01 0.14212346E+03</pdfrwt>
<totfact> 0.39922090E+03</totfact>
</mgrwt>
</event>
<event>
 7    1  0.5107591E-006  0.1381823E+03  0.7546771E-02  0.1233204E+00
          1   -1    0    0  501    0  0.00000000000E+00  0.00000000000E+00  0.36271579609E+03  0.36271579609E+03  0.00000000000E+00 0. -1.
         -1   -1    0    0    0  501 -0.00000000000E+00 -0.00000000000E+00 -0.55887704973E+02  0.55887704973E+02  0.00000000000E+00 0.  1.
         23    2    1    2    0    0 -0.58649207959E+02 -0.54856015356E+01  0.25239791904E+03  0.27008753181E+03  0.75978575169E+02 0.  0.
          5    1    1    2  502    0  0.92976160188E+02 -0.19887822395E+02  0.35804082320E+02  0.10170601828E+03  0.47000000000E+01 0.  1.
         -5    1    1    2    0  502 -0.34326952228E+02  0.25373423931E+02  0.18626089765E+02  0.46809950984E+02  0.47000000000E+01 0.  1.
        -11    1    3    3    0    0 -0.62789114941E+02  0.22956135224E+02  0.16279015398E+03  0.17598321321E+03  0.00000000000E+00 0.  1.
         11    1    3    3    0    0  0.41399069818E+01 -0.28441736759E+02  0.89607765054E+02  0.94104318592E+02  0.00000000000E+00 0. -1.
<mgrwt>
<rscale>  0 0.12620117E+03</rscale>
<asrwt>0</asrwt>
<pdfrwt beam="1">  1        1 0.55802429E-01 0.13818231E+03</pdfrwt>
<pdfrwt beam="2">  1       -1 0.85981087E-02 0.13818231E+03</pdfrwt>
<totfact> 0.50910762E+03</totfact>
</mgrwt>
</event>
<event>
 7    1  0.5107591E-006  0.1355298E+03  0.7546771E-02  0.1233421E+00
         -2   -1    0    0    0  501 -0.00000000000E+00  0.00000000000E+00  0.48935079731E+02  0.48935079731E+02  0.00000000000E+00 0.  1.
          2   -1    0    0  501    0  0.00000000000E+00 -0.00000000000E+00 -0.31224249238E+03  0.31224249238E+03  0.00000000000E+00 0. -1.
         23    2    1    2    0    0 -0.41668492091E+02 -0.45219899901E+01 -0.16522236972E+03  0.19387841555E+03  0.92378011082E+02 0.  0.
          5    1    1    2  502    0  0.67483015584E+02 -0.33796907802E+02 -0.94053707710E+02  0.12068296609E+03  0.47000000000E+01 0. -1.
         -5    1    1    2    0  502 -0.25814523493E+02  0.38318897792E+02 -0.40313352168E+01  0.46616190479E+02  0.47000000000E+01 0.  1.
        -11    1    3    3    0    0 -0.18522808977E+01 -0.44071276357E+02 -0.58116685496E+02  0.72960657051E+02  0.00000000000E+00 0. -1.
         11    1    3    3    0    0 -0.39816211194E+02  0.39549286367E+02 -0.10710568423E+03  0.12091775850E+03  0.00000000000E+00 0.  1.
<mgrwt>
<rscale>  0 0.12606085E+03</rscale>
<asrwt>0</asrwt>
<pdfrwt beam="2">  1        2 0.48037308E-01 0.13552982E+03</pdfrwt>
<pdfrwt beam="1">  1       -2 0.75284737E-02 0.13552982E+03</pdfrwt>
<totfact> 0.10299311E+04</totfact>
</mgrwt>
</event>
<event>
 6    1  0.5107591E-006  0.3148003E+03  0.7546771E-02  0.1078068E+00
          1   -1    0    0  501    0  0.00000000000E+00  0.00000000000E+00  0.21349361306E+03  0.21349361306E+03  0.00000000000E+00 0. -1.
         -1   -1    0    0    0  501 -0.00000000000E+00 -0.00000000000E+00 -0.11604473897E+03  0.11604473897E+03  0.00000000000E+00 0.  1.
          5    1    1    2  502    0 -0.64203020930E+02  0.66156683449E+00 -0.44249814205E+02  0.78119150177E+02  0.47000000000E+01 0. -1.
         -5    1    1    2    0  502 -0.10131018722E+02 -0.14794995228E+02  0.67301489366E+02  0.69807663584E+02  0.47000000000E+01 0. -1.
        -11    1    1    2    0    0  0.65533264069E+02  0.40152841829E+02 -0.23153185601E+02  0.80267860380E+02  0.00000000000E+00 0.  1.
         11    1    1    2    0    0  0.88007755832E+01 -0.26019413435E+02  0.97550384527E+02  0.10134367789E+03  0.00000000000E+00 0. -1.
<mgrwt>
<rscale>  0 0.31480032E+03</rscale>
<asrwt>0</asrwt>
<pdfrwt beam="1">  1        1 0.32845171E-01 0.31480032E+03</pdfrwt>
<pdfrwt beam="2">  1       -1 0.17853037E-01 0.31480032E+03</pdfrwt>
<totfact> 0.32752600E+03</totfact>
</mgrwt>
</event>
<event>
 7    1  0.5107591E-006  0.1459918E+03  0.7546771E-02  0.1215036E+00
         -1   -1    0    0    0  501 -0.00000000000E+00  0.00000000000E+00  0.25729473028E+03  0.25729473028E+03  0.00000000000E+00 0.  1.
          1   -1    0    0  501    0  0.00000000000E+00 -0.00000000000E+00 -0.12548885767E+03  0.12548885767E+03  0.00000000000E+00 0. -1.
         23    2    1    2    0    0  0.53846599968E+02 -0.52811959114E+02 -0.66617866011E+02  0.13643911775E+03  0.92136493460E+02 0.  0.
          5    1    1    2  502    0 -0.90197165060E+02  0.27963338984E+02  0.95924845039E+02  0.13468905972E+03  0.47000000000E+01 0.  1.
         -5    1    1    2    0  502  0.36350565093E+02  0.24848620130E+02  0.10249889358E+03  0.11165541048E+03  0.47000000000E+01 0.  1.
        -11    1    3    3    0    0  0.47106472596E+02 -0.28567888224E+02 -0.87728789937E+02  0.10359287901E+03  0.00000000000E+00 0. -1.
         11    1    3    3    0    0  0.67401273717E+01 -0.24244070890E+02  0.21110923926E+02  0.32846238739E+02  0.00000000000E+00 0.  1.
<mgrwt>
<rscale>  0 0.13873855E+03</rscale>
<asrwt>0</asrwt>
<pdfrwt beam="2">  1        1 0.19305978E-01 0.14599184E+03</pdfrwt>
<pdfrwt beam="1">  1       -1 0.39583804E-01 0.14599184E+03</pdfrwt>
<totfact> 0.16496069E+03</totfact>
</mgrwt>
</event>
<event>
 7    1  0.5107591E-006  0.1304069E+03  0.7546771E-02  0.1240143E+00
          4   -1    0    0  501    0  0.00000000000E+00  0.00000000000E+00  0.23208028002E+02  0.23208028002E+02  0.00000000000E+00 0. -1.
         -4   -1    0    0    0  501 -0.00000000000E+00 -0.00000000000E+00 -0.65433324753E+03  0.65433324753E+03  0.00000000000E+00 0.  1.
         23    2    1    2    0    0 -0.12780773293E+02 -0.34909862822E+02 -0.15651188642E+03  0.18533828932E+03  0.92044903218E+02 0.  0.
          5    1    1    2  502    0 -0.80363330311E+01  0.76951699837E+02 -0.21986665774E+03  0.23312997221E+03  0.47000000000E+01 0. -1.
         -5    1    1    2    0  502  0.20817106324E+02 -0.42041837015E+02 -0.25474667536E+03  0.25907301400E+03  0.47000000000E+01 0. -1.
        -11    1    3    3    0    0 -0.43011059774E+02  0.97336560743E+01 -0.56001422060E+02  0.71280113609E+02  0.00000000000E+00 0. -1.
         11    1    3    3    0    0  0.30230286480E+02 -0.44643518896E+02 -0.10051046436E+03  0.11405817571E+03  0.00000000000E+00 0.  1.
<mgrwt>
<rscale>  0 0.12180882E+03</rscale>
<asrwt>0</asrwt>
<pdfrwt beam="1">  1        4 0.35704653E-02 0.13040692E+03</pdfrwt>
<pdfrwt beam="2">  1       -4 0.10066667E+00 0.13040692E+03</pdfrwt>
<totfact> 0.56867968E+02</totfact>
</mgrwt>
</event>
<event>
 7    1  0.5107591E-006  0.1333843E+03  0.7546771E-02  0.1235182E+00
          1   -1    0    0  501    0  0.00000000000E+00  0.00000000000E+00  0.23032992661E+03  0.23032992661E+03  0.00000000000E+00 0. -1.
         -1   -1    0    0    0  501 -0.00000000000E+00 -0.00000000000E+00 -0.60470298135E+02  0.60470298135E+02  0.00000000000E+00 0.  1.
         23    2    1    2    0    0 -0.60523015418E+01 -0.46113371298E+02  0.75123732099E+02  0.12719620706E+03  0.91499872126E+02 0.  0.
          5    1    1    2  502    0  0.43405522661E+02 -0.11386728014E+02 -0.17369067233E+01  0.45153115256E+02  0.47000000000E+01 0.  1.
         -5    1    1    2    0  502 -0.37353221120E+02  0.57500099312E+02  0.96472803094E+02  0.11845090243E+03  0.47000000000E+01 0.  1.
        -11    1    3    3    0    0 -0.23782475678E+02 -0.65647144931E+02  0.32375012625E+02  0.76962947121E+02  0.00000000000E+00 0.  1.
         11    1    3    3    0    0  0.17730174137E+02  0.19533773633E+02  0.42748719473E+02  0.50233259937E+02  0.00000000000E+00 0. -1.
<mgrwt>
<rscale>  0 0.12492792E+03</rscale>
<asrwt>0</asrwt>
<pdfrwt beam="1">  1        1 0.35435373E-01 0.13338435E+03</pdfrwt>
<pdfrwt beam="2">  1       -1 0.93031229E-02 0.13338435E+03</pdfrwt>
<totfact> 0.79131535E+03</totfact>
</mgrwt>
</event>
<event>
 7    1  0.5107591E-006  0.1339710E+03  0.7546771E-02  0.1236909E+00
          2   -1    0    0  501    0  0.00000000000E+00  0.00000000000E+00  0.20258266258E+03  0.20258266258E+03  0.00000000000E+00 0. -1.
         -2   -1    0    0    0  501 -0.00000000000E+00 -0.00000000000E+00 -0.83458261050E+02  0.83458261050E+02  0.00000000000E+00 0.  1.
         23    2    1    2    0    0 -0.24566617017E+02  0.41990800430E+02  0.11642611643E+03  0.15204273721E+03  0.84824568127E+02 0.  0.
          5    1    1    2  502    0 -0.23846273795E+02 -0.49648425313E+02  0.43267805257E+02  0.70198318226E+02  0.47000000000E+01 0.  1.
         -5    1    1    2    0  502  0.48412890812E+02  0.76576248830E+01 -0.40569520159E+02  0.63799868194E+02  0.47000000000E+01 0.  1.
        -11    1    3    3    0    0 -0.42839414194E+02  0.93749367091E+01  0.10363166669E+03  0.11252833949E+03  0.00000000000E+00 0.  1.
         11    1    3    3    0    0  0.18272797177E+02  0.32615863721E+02  0.12794449738E+02  0.39514397718E+02  0.00000000000E+00 0. -1.
<mgrwt>
<rscale>  0 0.12383017E+03</rscale>
<asrwt>0</asrwt>
<pdfrwt beam="1">  1        2 0.31166563E-01 0.13397102E+03</pdfrwt>
<pdfrwt beam="2">  1       -2 0.12839733E-01 0.13397102E+03</pdfrwt>
<totfact> 0.70599445E+03</totfact>
</mgrwt>
</event>
<event>
 7    1  0.5107591E-006  0.1746522E+03  0.7546771E-02  0.1177797E+00
         -2   -1    0    0    0  501 -0.00000000000E+00  0.00000000000E+00  0.37146882606E+03  0.37146882606E+03  0.00000000000E+00 0.  1.
          2   -1    0    0  501    0  0.00000000000E+00 -0.00000000000E+00 -0.74706141699E+02  0.74706141699E+02  0.00000000000E+00 0. -1.
         23    2    1    2    0    0 -0.74882298282E+02 -0.96239489484E+02  0.16212264613E+03  0.22564986381E+03  0.98816550814E+02 0.  0.
          5    1    1    2  502    0  0.35688737950E+02  0.95106775836E+01  0.11807543320E+03  0.12380644947E+03  0.47000000000E+01 0.  1.
         -5    1    1    2    0  502  0.39193560332E+02  0.86728811901E+02  0.16564605028E+02  0.96718654483E+02  0.47000000000E+01 0.  1.
        -11    1    3    3    0    0 -0.75053488747E+02 -0.66172268613E+02  0.16749492663E+03  0.19510598595E+03  0.00000000000E+00 0.  1.
         11    1    3    3    0    0  0.17119046528E+00 -0.30067220871E+02 -0.53722804931E+01  0.30543877861E+02  0.00000000000E+00 0. -1.
<mgrwt>
<rscale>  0 0.17004842E+03</rscale>
<asrwt>0</asrwt>
<pdfrwt beam="2">  1        2 0.11493253E-01 0.17465217E+03</pdfrwt>
<pdfrwt beam="1">  1       -2 0.57149050E-01 0.17465217E+03</pdfrwt>
<totfact> 0.15478787E+03</totfact>
</mgrwt>
</event>
<event>
 7    1  0.5107591E-006  0.2432177E+03  0.7546771E-02  0.1120472E+00
         -2   -1    0    0    0  501 -0.00000000000E+00  0.00000000000E+00  0.17106851269E+03  0.17106851269E+03  0.00000000000E+00 0. -1.
          2   -1    0    0  501    0  0.00000000000E+00 -0.00000000000E+00 -0.35612175402E+03  0.35612175402E+03  0.00000000000E+00 0.  1.
         23    2    1    2    0    0 -0.20845876499E+03 -0.86073851161E+01 -0.17024459999E+03  0.28352213551E+03  0.88726736213E+02 0.  0.
          5    1    1    2  502    0  0.20112240491E+03 -0.18896947234E+02  0.14447774445E+02  0.20257873668E+03  0.47000000000E+01 0.  1.
         -5    1    1    2    0  502  0.73363600854E+01  0.27504332350E+02 -0.29256415782E+02  0.41089394517E+02  0.47000000000E+01 0.  1.
        -11    1    3    3    0    0 -0.40357403491E+01 -0.21255685652E+02 -0.20503201723E+02  0.29807258405E+02  0.00000000000E+00 0.  1.
         11    1    3    3    0    0 -0.20442302464E+03  0.12648300536E+02 -0.14974139827E+03  0.25371487711E+03  0.00000000000E+00 0. -1.
<mgrwt>
<rscale>  0 0.23898381E+03</rscale>
<asrwt>0</asrwt>
<pdfrwt beam="2">  1        2 0.54787962E-01 0.24321773E+03</pdfrwt>
<pdfrwt beam="1">  1       -2 0.26318233E-01 0.24321773E+03</pdfrwt>
<totfact> 0.11748644E+03</totfact>
</mgrwt>
</event>
<event>
 7    1  0.5107591E-006  0.1368926E+03  0.7546771E-02  0.1229329E+00
         -3   -1    0    0    0  501 -0.00000000000E+00  0.00000000000E+00  0.11958528825E+03  0.11958528825E+03  0.00000000000E+00 0.  1.
          3   -1    0    0  501    0  0.00000000000E+00 -0.00000000000E+00 -0.12445650430E+03  0.12445650430E+03  0.00000000000E+00 0. -1.
         23    2    1    2    0    0 -0.14965332506E+02 -0.53773657558E+02 -0.25594684903E+01  0.10712967750E+03  0.91403771797E+02 0.  0.
          5    1    1    2  502    0  0.34241746496E+01 -0.20856519367E+02  0.43407886921E+02  0.48508288149E+02  0.47000000000E+01 0. -1.
         -5    1    1    2    0  502  0.11541157856E+02  0.74630176925E+02 -0.45719634488E+02  0.88403826899E+02  0.47000000000E+01 0. -1.
        -11    1    3    3    0    0  0.40149711622E+01  0.14560459272E+02 -0.27975118088E+02  0.31792046170E+02  0.00000000000E+00 0. -1.
         11    1    3    3    0    0 -0.18980303668E+02 -0.68334116830E+02  0.25415649598E+02  0.75337631333E+02  0.00000000000E+00 0.  1.
<mgrwt>
<rscale>  0 0.12874531E+03</rscale>
<asrwt>0</asrwt>
<pdfrwt beam="2">  1        3 0.19147154E-01 0.13689260E+03</pdfrwt>
<pdfrwt beam="1">  1       -3 0.18397737E-01 0.13689260E+03</pdfrwt>
<totfact> 0.14515173E+03</totfact>
</mgrwt>
</event>
<event>
 7    1  0.5107591E-006  0.1306677E+03  0.7546771E-02  0.1239748E+00
         -2   -1    0    0    0  501 -0.00000000000E+00  0.00000000000E+00  0.27622222001E+02  0.27622222001E+02  0.00000000000E+00 0.  1.
          2   -1    0    0  501    0  0.00000000000E+00 -0.00000000000E+00 -0.48020980789E+03  0.48020980789E+03  0.00000000000E+00 0. -1.
         23    2    1    2    0    0 -0.29426524909E+02 -0.24112040318E+02 -0.20631246848E+03  0.22903913764E+03  0.91906371184E+02 0.  0.
          5    1    1    2  502    0 -0.40235785584E+02 -0.65305644676E+01 -0.34164067808E+02  0.53393260277E+02  0.47000000000E+01 0. -1.
         -5    1    1    2    0  502  0.69662310492E+02  0.30642604786E+02 -0.21211104960E+03  0.22539963197E+03  0.47000000000E+01 0. -1.
        -11    1    3    3    0    0 -0.59367600281E+02 -0.33383956408E+02 -0.14312761684E+03  0.15850714561E+03  0.00000000000E+00 0.  1.
         11    1    3    3    0    0  0.29941075372E+02  0.92719160896E+01 -0.63184851640E+02  0.70531992026E+02  0.00000000000E+00 0. -1.
<mgrwt>
<rscale>  0 0.12205291E+03</rscale>
<asrwt>0</asrwt>
<pdfrwt beam="2">  1        2 0.73878425E-01 0.13066768E+03</pdfrwt>
<pdfrwt beam="1">  1       -2 0.42495730E-02 0.13066768E+03</pdfrwt>
<totfact> 0.15385095E+04</totfact>
</mgrwt>
</event>
<event>
 7    1  0.5107591E-006  0.2093749E+03  0.7546771E-02  0.1146227E+00
          1   -1    0    0  501    0  0.00000000000E+00  0.00000000000E+00  0.11753993380E+03  0.11753993380E+03  0.00000000000E+00 0. -1.
         -1   -1    0    0    0  501 -0.00000000000E+00 -0.00000000000E+00 -0.35099856553E+03  0.35099856553E+03  0.00000000000E+00 0.  1.
         23    2    1    2    0    0 -0.71623761126E+02  0.15192985019E+03 -0.66800761451E+02  0.20093303921E+03  0.87744526764E+02 0.  0.
          5    1    1    2  502    0  0.64904939488E+02 -0.62890632696E+02 -0.15262222182E+02  0.91776403703E+02  0.47000000000E+01 0.  1.
         -5    1    1    2    0  502  0.67188216386E+01 -0.89039217496E+02 -0.15139564810E+03  0.17582905641E+03  0.47000000000E+01 0.  1.
        -11    1    3    3    0    0 -0.77462498402E+02  0.61557974601E+02 -0.34988962840E+02  0.10494784617E+03  0.00000000000E+00 0.  1.
         11    1    3    3    0    0  0.58387372757E+01  0.90371875591E+02 -0.31811798611E+02  0.95985193034E+02  0.00000000000E+00 0. -1.
<mgrwt>
<rscale>  0 0.20421986E+03</rscale>
<asrwt>0</asrwt>
<pdfrwt beam="1">  1        1 0.18083067E-01 0.20937487E+03</pdfrwt>
<pdfrwt beam="2">  1       -1 0.53999779E-01 0.20937487E+03</pdfrwt>
<totfact> 0.10317145E+03</totfact>
</mgrwt>
</event>
<event>
 7    1  0.5107591E-006  0.1354767E+03  0.7546771E-02  0.1230513E+00
          2   -1    0    0  501    0  0.00000000000E+00  0.00000000000E+00  0.10174884464E+04  0.10174884464E+04  0.00000000000E+00 0. -1.
         -2   -1    0    0    0  501 -0.00000000000E+00 -0.00000000000E+00 -0.14592863071E+02  0.14592863071E+02  0.00000000000E+00 0.  1.
         23    2    1    2    0    0 -0.52125396594E+02 -0.34089134085E+01  0.47413491836E+03  0.48624087866E+03  0.94327056628E+02 0.  0.
          5    1    1    2  502    0  0.59030414053E+02 -0.13906560208E+02  0.10281602243E+03  0.11946215580E+03  0.47000000000E+01 0. -1.
         -5    1    1    2    0  502 -0.69050174592E+01  0.17315473616E+02  0.42594464255E+03  0.42637827502E+03  0.47000000000E+01 0. -1.
        -11    1    3    3    0    0 -0.13140485029E+01 -0.42489426395E+02  0.22576139471E+03  0.22972872136E+03  0.00000000000E+00 0. -1.
         11    1    3    3    0    0 -0.50811348091E+02  0.39080512987E+02  0.24837352366E+03  0.25651215730E+03  0.00000000000E+00 0.  1.
<mgrwt>
<rscale>  0 0.12796126E+03</rscale>
<asrwt>0</asrwt>
<pdfrwt beam="1">  1        2 0.15653663E+00 0.13547670E+03</pdfrwt>
<pdfrwt beam="2">  1       -2 0.22450567E-02 0.13547670E+03</pdfrwt>
<totfact> 0.15981083E+04</totfact>
</mgrwt>
</event>
<event>
 7    1  0.5107591E-006  0.1301231E+03  0.7546771E-02  0.1240518E+00
          2   -1    0    0  501    0  0.00000000000E+00  0.00000000000E+00  0.20991892228E+03  0.20991892228E+03  0.00000000000E+00 0. -1.
         -2   -1    0    0    0  501 -0.00000000000E+00 -0.00000000000E+00 -0.70024196090E+02  0.70024196090E+02  0.00000000000E+00 0.  1.
         23    2    1    2    0    0  0.27462893096E+02 -0.23504506779E+02  0.10667880702E+03  0.14564751649E+03  0.92337201916E+02 0.  0.
          5    1    1    2  502    0 -0.23853054306E+02 -0.41197037998E+02 -0.18464723544E+02  0.51275726763E+02  0.47000000000E+01 0. -1.
         -5    1    1    2    0  502 -0.36098387902E+01  0.64701544777E+02  0.51680642712E+02  0.83019875112E+02  0.47000000000E+01 0. -1.
        -11    1    3    3    0    0  0.19804582089E+02  0.29711016534E+02  0.75448899245E+02  0.83471566252E+02  0.00000000000E+00 0. -1.
         11    1    3    3    0    0  0.76583110070E+01 -0.53215523313E+02  0.31229907776E+02  0.62175950243E+02  0.00000000000E+00 0.  1.
<mgrwt>
<rscale>  0 0.12157675E+03</rscale>
<asrwt>0</asrwt>
<pdfrwt beam="1">  1        2 0.32295219E-01 0.13012306E+03</pdfrwt>
<pdfrwt beam="2">  1       -2 0.10772953E-01 0.13012306E+03</pdfrwt>
<totfact> 0.89666782E+03</totfact>
</mgrwt>
</event>
<event>
 7    1  0.5107591E-006  0.2257222E+03  0.7546771E-02  0.1132812E+00
          1   -1    0    0  501    0  0.00000000000E+00  0.00000000000E+00  0.35981791964E+03  0.35981791964E+03  0.00000000000E+00 0. -1.
         -1   -1    0    0    0  501 -0.00000000000E+00 -0.00000000000E+00 -0.13522389630E+03  0.13522389630E+03  0.00000000000E+00 0.  1.
         23    2    1    2    0    0 -0.15340353584E+03  0.10859810766E+03  0.66287453944E+02  0.21934004228E+03  0.91596035947E+02 0.  0.
          5    1    1    2  502    0  0.47884686955E+02 -0.67236201263E+02  0.21659388154E+01  0.82706899930E+02  0.47000000000E+01 0. -1.
         -5    1    1    2    0  502  0.10551884888E+03 -0.41361906396E+02  0.15614063058E+03  0.19299487374E+03  0.47000000000E+01 0. -1.
        -11    1    3    3    0    0 -0.14253122107E+03  0.11724026169E+03  0.38867149981E+02  0.18860297794E+03  0.00000000000E+00 0.  1.
         11    1    3    3    0    0 -0.10872314765E+02 -0.86421540269E+01  0.27420303963E+02  0.30737064336E+02  0.00000000000E+00 0. -1.
<mgrwt>
<rscale>  0 0.22144238E+03</rscale>
<asrwt>0</asrwt>
<pdfrwt beam="1">  1        1 0.55356602E-01 0.22572217E+03</pdfrwt>
<pdfrwt beam="2">  1       -1 0.20803677E-01 0.22572217E+03</pdfrwt>
<totfact> 0.13096445E+03</totfact>
</mgrwt>
</event>
<event>
 7    1  0.5107591E-006  0.1153824E+03  0.7546771E-02  0.1261439E+00
         -1   -1    0    0    0  501 -0.00000000000E+00  0.00000000000E+00  0.28928127579E+03  0.28928127579E+03  0.00000000000E+00 0.  1.
          1   -1    0    0  501    0  0.00000000000E+00 -0.00000000000E+00 -0.76769264763E+02  0.76769264763E+02  0.00000000000E+00 0. -1.
         23    2    1    2    0    0  0.18905635130E+02  0.13261917715E+02 -0.29254237609E+02  0.98162492228E+02  0.90811689563E+02 0.  0.
          5    1    1    2  502    0 -0.61477128104E+02  0.57502036825E+01  0.18002588478E+03  0.19037833730E+03  0.47000000000E+01 0. -1.
         -5    1    1    2    0  502  0.42571492974E+02 -0.19012121398E+02  0.61740363858E+02  0.77509711027E+02  0.47000000000E+01 0.  1.
        -11    1    3    3    0    0 -0.28053274578E+02 -0.18134175332E+02  0.22566895203E+01  0.33480250553E+02  0.00000000000E+00 0. -1.
         11    1    3    3    0    0  0.46958909708E+02  0.31396093047E+02 -0.31510927129E+02  0.64682241675E+02  0.00000000000E+00 0.  1.
<mgrwt>
<rscale>  0 0.10953219E+03</rscale>
<asrwt>0</asrwt>
<pdfrwt beam="2">  1        1 0.11810656E-01 0.11538235E+03</pdfrwt>
<pdfrwt beam="1">  1       -1 0.44504811E-01 0.11538235E+03</pdfrwt>
<totfact> 0.25061011E+03</totfact>
</mgrwt>
</event>
<event>
 7    1  0.5107591E-006  0.1251958E+03  0.7546771E-02  0.1248708E+00
          1   -1    0    0  501    0  0.00000000000E+00  0.00000000000E+00  0.69535091143E+03  0.69535091143E+03  0.00000000000E+00 0. -1.
         -1   -1    0    0    0  501 -0.00000000000E+00 -0.00000000000E+00 -0.18364495664E+02  0.18364495664E+02  0.00000000000E+00 0.  1.
         23    2    1    2    0    0  0.19668379829E+01  0.66616966576E+01  0.37731556441E+03  0.38894377669E+03  0.94138088075E+02 0.  0.
          5    1    1    2  502    0 -0.63048099829E+02 -0.28963296277E+01  0.16702484684E+03  0.17861366431E+03  0.47000000000E+01 0.  1.
         -5    1    1    2    0  502  0.61081261846E+02 -0.37653670299E+01  0.13264600452E+03  0.14615796609E+03  0.47000000000E+01 0.  1.
        -11    1    3    3    0    0 -0.28913131892E+02 -0.29778187997E+02  0.23989074235E+03  0.24345487866E+03  0.00000000000E+00 0.  1.
         11    1    3    3    0    0  0.30879969875E+02  0.36439884655E+02  0.13742482206E+03  0.14548889803E+03  0.00000000000E+00 0. -1.
<mgrwt>
<rscale>  0 0.11666174E+03</rscale>
<asrwt>0</asrwt>
<pdfrwt beam="1">  1        1 0.10697704E+00 0.12519582E+03</pdfrwt>
<pdfrwt beam="2">  1       -1 0.28253076E-02 0.12519582E+03</pdfrwt>
<totfact> 0.11155852E+04</totfact>
</mgrwt>
</event>
<event>
 7    1  0.5107591E-006  0.1829065E+03  0.7546771E-02  0.1168103E+00
         -2   -1    0    0    0  501 -0.00000000000E+00  0.00000000000E+00  0.10381151970E+03  0.10381151970E+03  0.00000000000E+00 0.  1.
          2   -1    0    0  501    0  0.00000000000E+00 -0.00000000000E+00 -0.37157515354E+03  0.37157515354E+03  0.00000000000E+00 0. -1.
         23    2    1    2    0    0  0.13831398328E+03  0.42497344112E+02 -0.23389441585E+03  0.28937073473E+03  0.89955778712E+02 0.  0.
          5    1    1    2  502    0  0.23283517789E+01  0.15511081776E+02 -0.29506542976E+02  0.33745236083E+02  0.47000000000E+01 0. -1.
         -5    1    1    2    0  502 -0.14064233506E+03 -0.58008425888E+02 -0.43626750094E+01  0.15227070243E+03  0.47000000000E+01 0.  1.
        -11    1    3    3    0    0  0.40062859935E+02 -0.26546874767E+02 -0.89319180239E+02  0.10142822716E+03  0.00000000000E+00 0.  1.
         11    1    3    3    0    0  0.98251123350E+02  0.69044218879E+02 -0.14457523562E+03  0.18794250757E+03  0.00000000000E+00 0. -1.
<mgrwt>
<rscale>  0 0.17969071E+03</rscale>
<asrwt>0</asrwt>
<pdfrwt beam="2">  1        2 0.57165408E-01 0.18290655E+03</pdfrwt>
<pdfrwt beam="1">  1       -2 0.15971003E-01 0.18290655E+03</pdfrwt>
<totfact> 0.26258975E+03</totfact>
</mgrwt>
</event>
<event>
 7    1  0.5107591E-006  0.2649221E+03  0.7546771E-02  0.1106370E+00
          2   -1    0    0  501    0  0.00000000000E+00  0.00000000000E+00  0.53313258152E+03  0.53313258152E+03  0.00000000000E+00 0. -1.
         -2   -1    0    0    0  501 -0.00000000000E+00 -0.00000000000E+00 -0.13806297427E+03  0.13806297427E+03  0.00000000000E+00 0.  1.
         23    2    1    2    0    0 -0.30225383942E+01  0.23357502909E+03  0.29710703226E+03  0.38874132824E+03  0.90998910493E+02 0.  0.
          5    1    1    2  502    0 -0.60578196356E+02 -0.11501843027E+03  0.42386521445E+02  0.13681251542E+03  0.47000000000E+01 0.  1.
         -5    1    1    2    0  502  0.63600734750E+02 -0.11855659881E+03  0.55576053545E+02  0.14564171212E+03  0.47000000000E+01 0.  1.
        -11    1    3    3    0    0  0.26497501249E+02  0.20835470127E+03  0.23211934480E+03  0.31303863874E+03  0.00000000000E+00 0. -1.
         11    1    3    3    0    0 -0.29520039644E+02  0.25220327815E+02  0.64987687463E+02  0.75702689499E+02  0.00000000000E+00 0.  1.
<mgrwt>
<rscale>  0 0.26129098E+03</rscale>
<asrwt>0</asrwt>
<pdfrwt beam="1">  1        2 0.82020396E-01 0.26492211E+03</pdfrwt>
<pdfrwt beam="2">  1       -2 0.21240458E-01 0.26492211E+03</pdfrwt>
<totfact> 0.10971057E+03</totfact>
</mgrwt>
</event>
<event>
 7    1  0.5107591E-006  0.1291597E+03  0.7546771E-02  0.1245772E+00
         -2   -1    0    0    0  501 -0.00000000000E+00  0.00000000000E+00  0.31695998664E+02  0.31695998664E+02  0.00000000000E+00 0.  1.
          2   -1    0    0  501    0  0.00000000000E+00 -0.00000000000E+00 -0.50013025787E+03  0.50013025787E+03  0.00000000000E+00 0. -1.
         23    2    1    2    0    0  0.28599227755E+02  0.15487746840E+02 -0.33055274481E+03  0.34289891951E+03  0.85186652524E+02 0.  0.
          5    1    1    2  502    0 -0.16457884833E+02 -0.60609851972E+02 -0.27025202812E+02  0.68533697669E+02  0.47000000000E+01 0.  1.
         -5    1    1    2    0  502 -0.12141342923E+02  0.45122105132E+02 -0.11085631158E+03  0.12039363935E+03  0.47000000000E+01 0.  1.
        -11    1    3    3    0    0 -0.19123186171E+01  0.41183427920E+02 -0.24573096160E+03  0.24916548153E+03  0.00000000000E+00 0. -1.
         11    1    3    3    0    0  0.30511546372E+02 -0.25695681079E+02 -0.84821783214E+02  0.93733437981E+02  0.00000000000E+00 0.  1.
<mgrwt>
<rscale>  0 0.11839275E+03</rscale>
<asrwt>0</asrwt>
<pdfrwt beam="2">  1        2 0.76943114E-01 0.12915969E+03</pdfrwt>
<pdfrwt beam="1">  1       -2 0.48763076E-02 0.12915969E+03</pdfrwt>
<totfact> 0.11972980E+04</totfact>
</mgrwt>
</event>
<event>
 7    1  0.5107591E-006  0.1306230E+03  0.7546771E-02  0.1240995E+00
         -1   -1    0    0    0  501 -0.00000000000E+00  0.00000000000E+00  0.93504741592E+02  0.93504741592E+02  0.00000000000E+00 0.  1.
          1   -1    0    0  501    0  0.00000000000E+00 -0.00000000000E+00 -0.18421597571E+03  0.18421597571E+03  0.00000000000E+00 0. -1.
         23    2    1    2    0    0 -0.36911623660E+02  0.86597006202E+01 -0.10883883850E+03  0.14584586409E+03  0.89373737360E+02 0.  0.
          5    1    1    2  502    0  0.74626513165E+01  0.16798714307E+02 -0.49883717107E+02  0.53370059017E+02  0.47000000000E+01 0.  1.
         -5    1    1    2    0  502  0.29448972344E+02 -0.25458414927E+02  0.68011321484E+02  0.78504794202E+02  0.47000000000E+01 0.  1.
        -11    1    3    3    0    0  0.34715650589E+01  0.33283476096E+02 -0.79133366866E+01  0.34386951632E+02  0.00000000000E+00 0.  1.
         11    1    3    3    0    0 -0.40383188719E+02 -0.24623775476E+02 -0.10092550181E+03  0.11145891246E+03  0.00000000000E+00 0. -1.
<mgrwt>
<rscale>  0 0.12128319E+03</rscale>
<asrwt>0</asrwt>
<pdfrwt beam="2">  1        1 0.28340919E-01 0.13062300E+03</pdfrwt>
<pdfrwt beam="1">  1       -1 0.14385345E-01 0.13062300E+03</pdfrwt>
<totfact> 0.53310533E+03</totfact>
</mgrwt>
</event>
<event>
 7    1  0.5107591E-006  0.1762920E+03  0.7546771E-02  0.1177092E+00
          1   -1    0    0  501    0  0.00000000000E+00  0.00000000000E+00  0.11580598604E+04  0.11580598604E+04  0.00000000000E+00 0. -1.
         -1   -1    0    0    0  501 -0.00000000000E+00 -0.00000000000E+00 -0.24377547499E+02  0.24377547499E+02  0.00000000000E+00 0.  1.
         23    2    1    2    0    0  0.98102320244E+02 -0.76352549718E+02  0.43335717424E+03  0.46026419003E+03  0.92687146242E+02 0.  0.
          5    1    1    2  502    0 -0.17800238520E+02  0.88288542726E+02  0.28385376455E+03  0.29783680921E+03  0.47000000000E+01 0.  1.
         -5    1    1    2    0  502 -0.80302081724E+02 -0.11935993008E+02  0.41647137410E+03  0.42433640865E+03  0.47000000000E+01 0.  1.
        -11    1    3    3    0    0  0.44039658076E+02  0.10539173419E+02  0.75279591256E+02  0.87849772449E+02  0.00000000000E+00 0.  1.
         11    1    3    3    0    0  0.54062662168E+02 -0.86891723137E+02  0.35807758298E+03  0.37241441758E+03  0.00000000000E+00 0. -1.
<mgrwt>
<rscale>  0 0.17072683E+03</rscale>
<asrwt>0</asrwt>
<pdfrwt beam="1">  1        1 0.17816301E+00 0.17629196E+03</pdfrwt>
<pdfrwt beam="2">  1       -1 0.37503928E-02 0.17629196E+03</pdfrwt>
<totfact> 0.32920721E+03</totfact>
</mgrwt>
</event>
<event>
 7    1  0.5107591E-006  0.1412527E+03  0.7546771E-02  0.1222648E+00
         -2   -1    0    0    0  501 -0.00000000000E+00  0.00000000000E+00  0.10714434470E+03  0.10714434470E+03  0.00000000000E+00 0.  1.
          2   -1    0    0  501    0  0.00000000000E+00 -0.00000000000E+00 -0.15122465374E+03  0.15122465374E+03  0.00000000000E+00 0. -1.
         23    2    1    2    0    0  0.57091097274E+02  0.32657419254E+02 -0.32571861414E+02  0.11664824884E+03  0.90664146063E+02 0.  0.
          5    1    1    2  502    0 -0.46337403222E+02 -0.74234629003E+02  0.17918617506E+02  0.89448878885E+02  0.47000000000E+01 0.  1.
         -5    1    1    2    0  502 -0.10753694052E+02  0.41577209749E+02 -0.29427065125E+02  0.52271870715E+02  0.47000000000E+01 0.  1.
        -11    1    3    3    0    0  0.61462107887E+01  0.53725207022E+02 -0.29103544330E+02  0.61410016033E+02  0.00000000000E+00 0.  1.
         11    1    3    3    0    0  0.50944886485E+02 -0.21067787767E+02 -0.34683170841E+01  0.55238232808E+02  0.00000000000E+00 0. -1.
<mgrwt>
<rscale>  0 0.13329389E+03</rscale>
<asrwt>0</asrwt>
<pdfrwt beam="2">  1        2 0.23265331E-01 0.14125270E+03</pdfrwt>
<pdfrwt beam="1">  1       -2 0.16483745E-01 0.14125270E+03</pdfrwt>
<totfact> 0.64960144E+03</totfact>
</mgrwt>
</event>
<event>
 7    1  0.5107591E-006  0.2083523E+03  0.7546771E-02  0.1144193E+00
         -2   -1    0    0    0  501 -0.00000000000E+00  0.00000000000E+00  0.14386091486E+03  0.14386091486E+03  0.00000000000E+00 0.  1.
          2   -1    0    0  501    0  0.00000000000E+00 -0.00000000000E+00 -0.33100425146E+03  0.33100425146E+03  0.00000000000E+00 0. -1.
         23    2    1    2    0    0 -0.10977390144E+03  0.12544004012E+03 -0.17327918037E+03  0.26605207507E+03  0.11389696748E+03 0.  0.
          5    1    1    2  502    0  0.59880301830E+02 -0.12371430125E+03  0.31620786783E+02  0.14111287339E+03  0.47000000000E+01 0. -1.
         -5    1    1    2    0  502  0.49893599605E+02 -0.17257388750E+01 -0.45484943010E+02  0.67700217850E+02  0.47000000000E+01 0. -1.
        -11    1    3    3    0    0  0.17255315248E+02  0.50992488785E+02 -0.36125240131E+02  0.64830647007E+02  0.00000000000E+00 0.  1.
         11    1    3    3    0    0 -0.12702921668E+03  0.74447551338E+02 -0.13715394024E+03  0.20122142807E+03  0.00000000000E+00 0. -1.
<mgrwt>
<rscale>  0 0.20671663E+03</rscale>
<asrwt>0</asrwt>
<pdfrwt beam="2">  1        2 0.50923731E-01 0.20835233E+03</pdfrwt>
<pdfrwt beam="1">  1       -2 0.22132449E-01 0.20835233E+03</pdfrwt>
<totfact> 0.17182789E+03</totfact>
</mgrwt>
</event>
<event>
 7    1  0.5107591E-006  0.1255089E+03  0.7546771E-02  0.1249953E+00
          1   -1    0    0  501    0  0.00000000000E+00  0.00000000000E+00  0.25254239841E+03  0.25254239841E+03  0.00000000000E+00 0. -1.
         -1   -1    0    0    0  501 -0.00000000000E+00 -0.00000000000E+00 -0.66794799999E+02  0.66794799999E+02  0.00000000000E+00 0.  1.
         23    2    1    2    0    0 -0.11017037264E+02 -0.25110575001E+01  0.16978557048E+03  0.19281734494E+03  0.90684662681E+02 0.  0.
          5    1    1    2  502    0  0.23082094177E+02  0.47247270347E+02  0.46892398413E+02  0.70612142410E+02  0.47000000000E+01 0.  1.
         -5    1    1    2    0  502 -0.12065056914E+02 -0.44736212847E+02 -0.30930370481E+02  0.55907711063E+02  0.47000000000E+01 0.  1.
        -11    1    3    3    0    0 -0.41752524980E+02 -0.26498726848E+02  0.11842216474E+03  0.12833263407E+03  0.00000000000E+00 0. -1.
         11    1    3    3    0    0  0.30735487717E+02  0.23987669347E+02  0.51363405745E+02  0.64484710867E+02  0.00000000000E+00 0.  1.
<mgrwt>
<rscale>  0 0.11593799E+03</rscale>
<asrwt>0</asrwt>
<pdfrwt beam="1">  1        1 0.38852676E-01 0.12550891E+03</pdfrwt>
<pdfrwt beam="2">  1       -1 0.10276123E-01 0.12550891E+03</pdfrwt>
<totfact> 0.60442116E+03</totfact>
</mgrwt>
</event>
<event>
 7    1  0.5107591E-006  0.1531823E+03  0.7546771E-02  0.1205004E+00
          1   -1    0    0  501    0  0.00000000000E+00  0.00000000000E+00  0.14395196993E+03  0.14395196993E+03  0.00000000000E+00 0. -1.
         -1   -1    0    0    0  501 -0.00000000000E+00 -0.00000000000E+00 -0.25786147057E+03  0.25786147057E+03  0.00000000000E+00 0.  1.
         23    2    1    2    0    0  0.56099728633E+02  0.68488989302E+02  0.83024918299E+02  0.15231796579E+03  0.92030997146E+02 0.  0.
          5    1    1    2  502    0 -0.79368930827E+02 -0.77990772666E+02 -0.19408102342E+03  0.22376666743E+03  0.47000000000E+01 0. -1.
         -5    1    1    2    0  502  0.23269202194E+02  0.95017833641E+01 -0.28533955108E+01  0.25728807275E+02  0.47000000000E+01 0. -1.
        -11    1    3    3    0    0 -0.13310542433E+02  0.46925993733E+02  0.57224163717E+02  0.75191916725E+02  0.00000000000E+00 0. -1.
         11    1    3    3    0    0  0.69410271066E+02  0.21562995569E+02  0.25800754582E+02  0.77126049065E+02  0.00000000000E+00 0.  1.
<mgrwt>
<rscale>  0 0.14637110E+03</rscale>
<asrwt>0</asrwt>
<pdfrwt beam="1">  1        1 0.22146457E-01 0.15318233E+03</pdfrwt>
<pdfrwt beam="2">  1       -1 0.39670995E-01 0.15318233E+03</pdfrwt>
<totfact> 0.13820036E+03</totfact>
</mgrwt>
</event>
<event>
 7    1  0.5107591E-006  0.1361529E+03  0.7546771E-02  0.1230761E+00
          1   -1    0    0  501    0  0.00000000000E+00  0.00000000000E+00  0.32293804372E+03  0.32293804372E+03  0.00000000000E+00 0. -1.
         -1   -1    0    0    0  501 -0.00000000000E+00 -0.00000000000E+00 -0.46103390175E+02  0.46103390175E+02  0.00000000000E+00 0.  1.
         23    2    1    2    0    0  0.49482263725E+02 -0.21417451874E+02  0.14582469843E+03  0.18009374118E+03  0.90893956200E+02 0.  0.
          5    1    1    2  502    0  0.10434798406E+02 -0.18523889697E+02 -0.14752033042E+02  0.26300798203E+02  0.47000000000E+01 0.  1.
         -5    1    1    2    0  502 -0.59917062131E+02  0.39941341571E+02  0.14576198816E+03  0.16264689451E+03  0.47000000000E+01 0.  1.
        -11    1    3    3    0    0  0.72068791229E+02  0.15106757299E+01  0.11366511657E+03  0.13459551083E+03  0.00000000000E+00 0. -1.
         11    1    3    3    0    0 -0.22586527504E+02 -0.22928127604E+02  0.32159581858E+02  0.45498230355E+02  0.00000000000E+00 0.  1.
<mgrwt>
<rscale>  0 0.12779728E+03</rscale>
<asrwt>0</asrwt>
<pdfrwt beam="1">  1        1 0.49682775E-01 0.13615294E+03</pdfrwt>
<pdfrwt beam="2">  1       -1 0.70928294E-02 0.13615294E+03</pdfrwt>
<totfact> 0.78571401E+03</totfact>
</mgrwt>
</event>
<event>
 7    1  0.5107591E-006  0.1411723E+03  0.7546771E-02  0.1222192E+00
         -1   -1    0    0    0  501 -0.00000000000E+00  0.00000000000E+00  0.50882584797E+02  0.50882584797E+02  0.00000000000E+00 0.  1.
          1   -1    0    0  501    0  0.00000000000E+00 -0.00000000000E+00 -0.31819482479E+03  0.31819482479E+03  0.00000000000E+00 0. -1.
         23    2    1    2    0    0 -0.82711090156E+01  0.65086520500E+02 -0.11587197206E+03  0.16204170451E+03  0.92339231616E+02 0.  0.
          5    1    1    2  502    0 -0.41831504951E+02 -0.31068969445E+02 -0.13398223843E+03  0.14383492581E+03  0.47000000000E+01 0.  1.
         -5    1    1    2    0  502  0.50102613967E+02 -0.34017551054E+02 -0.17458029503E+02  0.63200779269E+02  0.47000000000E+01 0.  1.
        -11    1    3    3    0    0 -0.22647521975E+02  0.68321277897E+02 -0.12533271595E+03  0.14453026311E+03  0.00000000000E+00 0. -1.
         11    1    3    3    0    0  0.14376412959E+02 -0.32347573975E+01  0.94607438922E+01  0.17511441402E+02  0.00000000000E+00 0.  1.
<mgrwt>
<rscale>  0 0.13361204E+03</rscale>
<asrwt>0</asrwt>
<pdfrwt beam="2">  1        1 0.48953050E-01 0.14117234E+03</pdfrwt>
<pdfrwt beam="1">  1       -1 0.78280899E-02 0.14117234E+03</pdfrwt>
<totfact> 0.69156571E+03</totfact>
</mgrwt>
</event>
<event>
 7    1  0.5107591E-006  0.1346905E+03  0.7546771E-02  0.1231736E+00
          3   -1    0    0  501    0  0.00000000000E+00  0.00000000000E+00  0.14101455874E+03  0.14101455874E+03  0.00000000000E+00 0. -1.
         -3   -1    0    0    0  501 -0.00000000000E+00 -0.00000000000E+00 -0.10373819446E+03  0.10373819446E+03  0.00000000000E+00 0.  1.
         23    2    1    2    0    0  0.44347371069E+02 -0.23468099211E+02  0.21638648132E+02  0.10915749647E+03  0.94497020807E+02 0.  0.
          5    1    1    2  502    0 -0.69024189588E+02  0.20817164014E+02  0.53626152751E+02  0.89975259515E+02  0.47000000000E+01 0.  1.
         -5    1    1    2    0  502  0.24676818519E+02  0.26509351961E+01 -0.37988436611E+02  0.45619997214E+02  0.47000000000E+01 0.  1.
        -11    1    3    3    0    0  0.66022788984E+02 -0.15825154836E+01 -0.78602973683E+01  0.66507873934E+02  0.00000000000E+00 0.  1.
         11    1    3    3    0    0 -0.21675417915E+02 -0.21885583727E+02  0.29498945501E+02  0.42649622536E+02  0.00000000000E+00 0. -1.
<mgrwt>
<rscale>  0 0.12715687E+03</rscale>
<asrwt>0</asrwt>
<pdfrwt beam="1">  1        3 0.21694547E-01 0.13469052E+03</pdfrwt>
<pdfrwt beam="2">  1       -3 0.15959722E-01 0.13469052E+03</pdfrwt>
<totfact> 0.14856285E+03</totfact>
</mgrwt>
</event>
<event>
 7    1  0.5107591E-006  0.1355467E+03  0.7546771E-02  0.1231656E+00
          1   -1    0    0  501    0  0.00000000000E+00  0.00000000000E+00  0.62788276997E+02  0.62788276997E+02  0.00000000000E+00 0.  1.
         -1   -1    0    0    0  501 -0.00000000000E+00 -0.00000000000E+00 -0.39883064409E+03  0.39883064409E+03  0.00000000000E+00 0. -1.
         23    2    1    2    0    0 -0.52004233107E+01  0.52166928159E+02 -0.65735657912E+01  0.10535694601E+03  0.91150652818E+02 0.  0.
          5    1    1    2  502    0 -0.46162143963E+02  0.14148188978E+02 -0.86431740438E+02  0.99114330658E+02  0.47000000000E+01 0. -1.
         -5    1    1    2    0  502  0.51362567274E+02 -0.66315117137E+02 -0.24303706086E+03  0.25714764442E+03  0.47000000000E+01 0. -1.
        -11    1    3    3    0    0 -0.20374724874E+02 -0.62791056254E+01 -0.33125257166E+02  0.39393390860E+02  0.00000000000E+00 0. -1.
         11    1    3    3    0    0  0.15174301563E+02  0.58446033784E+02  0.26551691375E+02  0.65963555149E+02  0.00000000000E+00 0.  1.
<mgrwt>
<rscale>  0 0.12720984E+03</rscale>
<asrwt>0</asrwt>
<pdfrwt beam="1">  1        1 0.96597347E-02 0.13554669E+03</pdfrwt>
<pdfrwt beam="2">  1       -1 0.61358562E-01 0.13554669E+03</pdfrwt>
<totfact> 0.18224392E+03</totfact>
</mgrwt>
</event>
<event>
 7    1  0.5107591E-006  0.1331553E+03  0.7546771E-02  0.1239075E+00
         -2   -1    0    0    0  501 -0.00000000000E+00  0.00000000000E+00  0.22603072169E+02  0.22603072169E+02  0.00000000000E+00 0.  1.
          2   -1    0    0  501    0  0.00000000000E+00 -0.00000000000E+00 -0.65647577036E+03  0.65647577036E+03  0.00000000000E+00 0. -1.
         23    2    1    2    0    0  0.32183619938E+02  0.32672806007E+02 -0.38728418485E+03  0.39883568869E+03  0.83531844754E+02 0.  0.
          5    1    1    2  502    0  0.20359233078E+02 -0.28358280415E+02 -0.21652644214E+03  0.21937292582E+03  0.47000000000E+01 0. -1.
         -5    1    1    2    0  502 -0.52542853015E+02 -0.43145255920E+01 -0.30062071200E+02  0.60870228017E+02  0.47000000000E+01 0. -1.
        -11    1    3    3    0    0 -0.17794853148E+02  0.37546597700E+02 -0.12314840478E+03  0.12996897091E+03  0.00000000000E+00 0.  1.
         11    1    3    3    0    0  0.49978473086E+02 -0.48737916936E+01 -0.26413578007E+03  0.26886671778E+03  0.00000000000E+00 0. -1.
<mgrwt>
<rscale>  0 0.12247141E+03</rscale>
<asrwt>0</asrwt>
<pdfrwt beam="2">  1        2 0.10099627E+00 0.13315529E+03</pdfrwt>
<pdfrwt beam="1">  1       -2 0.34773957E-02 0.13315529E+03</pdfrwt>
<totfact> 0.14603752E+04</totfact>
</mgrwt>
</event>
<event>
 7    1  0.5107591E-006  0.1347184E+03  0.7546771E-02  0.1230870E+00
         -1   -1    0    0    0  501 -0.00000000000E+00  0.00000000000E+00  0.19673172065E+03  0.19673172065E+03  0.00000000000E+00 0.  1.
          1   -1    0    0  501    0  0.00000000000E+00 -0.00000000000E+00 -0.76429978500E+02  0.76429978500E+02  0.00000000000E+00 0. -1.
         23    2    1    2    0    0 -0.33282608111E+02  0.37645382484E+02  0.37999581874E+02  0.11529243319E+03  0.96558117753E+02 0.  0.
          5    1    1    2  502    0  0.50160840725E+02  0.26456840771E+02  0.68347456824E+01  0.57313856216E+02  0.47000000000E+01 0. -1.
         -5    1    1    2    0  502 -0.16878232614E+02 -0.64102223255E+02  0.75467414588E+02  0.10055540974E+03  0.47000000000E+01 0. -1.
        -11    1    3    3    0    0 -0.87814893844E+01  0.54860166552E+02 -0.12160884578E+02  0.56873891582E+02  0.00000000000E+00 0. -1.
         11    1    3    3    0    0 -0.24501118727E+02 -0.17214784068E+02  0.50160466452E+02  0.58418541612E+02  0.00000000000E+00 0.  1.
<mgrwt>
<rscale>  0 0.12772551E+03</rscale>
<asrwt>0</asrwt>
<pdfrwt beam="2">  1        1 0.11758458E-01 0.13471845E+03</pdfrwt>
<pdfrwt beam="1">  1       -1 0.30266418E-01 0.13471845E+03</pdfrwt>
<totfact> 0.49492051E+03</totfact>
</mgrwt>
</event>
<event>
 7    1  0.5107591E-006  0.1644454E+03  0.7546771E-02  0.1195817E+00
          2   -1    0    0  501    0  0.00000000000E+00  0.00000000000E+00  0.55159055824E+02  0.55159055824E+02  0.00000000000E+00 0. -1.
         -2   -1    0    0    0  501 -0.00000000000E+00 -0.00000000000E+00 -0.82793338896E+03  0.82793338896E+03  0.00000000000E+00 0.  1.
         23    2    1    2    0    0  0.34911258963E+02 -0.79934888356E+02 -0.40150229373E+02  0.13223935978E+03  0.90922081906E+02 0.  0.
          5    1    1    2  502    0 -0.53722338449E+02  0.63637889596E+02 -0.18840238457E+03  0.20604227516E+03  0.47000000000E+01 0. -1.
         -5    1    1    2    0  502  0.18811079487E+02  0.16296998760E+02 -0.54422171919E+03  0.54481080984E+03  0.47000000000E+01 0.  1.
        -11    1    3    3    0    0  0.19348141805E+02 -0.64162994366E+02  0.18516524900E+02  0.69527707655E+02  0.00000000000E+00 0. -1.
         11    1    3    3    0    0  0.15563117158E+02 -0.15771893990E+02 -0.58666754273E+02  0.62711652128E+02  0.00000000000E+00 0.  1.
<mgrwt>
<rscale>  0 0.15385306E+03</rscale>
<asrwt>0</asrwt>
<pdfrwt beam="1">  1        2 0.84860091E-02 0.16444536E+03</pdfrwt>
<pdfrwt beam="2">  1       -2 0.12737436E+00 0.16444536E+03</pdfrwt>
<totfact> 0.37528891E+02</totfact>
</mgrwt>
</event>
<event>
 7    1  0.5107591E-006  0.1422472E+03  0.7546771E-02  0.1221084E+00
          1   -1    0    0  501    0  0.00000000000E+00  0.00000000000E+00  0.40018200306E+02  0.40018200306E+02  0.00000000000E+00 0. -1.
         -1   -1    0    0    0  501 -0.00000000000E+00 -0.00000000000E+00 -0.41630132277E+03  0.41630132277E+03  0.00000000000E+00 0.  1.
         23    2    1    2    0    0 -0.35527867775E+02  0.57843078717E+02 -0.13535355336E+03  0.17653152046E+03  0.90745480139E+02 0.  0.
          5    1    1    2  502    0 -0.15707397586E+02  0.12154656160E+02  0.32032482710E+01  0.20659351509E+02  0.47000000000E+01 0.  1.
         -5    1    1    2    0  502  0.51235265360E+02 -0.69997734877E+02 -0.24413281737E+03  0.25912865111E+03  0.47000000000E+01 0.  1.
        -11    1    3    3    0    0  0.58196839292E+01  0.68188044080E+02 -0.99892652867E+02  0.12108682907E+03  0.00000000000E+00 0.  1.
         11    1    3    3    0    0 -0.41347551704E+02 -0.10344965363E+02 -0.35460900493E+02  0.55444691397E+02  0.00000000000E+00 0. -1.
<mgrwt>
<rscale>  0 0.13438948E+03</rscale>
<asrwt>0</asrwt>
<pdfrwt beam="1">  1        1 0.61566462E-02 0.14224721E+03</pdfrwt>
<pdfrwt beam="2">  1       -1 0.64046357E-01 0.14224721E+03</pdfrwt>
<totfact> 0.30815606E+03</totfact>
</mgrwt>
</event>
<event>
 7    1  0.5107591E-006  0.1302533E+03  0.7546771E-02  0.1239895E+00
          1   -1    0    0  501    0  0.00000000000E+00  0.00000000000E+00  0.22403759447E+02  0.22403759447E+02  0.00000000000E+00 0. -1.
         -1   -1    0    0    0  501 -0.00000000000E+00 -0.00000000000E+00 -0.60840495338E+03  0.60840495338E+03  0.00000000000E+00 0.  1.
         23    2    1    2    0    0  0.30619160243E+02  0.20092338152E+02 -0.20470898873E+03  0.22788233957E+03  0.93184524435E+02 0.  0.
          5    1    1    2  502    0  0.31146790572E+02  0.86378694696E+01 -0.27775238760E+02  0.42875275394E+02  0.47000000000E+01 0. -1.
         -5    1    1    2    0  502 -0.61765950815E+02 -0.28730207621E+02 -0.35351696644E+03  0.36005109787E+03  0.47000000000E+01 0. -1.
        -11    1    3    3    0    0 -0.20991053717E+02 -0.10002367683E+02 -0.13077878692E+03  0.13282982648E+03  0.00000000000E+00 0.  1.
         11    1    3    3    0    0  0.51610213960E+02  0.30094705835E+02 -0.73930201813E+02  0.95052513088E+02  0.00000000000E+00 0. -1.
<mgrwt>
<rscale>  0 0.12196208E+03</rscale>
<asrwt>0</asrwt>
<pdfrwt beam="1">  1        1 0.34467319E-02 0.13025328E+03</pdfrwt>
<pdfrwt beam="2">  1       -1 0.93600771E-01 0.13025328E+03</pdfrwt>
<totfact> 0.31402432E+03</totfact>
</mgrwt>
</event>
<event>
 7    1  0.5107591E-006  0.1426018E+03  0.7546771E-02  0.1220514E+00
          3   -1    0    0  501    0  0.00000000000E+00  0.00000000000E+00  0.79667986487E+02  0.79667986487E+02  0.00000000000E+00 0. -1.
         -3   -1    0    0    0  501 -0.00000000000E+00 -0.00000000000E+00 -0.21673521872E+03  0.21673521872E+03  0.00000000000E+00 0.  1.
         23    2    1    2    0    0  0.42582514687E+02  0.53822122765E+02 -0.28976583758E+02  0.11746503782E+03  0.90820158824E+02 0.  0.
          5    1    1    2  502    0 -0.81987893300E+02 -0.57132272220E+02 -0.60612575650E+02  0.11697044714E+03  0.47000000000E+01 0.  1.
         -5    1    1    2    0  502  0.39405378613E+02  0.33101494550E+01 -0.47478072825E+02  0.61967720244E+02  0.47000000000E+01 0.  1.
        -11    1    3    3    0    0  0.18650413436E+02  0.61279356931E+02 -0.52703331831E+02  0.82949615390E+02  0.00000000000E+00 0.  1.
         11    1    3    3    0    0  0.23932101251E+02 -0.74572341667E+01  0.23726748073E+02  0.34515422435E+02  0.00000000000E+00 0. -1.
<mgrwt>
<rscale>  0 0.13479156E+03</rscale>
<asrwt>0</asrwt>
<pdfrwt beam="1">  1        3 0.12256613E-01 0.14260182E+03</pdfrwt>
<pdfrwt beam="2">  1       -3 0.33343880E-01 0.14260182E+03</pdfrwt>
<totfact> 0.10717749E+03</totfact>
</mgrwt>
</event>
<event>
 7    1  0.5107591E-006  0.1869424E+03  0.7546771E-02  0.1166237E+00
          2   -1    0    0  501    0  0.00000000000E+00  0.00000000000E+00  0.44537440717E+03  0.44537440717E+03  0.00000000000E+00 0. -1.
         -2   -1    0    0    0  501 -0.00000000000E+00 -0.00000000000E+00 -0.83913781951E+02  0.83913781951E+02  0.00000000000E+00 0.  1.
         23    2    1    2    0    0  0.11890232968E+03 -0.72022947752E+02  0.27905468622E+03  0.32498887176E+03  0.91766986780E+02 0.  0.
          5    1    1    2  502    0 -0.11544272316E+03  0.44577273124E+02  0.10949024160E+03  0.16530081251E+03  0.47000000000E+01 0. -1.
         -5    1    1    2    0  502 -0.34596065128E+01  0.27445674627E+02 -0.27084302602E+02  0.38998504848E+02  0.47000000000E+01 0. -1.
        -11    1    3    3    0    0  0.13079077719E+03 -0.71681506913E+02  0.22714338667E+03  0.27173255959E+03  0.00000000000E+00 0.  1.
         11    1    3    3    0    0 -0.11888447508E+02 -0.34144083890E+00  0.51911299545E+02  0.53256312175E+02  0.00000000000E+00 0. -1.
<mgrwt>
<rscale>  0 0.18162743E+03</rscale>
<asrwt>0</asrwt>
<pdfrwt beam="1">  1        2 0.68519138E-01 0.18694243E+03</pdfrwt>
<pdfrwt beam="2">  1       -2 0.12909813E-01 0.18694243E+03</pdfrwt>
<totfact> 0.30607694E+03</totfact>
</mgrwt>
</event>
<event>
 7    1  0.5107591E-006  0.1266777E+03  0.7546771E-02  0.1249840E+00
         -2   -1    0    0    0  501 -0.00000000000E+00  0.00000000000E+00  0.39702404797E+02  0.39702404797E+02  0.00000000000E+00 0.  1.
          2   -1    0    0  501    0  0.00000000000E+00 -0.00000000000E+00 -0.29680177211E+03  0.29680177211E+03  0.00000000000E+00 0. -1.
         23    2    1    2    0    0 -0.18825901133E+02 -0.82906586856E+01 -0.12486907700E+03  0.15338649481E+03  0.86671684101E+02 0.  0.
          5    1    1    2  502    0  0.43857255789E+02 -0.29864501650E+02 -0.12238278965E+02  0.54655400613E+02  0.47000000000E+01 0.  1.
         -5    1    1    2    0  502 -0.25031354656E+02  0.38155160336E+02 -0.11999201134E+03  0.12846228148E+03  0.47000000000E+01 0.  1.
        -11    1    3    3    0    0 -0.25005845258E+02  0.12401247792E+02 -0.12975474936E+01  0.27942205951E+02  0.00000000000E+00 0.  1.
         11    1    3    3    0    0  0.61799441256E+01 -0.20691906478E+02 -0.12357152951E+03  0.12544428886E+03  0.00000000000E+00 0. -1.
<mgrwt>
<rscale>  0 0.11600303E+03</rscale>
<asrwt>0</asrwt>
<pdfrwt beam="2">  1        2 0.45661812E-01 0.12667768E+03</pdfrwt>
<pdfrwt beam="1">  1       -2 0.61080622E-02 0.12667768E+03</pdfrwt>
<totfact> 0.14870432E+04</totfact>
</mgrwt>
</event>
<event>
 7    1  0.5107591E-006  0.1349844E+03  0.7546771E-02  0.1232016E+00
         -2   -1    0    0    0  501 -0.00000000000E+00  0.00000000000E+00  0.17220021898E+02  0.17220021898E+02  0.00000000000E+00 0.  1.
          2   -1    0    0  501    0  0.00000000000E+00 -0.00000000000E+00 -0.86058237806E+03  0.86058237806E+03  0.00000000000E+00 0. -1.
         23    2    1    2    0    0  0.39538652352E+02  0.32150262843E+02 -0.43741816795E+03  0.45000398586E+03  0.92585037731E+02 0.  0.
          5    1    1    2  502    0 -0.43640109753E+02  0.26589623496E+02 -0.70538990143E+02  0.87231338332E+02  0.47000000000E+01 0. -1.
         -5    1    1    2    0  502  0.41014574002E+01 -0.58739886339E+02 -0.33540519807E+03  0.34056707576E+03  0.47000000000E+01 0. -1.
        -11    1    3    3    0    0  0.17206930244E+02 -0.25925504637E+02 -0.60998818631E+02  0.68476756008E+02  0.00000000000E+00 0.  1.
         11    1    3    3    0    0  0.22331722108E+02  0.58075767480E+02 -0.37641934932E+03  0.38152722985E+03  0.00000000000E+00 0. -1.
<mgrwt>
<rscale>  0 0.12697384E+03</rscale>
<asrwt>0</asrwt>
<pdfrwt beam="2">  1        2 0.13239726E+00 0.13498444E+03</pdfrwt>
<pdfrwt beam="1">  1       -2 0.26492348E-02 0.13498444E+03</pdfrwt>
<totfact> 0.15682368E+04</totfact>
</mgrwt>
</event>
<event>
 7    1  0.5107591E-006  0.1123303E+03  0.7546771E-02  0.1266336E+00
          3   -1    0    0  501    0  0.00000000000E+00  0.00000000000E+00  0.50954851088E+03  0.50954851088E+03  0.00000000000E+00 0. -1.
         -3   -1    0    0    0  501 -0.00000000000E+00 -0.00000000000E+00 -0.20665108359E+02  0.20665108359E+02  0.00000000000E+00 0.  1.
         23    2    1    2    0    0  0.67186684516E+01 -0.10985521929E+02  0.24103178028E+03  0.25809505665E+03  0.91383351690E+02 0.  0.
          5    1    1    2  502    0 -0.42009532728E+02 -0.92608826856E+01  0.21584161543E+03  0.22013690681E+03  0.47000000000E+01 0. -1.
         -5    1    1    2    0  502  0.35290864276E+02  0.20246404614E+02  0.32010006811E+02  0.51981655776E+02  0.47000000000E+01 0.  1.
        -11    1    3    3    0    0  0.84778042334E+00  0.35860648751E+02  0.51431204400E+02  0.62704654106E+02  0.00000000000E+00 0.  1.
         11    1    3    3    0    0  0.58708880283E+01 -0.46846170680E+02  0.18960057588E+03  0.19539040255E+03  0.00000000000E+00 0. -1.
<mgrwt>
<rscale>  0 0.10694407E+03</rscale>
<asrwt>0</asrwt>
<pdfrwt beam="1">  1        3 0.78392069E-01 0.11233025E+03</pdfrwt>
<pdfrwt beam="2">  1       -3 0.31792478E-02 0.11233025E+03</pdfrwt>
<totfact> 0.16150360E+03</totfact>
</mgrwt>
</event>
<event>
 7    1  0.5107591E-006  0.1819664E+03  0.7546771E-02  0.1171257E+00
         -2   -1    0    0    0  501 -0.00000000000E+00  0.00000000000E+00  0.50200044498E+03  0.50200044498E+03  0.00000000000E+00 0. -1.
          2   -1    0    0  501    0  0.00000000000E+00 -0.00000000000E+00 -0.70965266399E+02  0.70965266399E+02  0.00000000000E+00 0.  1.
         23    2    1    2    0    0  0.52428911832E+02  0.12139248700E+03  0.85101146529E+02  0.18209217998E+03  0.91817374028E+02 0.  0.
          5    1    1    2  502    0 -0.91513890841E+02 -0.83004349955E+02  0.27155642362E+03  0.29837810834E+03  0.47000000000E+01 0. -1.
         -5    1    1    2    0  502  0.39084979009E+02 -0.38388137049E+02  0.74377608437E+02  0.92495423060E+02  0.47000000000E+01 0. -1.
        -11    1    3    3    0    0 -0.14240747673E+02  0.42486267582E+02  0.61562765363E+02  0.76143653094E+02  0.00000000000E+00 0. -1.
         11    1    3    3    0    0  0.66669659504E+02  0.78906219423E+02  0.23538381166E+02  0.10594852689E+03  0.00000000000E+00 0.  1.
<mgrwt>
<rscale>  0 0.17647696E+03</rscale>
<asrwt>0</asrwt>
<pdfrwt beam="2">  1        2 0.10917734E-01 0.18196638E+03</pdfrwt>
<pdfrwt beam="1">  1       -2 0.77230835E-01 0.18196638E+03</pdfrwt>
<totfact> 0.87416539E+02</totfact>
</mgrwt>
</event>
<event>
 7    1  0.5107591E-006  0.1488003E+03  0.7546771E-02  0.1216167E+00
         -2   -1    0    0    0  501 -0.00000000000E+00  0.00000000000E+00  0.32625541149E+02  0.32625541149E+02  0.00000000000E+00 0.  1.
          2   -1    0    0  501    0  0.00000000000E+00 -0.00000000000E+00 -0.60519805392E+03  0.60519805392E+03  0.00000000000E+00 0. -1.
         23    2    1    2    0    0 -0.76613057845E+02  0.22403228745E+02 -0.37337884448E+03  0.38918804482E+03  0.75393019766E+02 0.  0.
          5    1    1    2  502    0  0.75683927039E+02  0.12013481107E+02 -0.41730143001E+02  0.87383496012E+02  0.47000000000E+01 0. -1.
         -5    1    1    2    0  502  0.92913080609E+00 -0.34416709852E+02 -0.15746352529E+03  0.16125205424E+03  0.47000000000E+01 0. -1.
        -11    1    3    3    0    0 -0.81874525973E+02  0.39532069846E+02 -0.32890906791E+03  0.34124389739E+03  0.00000000000E+00 0.  1.
         11    1    3    3    0    0  0.52614681274E+01 -0.17128841101E+02 -0.44469776572E+02  0.47944147429E+02  0.00000000000E+00 0. -1.
<mgrwt>
<rscale>  0 0.13791175E+03</rscale>
<asrwt>0</asrwt>
<pdfrwt beam="2">  1        2 0.93107391E-01 0.14880027E+03</pdfrwt>
<pdfrwt beam="1">  1       -2 0.50193141E-02 0.14880027E+03</pdfrwt>
<totfact> 0.93523086E+03</totfact>
</mgrwt>
</event>
<event>
 7    1  0.5107591E-006  0.1671678E+03  0.7546771E-02  0.1189086E+00
         -1   -1    0    0    0  501 -0.00000000000E+00  0.00000000000E+00  0.15695193263E+02  0.15695193263E+02  0.00000000000E+00 0.  1.
          1   -1    0    0  501    0  0.00000000000E+00 -0.00000000000E+00 -0.15477110685E+04  0.15477110685E+04  0.00000000000E+00 0. -1.
         23    2    1    2    0    0 -0.10391154861E+03 -0.39025570761E+02 -0.55309167948E+03  0.57031127025E+03  0.83808913368E+02 0.  0.
          5    1    1    2  502    0 -0.23590336687E+02 -0.92367100515E+01 -0.26543238693E+03  0.26668007580E+03  0.47000000000E+01 0.  1.
         -5    1    1    2    0  502  0.12750188529E+03  0.48262280812E+02 -0.71349180879E+03  0.72641491567E+03  0.47000000000E+01 0.  1.
        -11    1    3    3    0    0 -0.82620304450E+02 -0.61902077588E+02 -0.47715081111E+03  0.48819143629E+03  0.00000000000E+00 0. -1.
         11    1    3    3    0    0 -0.21291244155E+02  0.22876506827E+02 -0.75940868364E+02  0.82119833964E+02  0.00000000000E+00 0.  1.
<mgrwt>
<rscale>  0 0.15965566E+03</rscale>
<asrwt>0</asrwt>
<pdfrwt beam="2">  1        1 0.23810927E+00 0.16716782E+03</pdfrwt>
<pdfrwt beam="1">  1       -1 0.24146464E-02 0.16716782E+03</pdfrwt>
<totfact> 0.34374309E+03</totfact>
</mgrwt>
</event>
<event>
 7    1  0.5107591E-006  0.1220553E+03  0.7546771E-02  0.1252799E+00
          2   -1    0    0  501    0  0.00000000000E+00  0.00000000000E+00  0.80982565888E+02  0.80982565888E+02  0.00000000000E+00 0. -1.
         -2   -1    0    0    0  501 -0.00000000000E+00 -0.00000000000E+00 -0.18689660058E+03  0.18689660058E+03  0.00000000000E+00 0.  1.
         23    2    1    2    0    0 -0.78595559675E+01 -0.10198764056E+02  0.16146720089E+02  0.95263022014E+02  0.92997523544E+02 0.  0.
          5    1    1    2  502    0  0.81455423445E+01  0.58990124243E+02 -0.10483544467E+03  0.12065962488E+03  0.47000000000E+01 0. -1.
         -5    1    1    2    0  502 -0.28598637700E+00 -0.48791360187E+02 -0.17225310108E+02  0.51956519566E+02  0.47000000000E+01 0.  1.
        -11    1    3    3    0    0  0.18557678179E+02 -0.30010758864E+02  0.40883197516E+02  0.54004341549E+02  0.00000000000E+00 0.  1.
         11    1    3    3    0    0 -0.26417234146E+02  0.19811994808E+02 -0.24736477428E+02  0.41258680465E+02  0.00000000000E+00 0. -1.
<mgrwt>
<rscale>  0 0.11430526E+03</rscale>
<asrwt>0</asrwt>
<pdfrwt beam="1">  1        2 0.12458856E-01 0.12205534E+03</pdfrwt>
<pdfrwt beam="2">  1       -2 0.28753323E-01 0.12205534E+03</pdfrwt>
<totfact> 0.50919907E+03</totfact>
</mgrwt>
</event>
<event>
 7    1  0.5107591E-006  0.1615154E+03  0.7546771E-02  0.1194068E+00
         -1   -1    0    0    0  501 -0.00000000000E+00  0.00000000000E+00  0.98305274255E+03  0.98305274255E+03  0.00000000000E+00 0.  1.
          1   -1    0    0  501    0  0.00000000000E+00 -0.00000000000E+00 -0.25589882699E+02  0.25589882699E+02  0.00000000000E+00 0. -1.
         23    2    1    2    0    0  0.29646698799E+02 -0.97878192263E+02  0.28058894058E+03  0.31276509836E+03  0.92912786556E+02 0.  0.
          5    1    1    2  502    0 -0.39376442692E+02  0.10139762121E+03  0.30535328099E+03  0.32418312424E+03  0.47000000000E+01 0. -1.
         -5    1    1    2    0  502  0.97297438928E+01 -0.35194289504E+01  0.37152063827E+03  0.37169440265E+03  0.47000000000E+01 0. -1.
        -11    1    3    3    0    0  0.45419391607E+02 -0.85791519298E+02  0.27571565984E+03  0.29230503074E+03  0.00000000000E+00 0.  1.
         11    1    3    3    0    0 -0.15772692808E+02 -0.12086672965E+02  0.48732807451E+01  0.20460067620E+02  0.00000000000E+00 0. -1.
<mgrwt>
<rscale>  0 0.15533399E+03</rscale>
<asrwt>0</asrwt>
<pdfrwt beam="2">  1        1 0.39369058E-02 0.16151542E+03</pdfrwt>
<pdfrwt beam="1">  1       -1 0.15123885E+00 0.16151542E+03</pdfrwt>
<totfact> 0.85111362E+02</totfact>
</mgrwt>
</event>
<event>
 7    1  0.5107591E-006  0.1132189E+03  0.7546771E-02  0.1265347E+00
          1   -1    0    0  501    0  0.00000000000E+00  0.00000000000E+00  0.26518120131E+03  0.26518120131E+03  0.00000000000E+00 0. -1.
         -1   -1    0    0    0  501 -0.00000000000E+00 -0.00000000000E+00 -0.81513486799E+02  0.81513486799E+02  0.00000000000E+00 0.  1.
         23    2    1    2    0    0  0.70240514995E+01  0.84619570261E+01  0.21107416927E+03  0.23020595925E+03  0.91222457351E+02 0.  0.
          5    1    1    2  502    0 -0.35550211646E+02  0.25538727686E+02  0.22580153327E+02  0.49477242084E+02  0.47000000000E+01 0. -1.
         -5    1    1    2    0  502  0.28526160146E+02 -0.34000684712E+02 -0.49986608078E+02  0.67011486783E+02  0.47000000000E+01 0.  1.
        -11    1    3    3    0    0  0.34293254456E+02 -0.24039366253E+02  0.15073293742E+03  0.15644275904E+03  0.00000000000E+00 0.  1.
         11    1    3    3    0    0 -0.27269202957E+02  0.32501323279E+02  0.60341231842E+02  0.73763200208E+02  0.00000000000E+00 0. -1.
<mgrwt>
<rscale>  0 0.10746025E+03</rscale>
<asrwt>0</asrwt>
<pdfrwt beam="1">  1        1 0.40797108E-01 0.11321886E+03</pdfrwt>
<pdfrwt beam="2">  1       -1 0.12540537E-01 0.11321886E+03</pdfrwt>
<totfact> 0.41682553E+03</totfact>
</mgrwt>
</event>
<event>
 7    1  0.5107591E-006  0.2045827E+03  0.7546771E-02  0.1149902E+00
          1   -1    0    0  501    0  0.00000000000E+00  0.00000000000E+00  0.94554685785E+03  0.94554685785E+03  0.00000000000E+00 0. -1.
         -1   -1    0    0    0  501 -0.00000000000E+00 -0.00000000000E+00 -0.40851342531E+02  0.40851342531E+02  0.00000000000E+00 0.  1.
         23    2    1    2    0    0 -0.15544070955E+03 -0.45472398313E+02  0.48506556261E+03  0.51955412366E+03  0.91751480542E+02 0.  0.
          5    1    1    2  502    0  0.69241336779E+02  0.47292145723E+02  0.78506373772E+02  0.11496195235E+03  0.47000000000E+01 0. -1.
         -5    1    1    2    0  502  0.86199372771E+02 -0.18197474101E+01  0.34112357894E+03  0.35188212437E+03  0.47000000000E+01 0. -1.
        -11    1    3    3    0    0 -0.82062501050E+02 -0.37316142160E+02  0.38372168576E+03  0.39416884791E+03  0.00000000000E+00 0.  1.
         11    1    3    3    0    0 -0.73378208501E+02 -0.81562561526E+01  0.10134387685E+03  0.12538527574E+03  0.00000000000E+00 0. -1.
<mgrwt>
<rscale>  0 0.19980729E+03</rscale>
<asrwt>0</asrwt>
<pdfrwt beam="1">  1        1 0.14546873E+00 0.20458273E+03</pdfrwt>
<pdfrwt beam="2">  1       -1 0.62848226E-02 0.20458273E+03</pdfrwt>
<totfact> 0.21824111E+03</totfact>
</mgrwt>
</event>
<event>
 7    1  0.5107591E-006  0.1733139E+03  0.7546771E-02  0.1177933E+00
         -3   -1    0    0    0  501 -0.00000000000E+00  0.00000000000E+00  0.36817966480E+03  0.36817966480E+03  0.00000000000E+00 0. -1.
          3   -1    0    0  501    0  0.00000000000E+00 -0.00000000000E+00 -0.79721558225E+02  0.79721558225E+02  0.00000000000E+00 0.  1.
         23    2    1    2    0    0 -0.70741216390E+02 -0.97007939030E+02  0.87291528710E+02  0.18237214526E+03  0.10594776283E+03 0.  0.
          5    1    1    2  502    0  0.10443816711E+03  0.91317162052E+02  0.16010209432E+03  0.21189838471E+03  0.47000000000E+01 0. -1.
         -5    1    1    2    0  502 -0.33696950715E+02  0.56907769778E+01  0.41064483540E+02  0.53630693064E+02  0.47000000000E+01 0. -1.
        -11    1    3    3    0    0 -0.23566012978E+02 -0.46891458454E+01 -0.21392154272E+02  0.32170939073E+02  0.00000000000E+00 0.  1.
         11    1    3    3    0    0 -0.47175203412E+02 -0.92318793184E+02  0.10868368298E+03  0.15020120618E+03  0.00000000000E+00 0. -1.
<mgrwt>
<rscale>  0 0.16991797E+03</rscale>
<asrwt>0</asrwt>
<pdfrwt beam="2">  1        3 0.12264855E-01 0.17331387E+03</pdfrwt>
<pdfrwt beam="1">  1       -3 0.56643024E-01 0.17331387E+03</pdfrwt>
<totfact> 0.38956286E+02</totfact>
</mgrwt>
</event>
<event>
 7    1  0.5107591E-006  0.1625711E+03  0.7546771E-02  0.1193524E+00
         -2   -1    0    0    0  501 -0.00000000000E+00  0.00000000000E+00  0.52490268546E+02  0.52490268546E+02  0.00000000000E+00 0. -1.
          2   -1    0    0  501    0  0.00000000000E+00 -0.00000000000E+00 -0.42812640848E+03  0.42812640848E+03  0.00000000000E+00 0.  1.
         23    2    1    2    0    0 -0.47469838167E+02  0.92473903407E+02 -0.16510546348E+03  0.21462321504E+03  0.89434344725E+02 0.  0.
          5    1    1    2  502    0  0.10330948352E+02 -0.94882600720E+02 -0.64667278196E+02  0.11538363525E+03  0.47000000000E+01 0. -1.
         -5    1    1    2    0  502  0.37138889816E+02  0.24086973134E+01 -0.14586339826E+03  0.15060982674E+03  0.47000000000E+01 0. -1.
        -11    1    3    3    0    0  0.18394540445E+02  0.59722459087E+02 -0.89316657039E+02  0.10900732297E+03  0.00000000000E+00 0.  1.
         11    1    3    3    0    0 -0.65864378612E+02  0.32751444320E+02 -0.75788806443E+02  0.10561589207E+03  0.00000000000E+00 0. -1.
<mgrwt>
<rscale>  0 0.15579796E+03</rscale>
<asrwt>0</asrwt>
<pdfrwt beam="2">  1        2 0.65865603E-01 0.16257108E+03</pdfrwt>
<pdfrwt beam="1">  1       -2 0.80754258E-02 0.16257108E+03</pdfrwt>
<totfact> 0.66758746E+03</totfact>
</mgrwt>
</event>
<event>
 7    1  0.5107591E-006  0.1593292E+03  0.7546771E-02  0.1197193E+00
         -2   -1    0    0    0  501 -0.00000000000E+00  0.00000000000E+00  0.36624044711E+02  0.36624044711E+02  0.00000000000E+00 0.  1.
          2   -1    0    0  501    0  0.00000000000E+00 -0.00000000000E+00 -0.59310387914E+03  0.59310387914E+03  0.00000000000E+00 0. -1.
         23    2    1    2    0    0  0.27384097666E+02 -0.94929840281E+02 -0.28079197295E+03  0.31131058436E+03  0.91151437083E+02 0.  0.
          5    1    1    2  502    0 -0.10516256616E+02  0.58302305502E+02 -0.25016930961E+02  0.64480131162E+02  0.47000000000E+01 0. -1.
         -5    1    1    2    0  502 -0.16867841050E+02  0.36627534779E+02 -0.25067093052E+03  0.25393720832E+03  0.47000000000E+01 0. -1.
        -11    1    3    3    0    0  0.28879315637E+02 -0.24275111228E+01 -0.21723643354E+02  0.36219115982E+02  0.00000000000E+00 0.  1.
         11    1    3    3    0    0 -0.14952179707E+01 -0.92502329158E+02 -0.25906832960E+03  0.27509146838E+03  0.00000000000E+00 0. -1.
<mgrwt>
<rscale>  0 0.15270098E+03</rscale>
<asrwt>0</asrwt>
<pdfrwt beam="2">  1        2 0.91246741E-01 0.15932923E+03</pdfrwt>
<pdfrwt beam="1">  1       -2 0.56344690E-02 0.15932923E+03</pdfrwt>
<totfact> 0.80698962E+03</totfact>
</mgrwt>
</event>
<event>
 7    1  0.5107591E-006  0.1681157E+03  0.7546771E-02  0.1186477E+00
         -3   -1    0    0    0  501 -0.00000000000E+00  0.00000000000E+00  0.66415970971E+02  0.66415970971E+02  0.00000000000E+00 0.  1.
          3   -1    0    0  501    0  0.00000000000E+00 -0.00000000000E+00 -0.38399488561E+03  0.38399488561E+03  0.00000000000E+00 0. -1.
         23    2    1    2    0    0  0.14156162027E+02  0.11152897520E+03 -0.19217530802E+03  0.24067543677E+03  0.91401354578E+02 0.  0.
          5    1    1    2  502    0 -0.37614367513E+01 -0.10015750280E+03 -0.19002219761E+02  0.10212173191E+03  0.47000000000E+01 0.  1.
         -5    1    1    2    0  502 -0.10394725275E+02 -0.11371472397E+02 -0.10640138685E+03  0.10761368790E+03  0.47000000000E+01 0.  1.
        -11    1    3    3    0    0  0.41242327460E+02  0.89988745454E+02 -0.17718441810E+03  0.20296113396E+03  0.00000000000E+00 0. -1.
         11    1    3    3    0    0 -0.27086165434E+02  0.21540229743E+02 -0.14990889920E+02  0.37714302802E+02  0.00000000000E+00 0.  1.
<mgrwt>
<rscale>  0 0.16198183E+03</rscale>
<asrwt>0</asrwt>
<pdfrwt beam="2">  1        3 0.59076136E-01 0.16811568E+03</pdfrwt>
<pdfrwt beam="1">  1       -3 0.10217842E-01 0.16811568E+03</pdfrwt>
<totfact> 0.48369806E+02</totfact>
</mgrwt>
</event>
<event>
 7    1  0.5107591E-006  0.1282052E+03  0.7546771E-02  0.1245213E+00
          1   -1    0    0  501    0  0.00000000000E+00  0.00000000000E+00  0.17215322886E+02  0.17215322886E+02  0.00000000000E+00 0. -1.
         -1   -1    0    0    0  501 -0.00000000000E+00 -0.00000000000E+00 -0.95734717151E+03  0.95734717151E+03  0.00000000000E+00 0.  1.
         23    2    1    2    0    0 -0.27587067882E+02 -0.72364907189E+01 -0.17521042341E+03  0.19897152000E+03  0.89875247920E+02 0.  0.
          5    1    1    2  502    0 -0.15755891582E+02  0.32211867488E+02 -0.63889948495E+03  0.63992225652E+03  0.47000000000E+01 0.  1.
         -5    1    1    2    0  502  0.43342959463E+02 -0.24975376769E+02 -0.12602194027E+03  0.13566871788E+03  0.47000000000E+01 0.  1.
        -11    1    3    3    0    0 -0.21212942832E+02 -0.47942042431E+02 -0.86249685733E+02  0.10093283244E+03  0.00000000000E+00 0. -1.
         11    1    3    3    0    0 -0.63741250494E+01  0.40705551712E+02 -0.88960737673E+02  0.98038687555E+02  0.00000000000E+00 0.  1.
<mgrwt>
<rscale>  0 0.11872656E+03</rscale>
<asrwt>0</asrwt>
<pdfrwt beam="1">  1        1 0.26485109E-02 0.12820520E+03</pdfrwt>
<pdfrwt beam="2">  1       -1 0.14728420E+00 0.12820520E+03</pdfrwt>
<totfact> 0.15657295E+03</totfact>
</mgrwt>
</event>
<event>
 7    1  0.5107591E-006  0.1458248E+03  0.7546771E-02  0.1215879E+00
          1   -1    0    0  501    0  0.00000000000E+00  0.00000000000E+00  0.19406224580E+03  0.19406224580E+03  0.00000000000E+00 0. -1.
         -1   -1    0    0    0  501 -0.00000000000E+00 -0.00000000000E+00 -0.94675698338E+02  0.94675698338E+02  0.00000000000E+00 0.  1.
         23    2    1    2    0    0  0.74670090411E+02 -0.84662059711E+01  0.79037415425E+02  0.14150018346E+03  0.90155919592E+02 0.  0.
          5    1    1    2  502    0 -0.63046503764E+02 -0.41805444813E+02 -0.23509061952E+02  0.79355673060E+02  0.47000000000E+01 0.  1.
         -5    1    1    2    0  502 -0.11623586647E+02  0.50271650784E+02  0.43858193991E+02  0.67882087617E+02  0.47000000000E+01 0.  1.
        -11    1    3    3    0    0  0.46221290817E+02 -0.40390815569E+02  0.12869026644E+02  0.62717123291E+02  0.00000000000E+00 0.  1.
         11    1    3    3    0    0  0.28448799594E+02  0.31924609598E+02  0.66168388781E+02  0.78783060173E+02  0.00000000000E+00 0. -1.
<mgrwt>
<rscale>  0 0.13812157E+03</rscale>
<asrwt>0</asrwt>
<pdfrwt beam="1">  1        1 0.29855730E-01 0.14582480E+03</pdfrwt>
<pdfrwt beam="2">  1       -1 0.14565492E-01 0.14582480E+03</pdfrwt>
<totfact> 0.49325146E+03</totfact>
</mgrwt>
</event>
<event>
 7    1  0.5107591E-006  0.1260873E+03  0.7546771E-02  0.1248344E+00
         -1   -1    0    0    0  501 -0.00000000000E+00  0.00000000000E+00  0.19599133708E+02  0.19599133708E+02  0.00000000000E+00 0.  1.
          1   -1    0    0  501    0  0.00000000000E+00 -0.00000000000E+00 -0.70843038454E+03  0.70843038454E+03  0.00000000000E+00 0. -1.
         23    2    1    2    0    0 -0.69398475230E+01 -0.14998991348E+02 -0.43203466695E+03  0.44194824845E+03  0.91603327669E+02 0.  0.
          5    1    1    2  502    0 -0.57773929753E+01  0.45112458225E+00  0.13301941702E+02  0.15251669942E+02  0.47000000000E+01 0.  1.
         -5    1    1    2    0  502  0.12717240498E+02  0.14547866765E+02 -0.27009852559E+03  0.27082959985E+03  0.47000000000E+01 0.  1.
        -11    1    3    3    0    0  0.38725721498E+02  0.92333796898E+01 -0.14876416157E+03  0.15399906680E+03  0.00000000000E+00 0.  1.
         11    1    3    3    0    0 -0.45665569021E+02 -0.24232371037E+02 -0.28327050538E+03  0.28794918166E+03  0.00000000000E+00 0. -1.
<mgrwt>
<rscale>  0 0.11687462E+03</rscale>
<asrwt>0</asrwt>
<pdfrwt beam="2">  1        1 0.10898930E+00 0.12608730E+03</pdfrwt>
<pdfrwt beam="1">  1       -1 0.30152511E-02 0.12608730E+03</pdfrwt>
<totfact> 0.98886251E+03</totfact>
</mgrwt>
</event>
<event>
 7    1  0.5107591E-006  0.1452390E+03  0.7546771E-02  0.1216402E+00
          2   -1    0    0  501    0  0.00000000000E+00  0.00000000000E+00  0.59735131526E+03  0.59735131526E+03  0.00000000000E+00 0.  1.
         -2   -1    0    0    0  501 -0.00000000000E+00 -0.00000000000E+00 -0.29388225638E+02  0.29388225638E+02  0.00000000000E+00 0. -1.
         23    2    1    2    0    0  0.42340212818E+02  0.60642599731E+02  0.29515084776E+03  0.31767500133E+03  0.91286170979E+02 0.  0.
          5    1    1    2  502    0 -0.61965872120E+02  0.35406082657E+00  0.58568750356E+02  0.85394866268E+02  0.47000000000E+01 0. -1.
         -5    1    1    2    0  502  0.19625659302E+02 -0.60996660558E+02  0.21424349150E+03  0.22366967330E+03  0.47000000000E+01 0. -1.
        -11    1    3    3    0    0  0.43435809283E+02  0.72046816814E+02  0.29441057990E+03  0.30619438744E+03  0.00000000000E+00 0.  1.
         11    1    3    3    0    0 -0.10955964653E+01 -0.11404217083E+02  0.74026786397E+00  0.11480613895E+02  0.00000000000E+00 0. -1.
<mgrwt>
<rscale>  0 0.13774018E+03</rscale>
<asrwt>0</asrwt>
<pdfrwt beam="1">  1        2 0.91900193E-01 0.14523901E+03</pdfrwt>
<pdfrwt beam="2">  1       -2 0.45212659E-02 0.14523901E+03</pdfrwt>
<totfact> 0.11087495E+04</totfact>
</mgrwt>
</event>
<event>
 7    1  0.5107591E-006  0.1406876E+03  0.7546771E-02  0.1220910E+00
         -2   -1    0    0    0  501 -0.00000000000E+00  0.00000000000E+00  0.25047348480E+02  0.25047348480E+02  0.00000000000E+00 0. -1.
          2   -1    0    0  501    0  0.00000000000E+00 -0.00000000000E+00 -0.68698013374E+03  0.68698013374E+03  0.00000000000E+00 0.  1.
         23    2    1    2    0    0 -0.62767460868E+02 -0.15108703288E+02 -0.36469064153E+03  0.38317205344E+03  0.98252386553E+02 0.  0.
          5    1    1    2  502    0  0.73298478890E+02 -0.20955558816E+02 -0.89366361710E+02  0.11755951284E+03  0.47000000000E+01 0.  1.
         -5    1    1    2    0  502 -0.10531018022E+02  0.36064262104E+02 -0.20787578202E+03  0.21129591594E+03  0.47000000000E+01 0.  1.
        -11    1    3    3    0    0  0.77380663016E+01 -0.41484212075E+02 -0.13818859534E+03  0.14448842654E+03  0.00000000000E+00 0.  1.
         11    1    3    3    0    0 -0.70505527170E+02  0.26375508787E+02 -0.22650204619E+03  0.23868362691E+03  0.00000000000E+00 0. -1.
<mgrwt>
<rscale>  0 0.13451214E+03</rscale>
<asrwt>0</asrwt>
<pdfrwt beam="2">  1        2 0.10568925E+00 0.14068760E+03</pdfrwt>
<pdfrwt beam="1">  1       -2 0.38534382E-02 0.14068760E+03</pdfrwt>
<totfact> 0.11938800E+04</totfact>
</mgrwt>
</event>
<event>
 7    1  0.5107591E-006  0.1364094E+03  0.7546771E-02  0.1229651E+00
          3   -1    0    0  501    0  0.00000000000E+00  0.00000000000E+00  0.40440189471E+03  0.40440189471E+03  0.00000000000E+00 0. -1.
         -3   -1    0    0    0  501 -0.00000000000E+00 -0.00000000000E+00 -0.37767479004E+02  0.37767479004E+02  0.00000000000E+00 0.  1.
         23    2    1    2    0    0 -0.39958839794E+02  0.37237871374E+02  0.19758936856E+03  0.22495114159E+03  0.92617976628E+02 0.  0.
          5    1    1    2  502    0 -0.34893934140E+02 -0.28979295708E+00  0.10828194194E+03  0.11386281030E+03  0.47000000000E+01 0. -1.
         -5    1    1    2    0  502  0.74852773934E+02 -0.36948078417E+02  0.60763105203E+02  0.10335542181E+03  0.47000000000E+01 0. -1.
        -11    1    3    3    0    0 -0.44593541849E+02  0.64392595397E+02  0.16203984690E+03  0.17997750498E+03  0.00000000000E+00 0. -1.
         11    1    3    3    0    0  0.46347020542E+01 -0.27154724022E+02  0.35549521663E+02  0.44973636614E+02  0.00000000000E+00 0.  1.
<mgrwt>
<rscale>  0 0.12853159E+03</rscale>
<asrwt>0</asrwt>
<pdfrwt beam="1">  1        3 0.62215673E-01 0.13640943E+03</pdfrwt>
<pdfrwt beam="2">  1       -3 0.58103817E-02 0.13640943E+03</pdfrwt>
<totfact> 0.10566165E+03</totfact>
</mgrwt>
</event>
<event>
 7    1  0.5107591E-006  0.1943935E+03  0.7546771E-02  0.1159693E+00
         -2   -1    0    0    0  501 -0.00000000000E+00  0.00000000000E+00  0.48510996997E+02  0.48510996997E+02  0.00000000000E+00 0.  1.
          2   -1    0    0  501    0  0.00000000000E+00 -0.00000000000E+00 -0.69641105490E+03  0.69641105490E+03  0.00000000000E+00 0. -1.
         23    2    1    2    0    0 -0.98995063998E+02 -0.11122805024E+03 -0.27963890520E+03  0.32850264002E+03  0.86858306144E+02 0.  0.
          5    1    1    2  502    0  0.35885244427E+02  0.42273844850E+02 -0.28738624196E+03  0.29272473553E+03  0.47000000000E+01 0. -1.
         -5    1    1    2    0  502  0.63109819571E+02  0.68954205387E+02 -0.80874910746E+02  0.12369467634E+03  0.47000000000E+01 0. -1.
        -11    1    3    3    0    0 -0.84499317959E+02 -0.12239091041E+03 -0.26889579245E+03  0.30728588787E+03  0.00000000000E+00 0. -1.
         11    1    3    3    0    0 -0.14495746039E+02  0.11162860173E+02 -0.10743112751E+02  0.21216752156E+02  0.00000000000E+00 0.  1.
<mgrwt>
<rscale>  0 0.18864065E+03</rscale>
<asrwt>0</asrwt>
<pdfrwt beam="2">  1        2 0.10714016E+00 0.19439354E+03</pdfrwt>
<pdfrwt beam="1">  1       -2 0.74632308E-02 0.19439354E+03</pdfrwt>
<totfact> 0.43859168E+03</totfact>
</mgrwt>
</event>
<event>
 7    1  0.5107591E-006  0.1338879E+03  0.7546771E-02  0.1232841E+00
         -1   -1    0    0    0  501 -0.00000000000E+00  0.00000000000E+00  0.50772425138E+03  0.50772425138E+03  0.00000000000E+00 0.  1.
          1   -1    0    0  501    0  0.00000000000E+00 -0.00000000000E+00 -0.39509998399E+02  0.39509998399E+02  0.00000000000E+00 0. -1.
         23    2    1    2    0    0  0.47688996077E+02 -0.51654149117E+01  0.70792817358E+02  0.12786594502E+03  0.95063952417E+02 0.  0.
          5    1    1    2  502    0  0.28287768808E+02 -0.36874142515E+02  0.12769116534E+03  0.13596699584E+03  0.47000000000E+01 0. -1.
         -5    1    1    2    0  502 -0.75976764885E+02  0.42039557427E+02  0.26973027028E+03  0.28340130892E+03  0.47000000000E+01 0. -1.
        -11    1    3    3    0    0  0.30448856411E+02  0.39565554805E+01 -0.18914250074E+02  0.36062945580E+02  0.00000000000E+00 0. -1.
         11    1    3    3    0    0  0.17240139666E+02 -0.91219703922E+01  0.89707067432E+02  0.91802999444E+02  0.00000000000E+00 0.  1.
<mgrwt>
<rscale>  0 0.12643680E+03</rscale>
<asrwt>0</asrwt>
<pdfrwt beam="2">  1        1 0.60784616E-02 0.13388793E+03</pdfrwt>
<pdfrwt beam="1">  1       -1 0.78111419E-01 0.13388793E+03</pdfrwt>
<totfact> 0.21099659E+03</totfact>
</mgrwt>
</event>
<event>
 7    1  0.5107591E-006  0.1462633E+03  0.7546771E-02  0.1214819E+00
         -1   -1    0    0    0  501 -0.00000000000E+00  0.00000000000E+00  0.79313580034E+02  0.79313580034E+02  0.00000000000E+00 0.  1.
          1   -1    0    0  501    0  0.00000000000E+00 -0.00000000000E+00 -0.22287849044E+03  0.22287849044E+03  0.00000000000E+00 0. -1.
         23    2    1    2    0    0  0.31471804830E+02  0.69116888860E+02 -0.75283129812E+02  0.14077536808E+03  0.91556189301E+02 0.  0.
          5    1    1    2  502    0  0.33911889211E+02 -0.52636851683E+02 -0.69695859043E+02  0.93809685815E+02  0.47000000000E+01 0. -1.
         -5    1    1    2    0  502 -0.65383694041E+02 -0.16480037177E+02  0.14140784544E+01  0.67607016572E+02  0.47000000000E+01 0. -1.
        -11    1    3    3    0    0 -0.10220820889E+02  0.75945053853E+02 -0.50932364981E+02  0.92012076311E+02  0.00000000000E+00 0.  1.
         11    1    3    3    0    0  0.41692625719E+02 -0.68281649931E+01 -0.24350764831E+02  0.48763291772E+02  0.00000000000E+00 0. -1.
<mgrwt>
<rscale>  0 0.13889821E+03</rscale>
<asrwt>0</asrwt>
<pdfrwt beam="2">  1        1 0.34288999E-01 0.14626329E+03</pdfrwt>
<pdfrwt beam="1">  1       -1 0.12202089E-01 0.14626329E+03</pdfrwt>
<totfact> 0.54708239E+03</totfact>
</mgrwt>
</event>
<event>
 7    1  0.5107591E-006  0.1572688E+03  0.7546771E-02  0.1200098E+00
         -2   -1    0    0    0  501 -0.00000000000E+00  0.00000000000E+00  0.99691678905E+02  0.99691678905E+02  0.00000000000E+00 0.  1.
          2   -1    0    0  501    0  0.00000000000E+00 -0.00000000000E+00 -0.34900221883E+03  0.34900221883E+03  0.00000000000E+00 0. -1.
         23    2    1    2    0    0 -0.78617243962E+02  0.54109221137E+02 -0.25982213908E+03  0.29107421972E+03  0.90045425055E+02 0.  0.
          5    1    1    2  502    0 -0.17582857685E+02  0.10746565175E+02 -0.28181575175E+02  0.35226931839E+02  0.47000000000E+01 0. -1.
         -5    1    1    2    0  502  0.96200101647E+02 -0.64855786313E+02  0.38693174330E+02  0.12239274617E+03  0.47000000000E+01 0. -1.
        -11    1    3    3    0    0 -0.30961588565E+02  0.56601576464E+02 -0.21890207061E+03  0.22821146979E+03  0.00000000000E+00 0. -1.
         11    1    3    3    0    0 -0.47655655397E+02 -0.24923553265E+01 -0.40920068466E+02  0.62862749937E+02  0.00000000000E+00 0.  1.
<mgrwt>
<rscale>  0 0.15030571E+03</rscale>
<asrwt>0</asrwt>
<pdfrwt beam="2">  1        2 0.53692647E-01 0.15726878E+03</pdfrwt>
<pdfrwt beam="1">  1       -2 0.15337182E-01 0.15726878E+03</pdfrwt>
<totfact> 0.29855277E+03</totfact>
</mgrwt>
</event>
<event>
 7    1  0.5107591E-006  0.1455541E+03  0.7546771E-02  0.1216070E+00
         -2   -1    0    0    0  501 -0.00000000000E+00  0.00000000000E+00  0.35253308716E+02  0.35253308716E+02  0.00000000000E+00 0.  1.
          2   -1    0    0  501    0  0.00000000000E+00 -0.00000000000E+00 -0.51343107615E+03  0.51343107615E+03  0.00000000000E+00 0. -1.
         23    2    1    2    0    0  0.46341723461E+02 -0.58407436752E+02 -0.27191170299E+03  0.29623301714E+03  0.90879272760E+02 0.  0.
          5    1    1    2  502    0 -0.15761734654E+02 -0.32141709314E+02 -0.11378388034E+03  0.11937496882E+03  0.47000000000E+01 0.  1.
         -5    1    1    2    0  502 -0.30579988807E+02  0.90549146066E+02 -0.92482184106E+02  0.13307639891E+03  0.47000000000E+01 0.  1.
        -11    1    3    3    0    0 -0.16336384544E+01  0.19886747764E+02 -0.20636259127E+02  0.28705516926E+02  0.00000000000E+00 0.  1.
         11    1    3    3    0    0  0.47975361915E+02 -0.78294184516E+02 -0.25127544386E+03  0.26752750021E+03  0.00000000000E+00 0. -1.
<mgrwt>
<rscale>  0 0.13798254E+03</rscale>
<asrwt>0</asrwt>
<pdfrwt beam="2">  1        2 0.78989396E-01 0.14555413E+03</pdfrwt>
<pdfrwt beam="1">  1       -2 0.54235859E-02 0.14555413E+03</pdfrwt>
<totfact> 0.99959997E+03</totfact>
</mgrwt>
</event>
<event>
 7    1  0.5107591E-006  0.1289164E+03  0.7546771E-02  0.1243583E+00
          1   -1    0    0  501    0  0.00000000000E+00  0.00000000000E+00  0.48799287857E+03  0.48799287857E+03  0.00000000000E+00 0. -1.
         -1   -1    0    0    0  501 -0.00000000000E+00 -0.00000000000E+00 -0.26631895160E+02  0.26631895160E+02  0.00000000000E+00 0.  1.
         23    2    1    2    0    0 -0.18969741527E+02  0.25154669068E+02  0.24050736521E+03  0.25889882876E+03  0.90510785781E+02 0.  0.
          5    1    1    2  502    0  0.42450141634E+02  0.40548999596E+02  0.96151035084E+02  0.11275348084E+03  0.47000000000E+01 0.  1.
         -5    1    1    2    0  502 -0.23480400107E+02 -0.65703668664E+02  0.12470258311E+03  0.14297246413E+03  0.47000000000E+01 0.  1.
        -11    1    3    3    0    0  0.32528736805E+02 -0.80785596688E+01  0.10389315368E+03  0.10916578780E+03  0.00000000000E+00 0.  1.
         11    1    3    3    0    0 -0.51498478332E+02  0.33233228737E+02  0.13661421153E+03  0.14973304096E+03  0.00000000000E+00 0. -1.
<mgrwt>
<rscale>  0 0.11970572E+03</rscale>
<asrwt>0</asrwt>
<pdfrwt beam="1">  1        1 0.75075821E-01 0.12891640E+03</pdfrwt>
<pdfrwt beam="2">  1       -1 0.40972150E-02 0.12891640E+03</pdfrwt>
<totfact> 0.10488108E+04</totfact>
</mgrwt>
</event>
<event>
 7    1  0.5107591E-006  0.1292994E+03  0.7546771E-02  0.1241383E+00
          3   -1    0    0  501    0  0.00000000000E+00  0.00000000000E+00  0.18201503640E+03  0.18201503640E+03  0.00000000000E+00 0. -1.
         -3   -1    0    0    0  501 -0.00000000000E+00 -0.00000000000E+00 -0.72139619323E+02  0.72139619323E+02  0.00000000000E+00 0.  1.
         23    2    1    2    0    0  0.55503792727E+01  0.32584952804E+02  0.38913103023E+02  0.10666234804E+03  0.93648497288E+02 0.  0.
          5    1    1    2  502    0  0.30958375759E+02 -0.40089966364E+02 -0.15535238208E+02  0.53188909172E+02  0.47000000000E+01 0. -1.
         -5    1    1    2    0  502 -0.36508755032E+02  0.75050135600E+01  0.86497552261E+02  0.94303398506E+02  0.47000000000E+01 0. -1.
        -11    1    3    3    0    0 -0.14798848398E+02  0.52005601357E+02  0.52552052198E+02  0.75400972650E+02  0.00000000000E+00 0.  1.
         11    1    3    3    0    0  0.20349227670E+02 -0.19420648553E+02 -0.13638949174E+02  0.31261375395E+02  0.00000000000E+00 0. -1.
<mgrwt>
<rscale>  0 0.12104488E+03</rscale>
<asrwt>0</asrwt>
<pdfrwt beam="1">  1        3 0.28002313E-01 0.12929938E+03</pdfrwt>
<pdfrwt beam="2">  1       -3 0.11098403E-01 0.12929938E+03</pdfrwt>
<totfact> 0.17213923E+03</totfact>
</mgrwt>
</event>
<event>
 7    1  0.5107591E-006  0.1265496E+03  0.7546771E-02  0.1246780E+00
          1   -1    0    0  501    0  0.00000000000E+00  0.00000000000E+00  0.13356268326E+03  0.13356268326E+03  0.00000000000E+00 0. -1.
         -1   -1    0    0    0  501 -0.00000000000E+00 -0.00000000000E+00 -0.98222023386E+02  0.98222023386E+02  0.00000000000E+00 0.  1.
         23    2    1    2    0    0  0.63749253041E+01  0.18672625943E+02  0.44497205498E+02  0.10490428051E+03  0.92927929822E+02 0.  0.
          5    1    1    2  502    0  0.21460527047E+02 -0.49056602880E+02  0.36673585472E+02  0.65070318722E+02  0.47000000000E+01 0. -1.
         -5    1    1    2    0  502 -0.27835452351E+02  0.30383976936E+02 -0.45830131094E+02  0.61810107411E+02  0.47000000000E+01 0. -1.
        -11    1    3    3    0    0 -0.12668282679E+02 -0.35213542215E+02  0.22493398837E+02  0.43662706428E+02  0.00000000000E+00 0. -1.
         11    1    3    3    0    0  0.19043207983E+02  0.53886168158E+02  0.22003806661E+02  0.61241574087E+02  0.00000000000E+00 0.  1.
<mgrwt>
<rscale>  0 0.11779474E+03</rscale>
<asrwt>0</asrwt>
<pdfrwt beam="1">  1        1 0.20548105E-01 0.12654960E+03</pdfrwt>
<pdfrwt beam="2">  1       -1 0.15111081E-01 0.12654960E+03</pdfrwt>
<totfact> 0.73751887E+03</totfact>
</mgrwt>
</event>
<event>
 7    1  0.5107591E-006  0.1330745E+03  0.7546771E-02  0.1235560E+00
         -1   -1    0    0    0  501 -0.00000000000E+00  0.00000000000E+00  0.15521252091E+03  0.15521252091E+03  0.00000000000E+00 0.  1.
          1   -1    0    0  501    0  0.00000000000E+00 -0.00000000000E+00 -0.10146567458E+03  0.10146567458E+03  0.00000000000E+00 0. -1.
         23    2    1    2    0    0 -0.10728201485E+02  0.44368550889E+02 -0.20057672164E+02  0.10450742985E+03  0.91846774933E+02 0.  0.
          5    1    1    2  502    0  0.29598632684E+02  0.30667819232E+02  0.59508442782E+02  0.73348067157E+02  0.47000000000E+01 0.  1.
         -5    1    1    2    0  502 -0.18870431199E+02 -0.75036370121E+02  0.14296075711E+02  0.78822698478E+02  0.47000000000E+01 0.  1.
        -11    1    3    3    0    0  0.17801197886E+02  0.37250862062E+02  0.26776033778E+02  0.49208387044E+02  0.00000000000E+00 0.  1.
         11    1    3    3    0    0 -0.28529399371E+02  0.71176888268E+01 -0.46833705943E+02  0.55299042804E+02  0.00000000000E+00 0. -1.
<mgrwt>
<rscale>  0 0.12468683E+03</rscale>
<asrwt>0</asrwt>
<pdfrwt beam="2">  1        1 0.15610104E-01 0.13307455E+03</pdfrwt>
<pdfrwt beam="1">  1       -1 0.23878849E-01 0.13307455E+03</pdfrwt>
<totfact> 0.50644172E+03</totfact>
</mgrwt>
</event>
<event>
 7    1  0.5107591E-006  0.1270668E+03  0.7546771E-02  0.1246394E+00
         -2   -1    0    0    0  501 -0.00000000000E+00  0.00000000000E+00  0.51186208228E+03  0.51186208228E+03  0.00000000000E+00 0.  1.
          2   -1    0    0  501    0  0.00000000000E+00 -0.00000000000E+00 -0.26068753413E+02  0.26068753413E+02  0.00000000000E+00 0. -1.
         23    2    1    2    0    0 -0.13052943635E+02  0.18820938484E+02  0.13498164389E+03  0.16481583119E+03  0.91758416290E+02 0.  0.
          5    1    1    2  502    0 -0.21989509657E+01 -0.49469381010E+02  0.32790718579E+03  0.33165835966E+03  0.47000000000E+01 0.  1.
         -5    1    1    2    0  502  0.15251894601E+02  0.30648442526E+02  0.22904499182E+02  0.41456644835E+02  0.47000000000E+01 0.  1.
        -11    1    3    3    0    0  0.12114491570E+02  0.51624603601E+02  0.70480155530E+02  0.88200413415E+02  0.00000000000E+00 0. -1.
         11    1    3    3    0    0 -0.25167435205E+02 -0.32803665117E+02  0.64501488362E+02  0.76615417775E+02  0.00000000000E+00 0.  1.
<mgrwt>
<rscale>  0 0.11802304E+03</rscale>
<asrwt>0</asrwt>
<pdfrwt beam="2">  1        2 0.40105778E-02 0.12706679E+03</pdfrwt>
<pdfrwt beam="1">  1       -2 0.78748005E-01 0.12706679E+03</pdfrwt>
<totfact> 0.29599785E+03</totfact>
</mgrwt>
</event>
<event>
 7    1  0.5107591E-006  0.1350298E+03  0.7546771E-02  0.1230005E+00
          4   -1    0    0  501    0  0.00000000000E+00  0.00000000000E+00  0.55154310106E+02  0.55154310106E+02  0.00000000000E+00 0. -1.
         -4   -1    0    0    0  501 -0.00000000000E+00 -0.00000000000E+00 -0.36109695772E+03  0.36109695772E+03  0.00000000000E+00 0.  1.
         23    2    1    2    0    0 -0.48809799406E+02  0.15038827072E+02 -0.38380160922E+02  0.11654686007E+03  0.97476002187E+02 0.  0.
          5    1    1    2  502    0  0.23809750787E+02  0.25662707425E+02 -0.86285607210E+01  0.36359604578E+02  0.47000000000E+01 0. -1.
         -5    1    1    2    0  502  0.25000048619E+02 -0.40701534497E+02 -0.25893392597E+03  0.26334480318E+03  0.47000000000E+01 0. -1.
        -11    1    3    3    0    0  0.18924748437E+02 -0.78838452897E+01  0.16573025148E+02  0.26362213157E+02  0.00000000000E+00 0. -1.
         11    1    3    3    0    0 -0.67734547844E+02  0.22922672362E+02 -0.54953186070E+02  0.90184646914E+02  0.00000000000E+00 0.  1.
<mgrwt>
<rscale>  0 0.12829681E+03</rscale>
<asrwt>0</asrwt>
<pdfrwt beam="1">  1        4 0.84852782E-02 0.13502980E+03</pdfrwt>
<pdfrwt beam="2">  1       -4 0.55553380E-01 0.13502980E+03</pdfrwt>
<totfact> 0.51747349E+02</totfact>
</mgrwt>
</event>
<event>
 7    1  0.5107591E-006  0.2751290E+03  0.7546771E-02  0.1100320E+00
          2   -1    0    0  501    0  0.00000000000E+00  0.00000000000E+00  0.80243455310E+03  0.80243455310E+03  0.00000000000E+00 0. -1.
         -2   -1    0    0    0  501 -0.00000000000E+00 -0.00000000000E+00 -0.89941321853E+02  0.89941321853E+02  0.00000000000E+00 0.  1.
         23    2    1    2    0    0  0.20922127974E+03 -0.12764985172E+03  0.32688111971E+03  0.41867485786E+03  0.91484105949E+02 0.  0.
          5    1    1    2  502    0 -0.22348761904E+03  0.13029619043E+03  0.35271252046E+03  0.43743802440E+03  0.47000000000E+01 0. -1.
         -5    1    1    2    0  502  0.14266339304E+02 -0.26463387005E+01  0.32899591073E+02  0.36262992685E+02  0.47000000000E+01 0. -1.
        -11    1    3    3    0    0  0.18730141575E+03 -0.14221856871E+03  0.29022880820E+03  0.37355147267E+03  0.00000000000E+00 0. -1.
         11    1    3    3    0    0  0.21919863993E+02  0.14568716982E+02  0.36652311517E+02  0.45123385196E+02  0.00000000000E+00 0.  1.
<mgrwt>
<rscale>  0 0.27168391E+03</rscale>
<asrwt>0</asrwt>
<pdfrwt beam="1">  1        2 0.12345146E+00 0.27512898E+03</pdfrwt>
<pdfrwt beam="2">  1       -2 0.13837127E-01 0.27512898E+03</pdfrwt>
<totfact> 0.13836618E+03</totfact>
</mgrwt>
</event>
<event>
 7    1  0.5107591E-006  0.2441421E+03  0.7546771E-02  0.1119506E+00
         -2   -1    0    0    0  501 -0.00000000000E+00  0.00000000000E+00  0.30493452689E+03  0.30493452689E+03  0.00000000000E+00 0.  1.
          2   -1    0    0  501    0  0.00000000000E+00 -0.00000000000E+00 -0.18693636035E+03  0.18693636035E+03  0.00000000000E+00 0. -1.
         23    2    1    2    0    0  0.20824275782E+03  0.24816795884E+02  0.26549517719E+02  0.23116371609E+03  0.93546069964E+02 0.  0.
          5    1    1    2  502    0 -0.18523073033E+03  0.55559804883E+01  0.29328510625E+02  0.18767936464E+03  0.47000000000E+01 0.  1.
         -5    1    1    2    0  502 -0.23012027492E+02 -0.30372776372E+02  0.62120138198E+02  0.73027806509E+02  0.47000000000E+01 0.  1.
        -11    1    3    3    0    0  0.82488511673E+02  0.52552418709E+02  0.30115118392E+02  0.10233783086E+03  0.00000000000E+00 0. -1.
         11    1    3    3    0    0  0.12575424615E+03 -0.27735622826E+02 -0.35656006730E+01  0.12882588523E+03  0.00000000000E+00 0.  1.
<mgrwt>
<rscale>  0 0.24043135E+03</rscale>
<asrwt>0</asrwt>
<pdfrwt beam="2">  1        2 0.28759440E-01 0.24414212E+03</pdfrwt>
<pdfrwt beam="1">  1       -2 0.46913004E-01 0.24414212E+03</pdfrwt>
<totfact> 0.80201387E+02</totfact>
</mgrwt>
</event>
<event>
 7    1  0.5107591E-006  0.1540768E+03  0.7546771E-02  0.1204277E+00
          2   -1    0    0  501    0  0.00000000000E+00  0.00000000000E+00  0.73537507897E+02  0.73537507897E+02  0.00000000000E+00 0. -1.
         -2   -1    0    0    0  501 -0.00000000000E+00 -0.00000000000E+00 -0.31219740326E+03  0.31219740326E+03  0.00000000000E+00 0.  1.
         23    2    1    2    0    0 -0.24441001577E+02 -0.86701960354E+02 -0.38537490172E+02  0.13317077673E+03  0.90192711119E+02 0.  0.
          5    1    1    2  502    0  0.70916035459E+02  0.79294570695E+02 -0.13118639968E+03  0.16896353005E+03  0.47000000000E+01 0.  1.
         -5    1    1    2    0  502 -0.46475033883E+02  0.74073896593E+01 -0.68936005515E+02  0.83600604377E+02  0.47000000000E+01 0.  1.
        -11    1    3    3    0    0  0.17596421271E+02 -0.53497836829E+02  0.14113490756E+02  0.58058963204E+02  0.00000000000E+00 0. -1.
         11    1    3    3    0    0 -0.42037422848E+02 -0.33204123525E+02 -0.52650980928E+02  0.75111813528E+02  0.00000000000E+00 0.  1.
<mgrwt>
<rscale>  0 0.14694586E+03</rscale>
<asrwt>0</asrwt>
<pdfrwt beam="1">  1        2 0.11313463E-01 0.15407682E+03</pdfrwt>
<pdfrwt beam="2">  1       -2 0.48030369E-01 0.15407682E+03</pdfrwt>
<totfact> 0.22228595E+03</totfact>
</mgrwt>
</event>
<event>
 7    1  0.5107591E-006  0.1341195E+03  0.7546771E-02  0.1237054E+00
         -2   -1    0    0    0  501 -0.00000000000E+00  0.00000000000E+00  0.57025291160E+02  0.57025291160E+02  0.00000000000E+00 0.  1.
          2   -1    0    0  501    0  0.00000000000E+00 -0.00000000000E+00 -0.27597303505E+03  0.27597303505E+03  0.00000000000E+00 0. -1.
         23    2    1    2    0    0 -0.40566583483E+01 -0.33462460566E+02 -0.15843249004E+03  0.18585849326E+03  0.91139085313E+02 0.  0.
          5    1    1    2  502    0  0.49072770163E+02  0.53003542652E+02 -0.65459110835E+02  0.97593532042E+02  0.47000000000E+01 0. -1.
         -5    1    1    2    0  502 -0.45016111814E+02 -0.19541082086E+02  0.49438569838E+01  0.49546300910E+02  0.47000000000E+01 0.  1.
        -11    1    3    3    0    0  0.42959813827E+02 -0.95587961165E+01 -0.80704669325E+02  0.91924750955E+02  0.00000000000E+00 0. -1.
         11    1    3    3    0    0 -0.47016472175E+02 -0.23903664450E+02 -0.77727820712E+02  0.93933742301E+02  0.00000000000E+00 0.  1.
<mgrwt>
<rscale>  0 0.12373852E+03</rscale>
<asrwt>0</asrwt>
<pdfrwt beam="2">  1        2 0.42457389E-01 0.13411948E+03</pdfrwt>
<pdfrwt beam="1">  1       -2 0.87731219E-02 0.13411948E+03</pdfrwt>
<totfact> 0.92591725E+03</totfact>
</mgrwt>
</event>
<event>
 7    1  0.5107591E-006  0.1290131E+03  0.7546771E-02  0.1243069E+00
          3   -1    0    0  501    0  0.00000000000E+00  0.00000000000E+00  0.50167038894E+03  0.50167038894E+03  0.00000000000E+00 0. -1.
         -3   -1    0    0    0  501 -0.00000000000E+00 -0.00000000000E+00 -0.26162636016E+02  0.26162636016E+02  0.00000000000E+00 0.  1.
         23    2    1    2    0    0 -0.31168986557E+02  0.69462618516E+01  0.25011720182E+03  0.26813072152E+03  0.91190530765E+02 0.  0.
          5    1    1    2  502    0  0.64494642348E+02  0.83742042500E+01  0.20957349493E+03  0.21948308811E+03  0.47000000000E+01 0. -1.
         -5    1    1    2    0  502 -0.33325655791E+02 -0.15320466102E+02  0.15817056175E+02  0.40219215327E+02  0.47000000000E+01 0. -1.
        -11    1    3    3    0    0  0.12550467330E+02  0.33829039274E+02  0.50789288710E+02  0.62301444414E+02  0.00000000000E+00 0.  1.
         11    1    3    3    0    0 -0.43719453887E+02 -0.26882777422E+02  0.19932791311E+03  0.20582927711E+03  0.00000000000E+00 0. -1.
<mgrwt>
<rscale>  0 0.12001691E+03</rscale>
<asrwt>0</asrwt>
<pdfrwt beam="1">  1        3 0.77180053E-01 0.12901312E+03</pdfrwt>
<pdfrwt beam="2">  1       -3 0.40250213E-02 0.12901312E+03</pdfrwt>
<totfact> 0.11860779E+03</totfact>
</mgrwt>
</event>
<event>
 7    1  0.5107591E-006  0.1291336E+03  0.7546771E-02  0.1244101E+00
         -3   -1    0    0    0  501 -0.00000000000E+00  0.00000000000E+00  0.75060630136E+02  0.75060630136E+02  0.00000000000E+00 0.  1.
          3   -1    0    0  501    0  0.00000000000E+00 -0.00000000000E+00 -0.19950890880E+03  0.19950890880E+03  0.00000000000E+00 0. -1.
         23    2    1    2    0    0  0.30497822011E+02  0.10959991787E+02 -0.10953647116E+03  0.14457779240E+03  0.88624268540E+02 0.  0.
          5    1    1    2  502    0 -0.65627280604E+02  0.90664008477E+01  0.26879569501E+02  0.71650127986E+02  0.47000000000E+01 0. -1.
         -5    1    1    2    0  502  0.35129458593E+02 -0.20026392634E+02 -0.41791377006E+02  0.58341618550E+02  0.47000000000E+01 0. -1.
        -11    1    3    3    0    0 -0.19096394828E+02  0.95529567816E+01 -0.87890850005E+02  0.90447403464E+02  0.00000000000E+00 0. -1.
         11    1    3    3    0    0  0.49594216840E+02  0.14070350050E+01 -0.21645621155E+02  0.54130388938E+02  0.00000000000E+00 0.  1.
<mgrwt>
<rscale>  0 0.11939350E+03</rscale>
<asrwt>0</asrwt>
<pdfrwt beam="2">  1        3 0.30693678E-01 0.12913362E+03</pdfrwt>
<pdfrwt beam="1">  1       -3 0.11547789E-01 0.12913362E+03</pdfrwt>
<totfact> 0.13603886E+03</totfact>
</mgrwt>
</event>
<event>
 7    1  0.5107591E-006  0.1456191E+03  0.7546771E-02  0.1215785E+00
         -1   -1    0    0    0  501 -0.00000000000E+00  0.00000000000E+00  0.68053807765E+02  0.68053807765E+02  0.00000000000E+00 0.  1.
          1   -1    0    0  501    0  0.00000000000E+00 -0.00000000000E+00 -0.25563424195E+03  0.25563424195E+03  0.00000000000E+00 0. -1.
         23    2    1    2    0    0 -0.44585254167E+02 -0.59958242007E+02 -0.80210941317E+02  0.14276509167E+03  0.91461689349E+02 0.  0.
          5    1    1    2  502    0 -0.33670465347E+02  0.57962065975E+02 -0.49379198694E+02  0.83388827744E+02  0.47000000000E+01 0. -1.
         -5    1    1    2    0  502  0.78255719514E+02  0.19961760321E+01 -0.57990294173E+02  0.97534130302E+02  0.47000000000E+01 0. -1.
        -11    1    3    3    0    0 -0.22107794579E+02  0.19640275452E+02 -0.31860526299E+01  0.29742998039E+02  0.00000000000E+00 0.  1.
         11    1    3    3    0    0 -0.22477459588E+02 -0.79598517459E+02 -0.77024888688E+02  0.11302209363E+03  0.00000000000E+00 0. -1.
<mgrwt>
<rscale>  0 0.13819042E+03</rscale>
<asrwt>0</asrwt>
<pdfrwt beam="2">  1        1 0.39328345E-01 0.14561905E+03</pdfrwt>
<pdfrwt beam="1">  1       -1 0.10469817E-01 0.14561905E+03</pdfrwt>
<totfact> 0.58408980E+03</totfact>
</mgrwt>
</event>
<event>
 7    1  0.5107591E-006  0.1253051E+03  0.7546771E-02  0.1250174E+00
          2   -1    0    0  501    0  0.00000000000E+00  0.00000000000E+00  0.42371992639E+03  0.42371992639E+03  0.00000000000E+00 0.  1.
         -2   -1    0    0    0  501 -0.00000000000E+00 -0.00000000000E+00 -0.27818195153E+02  0.27818195153E+02  0.00000000000E+00 0. -1.
         23    2    1    2    0    0  0.75966711538E+01 -0.40339262089E+01  0.18073957412E+03  0.20254789404E+03  0.91021281863E+02 0.  0.
          5    1    1    2  502    0 -0.41134459535E+01  0.64376844117E+02  0.11083778124E+03  0.12832927276E+03  0.47000000000E+01 0.  1.
         -5    1    1    2    0  502 -0.34832252003E+01 -0.60342917908E+02  0.10432437587E+03  0.12066095475E+03  0.47000000000E+01 0.  1.
        -11    1    3    3    0    0 -0.24853445175E+02 -0.22914535483E+02  0.15075989872E+03  0.15450345218E+03  0.00000000000E+00 0.  1.
         11    1    3    3    0    0  0.32450116328E+02  0.18880609274E+02  0.29979675405E+02  0.48044441860E+02  0.00000000000E+00 0. -1.
<mgrwt>
<rscale>  0 0.11580973E+03</rscale>
<asrwt>0</asrwt>
<pdfrwt beam="1">  1        2 0.65187676E-01 0.12530515E+03</pdfrwt>
<pdfrwt beam="2">  1       -2 0.42797226E-02 0.12530515E+03</pdfrwt>
<totfact> 0.17365008E+04</totfact>
</mgrwt>
</event>
<event>
 7    1  0.5107591E-006  0.1592195E+03  0.7546771E-02  0.1197767E+00
         -1   -1    0    0    0  501 -0.00000000000E+00  0.00000000000E+00  0.29027714648E+03  0.29027714648E+03  0.00000000000E+00 0.  1.
          1   -1    0    0  501    0  0.00000000000E+00 -0.00000000000E+00 -0.73567792297E+02  0.73567792297E+02  0.00000000000E+00 0. -1.
         23    2    1    2    0    0  0.46965153686E+02 -0.86693057060E+02  0.96533856146E+02  0.16436313539E+03  0.89303096745E+02 0.  0.
          5    1    1    2  502    0 -0.31871215393E+02  0.93484686555E+02  0.23962036574E+02  0.10174197849E+03  0.47000000000E+01 0.  1.
         -5    1    1    2    0  502 -0.15093938293E+02 -0.67916294949E+01  0.96213461464E+02  0.97739824899E+02  0.47000000000E+01 0.  1.
        -11    1    3    3    0    0  0.52400657843E+02 -0.36683521041E+02  0.10669888486E+02  0.64848717633E+02  0.00000000000E+00 0. -1.
         11    1    3    3    0    0 -0.54355041569E+01 -0.50009536019E+02  0.85863967660E+02  0.99514417753E+02  0.00000000000E+00 0.  1.
<mgrwt>
<rscale>  0 0.15222392E+03</rscale>
<asrwt>0</asrwt>
<pdfrwt beam="2">  1        1 0.11318122E-01 0.15921947E+03</pdfrwt>
<pdfrwt beam="1">  1       -1 0.44658022E-01 0.15921947E+03</pdfrwt>
<totfact> 0.26758349E+03</totfact>
</mgrwt>
</event>
<event>
 7    1  0.5107591E-006  0.1275571E+03  0.7546771E-02  0.1246118E+00
          1   -1    0    0  501    0  0.00000000000E+00  0.00000000000E+00  0.16488937919E+03  0.16488937919E+03  0.00000000000E+00 0. -1.
         -1   -1    0    0    0  501 -0.00000000000E+00 -0.00000000000E+00 -0.75424248960E+02  0.75424248960E+02  0.00000000000E+00 0.  1.
         23    2    1    2    0    0 -0.25140015480E+02 -0.37933421493E+01  0.51680011979E+02  0.10727783644E+03  0.90505804949E+02 0.  0.
          5    1    1    2  502    0  0.69004806118E+02 -0.68064457020E+01  0.50508841740E+02  0.85914050448E+02  0.47000000000E+01 0.  1.
         -5    1    1    2    0  502 -0.43864790638E+02  0.10599787851E+02 -0.12723723491E+02  0.47121741264E+02  0.47000000000E+01 0.  1.
        -11    1    3    3    0    0  0.13142395109E+02 -0.35071292214E+02  0.24846729180E+01  0.37535205958E+02  0.00000000000E+00 0.  1.
         11    1    3    3    0    0 -0.38282410590E+02  0.31277950065E+02  0.49195339061E+02  0.69742630479E+02  0.00000000000E+00 0. -1.
<mgrwt>
<rscale>  0 0.11818732E+03</rscale>
<asrwt>0</asrwt>
<pdfrwt beam="1">  1        1 0.25367597E-01 0.12755707E+03</pdfrwt>
<pdfrwt beam="2">  1       -1 0.11603731E-01 0.12755707E+03</pdfrwt>
<totfact> 0.85249464E+03</totfact>
</mgrwt>
</event>
<event>
 7    1  0.5107591E-006  0.1371421E+03  0.7546771E-02  0.1229275E+00
         -1   -1    0    0    0  501 -0.00000000000E+00  0.00000000000E+00  0.24867759296E+03  0.24867759296E+03  0.00000000000E+00 0.  1.
          1   -1    0    0  501    0  0.00000000000E+00 -0.00000000000E+00 -0.59944562585E+02  0.59944562585E+02  0.00000000000E+00 0. -1.
         23    2    1    2    0    0  0.37547676630E+02  0.42111211369E+02  0.73738585373E+02  0.12964819451E+03  0.90488083328E+02 0.  0.
          5    1    1    2  502    0 -0.12282069345E+01 -0.20706532225E+02 -0.24924891464E+02  0.32765976005E+02  0.47000000000E+01 0. -1.
         -5    1    1    2    0  502 -0.36319469695E+02 -0.21404679145E+02  0.13991933647E+03  0.14620798503E+03  0.47000000000E+01 0. -1.
        -11    1    3    3    0    0  0.55669325903E+02  0.17584873797E+02  0.10329610826E+02  0.59287456454E+02  0.00000000000E+00 0. -1.
         11    1    3    3    0    0 -0.18121649273E+02  0.24526337573E+02  0.63408974548E+02  0.70360738060E+02  0.00000000000E+00 0.  1.
<mgrwt>
<rscale>  0 0.12878173E+03</rscale>
<asrwt>0</asrwt>
<pdfrwt beam="2">  1        1 0.92222406E-02 0.13714210E+03</pdfrwt>
<pdfrwt beam="1">  1       -1 0.38258090E-01 0.13714210E+03</pdfrwt>
<totfact> 0.45774977E+03</totfact>
</mgrwt>
</event>
<event>
 7    1  0.5107591E-006  0.3047795E+03  0.7546771E-02  0.1084617E+00
          1   -1    0    0  501    0  0.00000000000E+00  0.00000000000E+00  0.10779684519E+04  0.10779684519E+04  0.00000000000E+00 0. -1.
         -1   -1    0    0    0  501 -0.00000000000E+00 -0.00000000000E+00 -0.12301646134E+03  0.12301646134E+03  0.00000000000E+00 0.  1.
         23    2    1    2    0    0  0.27727409427E+03  0.19619317146E+02  0.81546988746E+03  0.86580469542E+03  0.85795059901E+02 0.  0.
          5    1    1    2  502    0 -0.40773058344E+02  0.43306869095E+02  0.21151820982E+02  0.63304160435E+02  0.47000000000E+01 0. -1.
         -5    1    1    2    0  502 -0.23650103592E+03 -0.62926186241E+02  0.11833028211E+03  0.27187605737E+03  0.47000000000E+01 0. -1.
        -11    1    3    3    0    0  0.20740657687E+03  0.50593311234E+02  0.56766416609E+03  0.60648147270E+03  0.00000000000E+00 0.  1.
         11    1    3    3    0    0  0.69867517399E+02 -0.30973994089E+02  0.24780572137E+03  0.25932322272E+03  0.00000000000E+00 0. -1.
<mgrwt>
<rscale>  0 0.30125042E+03</rscale>
<asrwt>0</asrwt>
<pdfrwt beam="1">  1        1 0.16584129E+00 0.30477946E+03</pdfrwt>
<pdfrwt beam="2">  1       -1 0.18925610E-01 0.30477946E+03</pdfrwt>
<totfact> 0.30974430E+02</totfact>
</mgrwt>
</event>
<event>
 7    1  0.5107591E-006  0.1470233E+03  0.7546771E-02  0.1213889E+00
          4   -1    0    0  501    0  0.00000000000E+00  0.00000000000E+00  0.73900307678E+03  0.73900307678E+03  0.00000000000E+00 0. -1.
         -4   -1    0    0    0  501 -0.00000000000E+00 -0.00000000000E+00 -0.24022514902E+02  0.24022514902E+02  0.00000000000E+00 0.  1.
         23    2    1    2    0    0 -0.77379673624E+02 -0.16694119614E+01  0.31837727731E+03  0.34004804221E+03  0.90984501306E+02 0.  0.
          5    1    1    2  502    0  0.77103641603E+02  0.14869273968E+02  0.40072216855E+03  0.40837043628E+03  0.47000000000E+01 0.  1.
         -5    1    1    2    0  502  0.27603202097E+00 -0.13199862007E+02 -0.41188839806E+01  0.14607113196E+02  0.47000000000E+01 0.  1.
        -11    1    3    3    0    0  0.15316946602E+02 -0.22678065919E+01  0.10990830880E+02  0.18988158504E+02  0.00000000000E+00 0.  1.
         11    1    3    3    0    0 -0.92696620226E+02  0.59839463056E+00  0.30738644643E+03  0.32105988371E+03  0.00000000000E+00 0. -1.
<mgrwt>
<rscale>  0 0.13958449E+03</rscale>
<asrwt>0</asrwt>
<pdfrwt beam="1">  1        4 0.11369276E+00 0.14702327E+03</pdfrwt>
<pdfrwt beam="2">  1       -4 0.36957721E-02 0.14702327E+03</pdfrwt>
<totfact> 0.41398892E+02</totfact>
</mgrwt>
</event>
<event>
 7    1  0.5107591E-006  0.1308324E+03  0.7546771E-02  0.1238723E+00
         -2   -1    0    0    0  501 -0.00000000000E+00  0.00000000000E+00  0.84122745283E+02  0.84122745283E+02  0.00000000000E+00 0.  1.
          2   -1    0    0  501    0  0.00000000000E+00 -0.00000000000E+00 -0.16680342494E+03  0.16680342494E+03  0.00000000000E+00 0. -1.
         23    2    1    2    0    0 -0.15112597096E+02 -0.35530903360E+02 -0.11090664679E+02  0.10178785023E+03  0.93525012301E+02 0.  0.
          5    1    1    2  502    0  0.39071468854E+02 -0.12516251020E+02 -0.84205787794E+02  0.93786677711E+02  0.47000000000E+01 0. -1.
         -5    1    1    2    0  502 -0.23958871758E+02  0.48047154379E+02  0.12615772819E+02  0.55351642285E+02  0.47000000000E+01 0. -1.
        -11    1    3    3    0    0 -0.16211577018E+02  0.14176891812E+02  0.30245332544E+02  0.37129228804E+02  0.00000000000E+00 0.  1.
         11    1    3    3    0    0  0.10989799223E+01 -0.49707795172E+02 -0.41335997223E+02  0.64658621422E+02  0.00000000000E+00 0. -1.
<mgrwt>
<rscale>  0 0.12269081E+03</rscale>
<asrwt>0</asrwt>
<pdfrwt beam="2">  1        2 0.25662065E-01 0.13083237E+03</pdfrwt>
<pdfrwt beam="1">  1       -2 0.12941961E-01 0.13083237E+03</pdfrwt>
<totfact> 0.85975556E+03</totfact>
</mgrwt>
</event>
<event>
 7    1  0.5107591E-006  0.1433771E+03  0.7546771E-02  0.1217276E+00
          3   -1    0    0  501    0  0.00000000000E+00  0.00000000000E+00  0.22607384259E+02  0.22607384259E+02  0.00000000000E+00 0. -1.
         -3   -1    0    0    0  501 -0.00000000000E+00 -0.00000000000E+00 -0.96259055708E+03  0.96259055708E+03  0.00000000000E+00 0.  1.
         23    2    1    2    0    0  0.67725961315E+02 -0.18589653126E+02 -0.21496704202E+03  0.24614085778E+03  0.97170528838E+02 0.  0.
          5    1    1    2  502    0  0.17591252507E+02  0.24553144879E+02 -0.49824368233E+02  0.58453971277E+02  0.47000000000E+01 0. -1.
         -5    1    1    2    0  502 -0.85317213823E+02 -0.59634917526E+01 -0.67519176257E+03  0.68060311229E+03  0.47000000000E+01 0. -1.
        -11    1    3    3    0    0  0.57197136888E+02  0.17728743503E+02 -0.53482918126E+02  0.80288500706E+02  0.00000000000E+00 0. -1.
         11    1    3    3    0    0  0.10528824428E+02 -0.36318396629E+02 -0.16148412389E+03  0.16585235707E+03  0.00000000000E+00 0.  1.
<mgrwt>
<rscale>  0 0.13710675E+03</rscale>
<asrwt>0</asrwt>
<pdfrwt beam="1">  1        3 0.34780598E-02 0.14337707E+03</pdfrwt>
<pdfrwt beam="2">  1       -3 0.14809082E+00 0.14337707E+03</pdfrwt>
<totfact> 0.33606678E+02</totfact>
</mgrwt>
</event>
<event>
 7    1  0.5107591E-006  0.1261376E+03  0.7546771E-02  0.1251096E+00
          3   -1    0    0  501    0  0.00000000000E+00  0.00000000000E+00  0.10705074162E+03  0.10705074162E+03  0.00000000000E+00 0. -1.
         -3   -1    0    0    0  501 -0.00000000000E+00 -0.00000000000E+00 -0.11336395819E+03  0.11336395819E+03  0.00000000000E+00 0.  1.
         23    2    1    2    0    0  0.70481193235E+01  0.15386445684E+02  0.22925729294E+02  0.90932657829E+02  0.86352420345E+02 0.  0.
          5    1    1    2  502    0  0.53095967160E+01  0.28440810982E+02 -0.65057883030E+02  0.71356076762E+02  0.47000000000E+01 0.  1.
         -5    1    1    2    0  502 -0.12357716040E+02 -0.43827256666E+02  0.35818937163E+02  0.58125965214E+02  0.47000000000E+01 0.  1.
        -11    1    3    3    0    0  0.88980242380E+01  0.50855417573E+01  0.55644688525E+02  0.56580640959E+02  0.00000000000E+00 0. -1.
         11    1    3    3    0    0 -0.18499049144E+01  0.10300903926E+02 -0.32718959231E+02  0.34352016870E+02  0.00000000000E+00 0.  1.
<mgrwt>
<rscale>  0 0.11527844E+03</rscale>
<asrwt>0</asrwt>
<pdfrwt beam="1">  1        3 0.16469345E-01 0.12613756E+03</pdfrwt>
<pdfrwt beam="2">  1       -3 0.17440609E-01 0.12613756E+03</pdfrwt>
<totfact> 0.20403473E+03</totfact>
</mgrwt>
</event>
<event>
 7    1  0.5107591E-006  0.1339180E+03  0.7546771E-02  0.1234051E+00
          2   -1    0    0  501    0  0.00000000000E+00  0.00000000000E+00  0.34382919658E+03  0.34382919658E+03  0.00000000000E+00 0. -1.
         -2   -1    0    0    0  501 -0.00000000000E+00 -0.00000000000E+00 -0.41217398622E+02  0.41217398622E+02  0.00000000000E+00 0.  1.
         23    2    1    2    0    0  0.13611199723E+02  0.46089641587E+02  0.12147906667E+03  0.15978428351E+03  0.92001814109E+02 0.  0.
          5    1    1    2  502    0  0.32129936796E+02 -0.56198088792E+02  0.39429966459E+02  0.75943204286E+02  0.47000000000E+01 0.  1.
         -5    1    1    2    0  502 -0.45741136519E+02  0.10108447205E+02  0.14170276483E+03  0.14931910740E+03  0.47000000000E+01 0.  1.
        -11    1    3    3    0    0 -0.11012087863E+02  0.29033885459E+02  0.12575067214E+03  0.12952785078E+03  0.00000000000E+00 0. -1.
         11    1    3    3    0    0  0.24623287587E+02  0.17055756128E+02 -0.42716054672E+01  0.30256432736E+02  0.00000000000E+00 0.  1.
<mgrwt>
<rscale>  0 0.12565382E+03</rscale>
<asrwt>0</asrwt>
<pdfrwt beam="1">  1        2 0.52896797E-01 0.13391804E+03</pdfrwt>
<pdfrwt beam="2">  1       -2 0.63411385E-02 0.13391804E+03</pdfrwt>
<totfact> 0.12078916E+04</totfact>
</mgrwt>
</event>
<event>
 7    1  0.5107591E-006  0.2645192E+03  0.7546771E-02  0.1106490E+00
         -2   -1    0    0    0  501 -0.00000000000E+00  0.00000000000E+00  0.31564726725E+03  0.31564726725E+03  0.00000000000E+00 0. -1.
          2   -1    0    0  501    0  0.00000000000E+00 -0.00000000000E+00 -0.26501816054E+03  0.26501816054E+03  0.00000000000E+00 0.  1.
         23    2    1    2    0    0 -0.22993293494E+03  0.38414833774E+02 -0.10680276247E+03  0.27284207623E+03  0.93226146903E+02 0.  0.
          5    1    1    2  502    0  0.17120237869E+03  0.34838920622E+01  0.50218785776E+02  0.17851164785E+03  0.47000000000E+01 0.  1.
         -5    1    1    2    0  502  0.58730556249E+02 -0.41898725836E+02  0.10721308340E+03  0.12931170371E+03  0.47000000000E+01 0.  1.
        -11    1    3    3    0    0 -0.16253928794E+03  0.24970850546E+02 -0.25541045392E+02  0.16641787314E+03  0.00000000000E+00 0. -1.
         11    1    3    3    0    0 -0.67393647003E+02  0.13443983228E+02 -0.81261717076E+02  0.10642420309E+03  0.00000000000E+00 0.  1.
<mgrwt>
<rscale>  0 0.26109075E+03</rscale>
<asrwt>0</asrwt>
<pdfrwt beam="2">  1        2 0.40772025E-01 0.26451923E+03</pdfrwt>
<pdfrwt beam="1">  1       -2 0.48561118E-01 0.26451923E+03</pdfrwt>
<totfact> 0.51168127E+02</totfact>
</mgrwt>
</event>
<event>
 7    1  0.5107591E-006  0.1277932E+03  0.7546771E-02  0.1247477E+00
         -1   -1    0    0    0  501 -0.00000000000E+00  0.00000000000E+00  0.10875513326E+03  0.10875513326E+03  0.00000000000E+00 0.  1.
          1   -1    0    0  501    0  0.00000000000E+00 -0.00000000000E+00 -0.16048213295E+03  0.16048213295E+03  0.00000000000E+00 0. -1.
         23    2    1    2    0    0 -0.22495820616E+02 -0.14148492518E+02 -0.97635077913E+02  0.13344828422E+03  0.87003415656E+02 0.  0.
          5    1    1    2  502    0  0.41196497684E+02 -0.24763469534E+01 -0.32888526055E+02  0.52981401092E+02  0.47000000000E+01 0. -1.
         -5    1    1    2    0  502 -0.18700677068E+02  0.16624839472E+02  0.78796604274E+02  0.82807580905E+02  0.47000000000E+01 0. -1.
        -11    1    3    3    0    0 -0.27940363584E+02  0.32998822728E+02 -0.51711632255E+02  0.67406818121E+02  0.00000000000E+00 0. -1.
         11    1    3    3    0    0  0.54445429677E+01 -0.47147315247E+02 -0.45923445658E+02  0.66041466097E+02  0.00000000000E+00 0.  1.
<mgrwt>
<rscale>  0 0.11738355E+03</rscale>
<asrwt>0</asrwt>
<pdfrwt beam="2">  1        1 0.24689559E-01 0.12779318E+03</pdfrwt>
<pdfrwt beam="1">  1       -1 0.16731559E-01 0.12779318E+03</pdfrwt>
<totfact> 0.49898339E+03</totfact>
</mgrwt>
</event>
<event>
 7    1  0.5107591E-006  0.1570178E+03  0.7546771E-02  0.1199896E+00
          2   -1    0    0  501    0  0.00000000000E+00  0.00000000000E+00  0.30906995281E+02  0.30906995281E+02  0.00000000000E+00 0. -1.
         -2   -1    0    0    0  501 -0.00000000000E+00 -0.00000000000E+00 -0.91597290277E+03  0.91597290277E+03  0.00000000000E+00 0.  1.
         23    2    1    2    0    0  0.82035008414E+02  0.47975346433E+02 -0.17386264968E+03  0.21854984376E+03  0.92219503257E+02 0.  0.
          5    1    1    2  502    0 -0.97019485040E+02 -0.76576561353E+02 -0.58889434025E+03  0.60174362000E+03  0.47000000000E+01 0. -1.
         -5    1    1    2    0  502  0.14984476626E+02  0.28601214920E+02 -0.12230891755E+03  0.12658643429E+03  0.47000000000E+01 0. -1.
        -11    1    3    3    0    0  0.35848054826E+02  0.41126562492E+02 -0.20573729577E+02  0.58307422563E+02  0.00000000000E+00 0. -1.
         11    1    3    3    0    0  0.46186953587E+02  0.68487839412E+01 -0.15328892011E+03  0.16024242120E+03  0.00000000000E+00 0.  1.
<mgrwt>
<rscale>  0 0.15047087E+03</rscale>
<asrwt>0</asrwt>
<pdfrwt beam="1">  1        2 0.47549233E-02 0.15701781E+03</pdfrwt>
<pdfrwt beam="2">  1       -2 0.14091888E+00 0.15701781E+03</pdfrwt>
<totfact> 0.61474545E+02</totfact>
</mgrwt>
</event>
<event>
 7    1  0.5107591E-006  0.1273527E+03  0.7546771E-02  0.1247098E+00
          1   -1    0    0  501    0  0.00000000000E+00  0.00000000000E+00  0.16372919803E+03  0.16372919803E+03  0.00000000000E+00 0. -1.
         -1   -1    0    0    0  501 -0.00000000000E+00 -0.00000000000E+00 -0.14411633754E+03  0.14411633754E+03  0.00000000000E+00 0.  1.
         23    2    1    2    0    0  0.87919649316E+01  0.22751699856E+02  0.11577553812E+03  0.14826496410E+03  0.89350914151E+02 0.  0.
          5    1    1    2  502    0 -0.23520274978E+02 -0.43372489157E+02 -0.11659449670E+03  0.12669152620E+03  0.47000000000E+01 0. -1.
         -5    1    1    2    0  502  0.14728310047E+02  0.20620789301E+02  0.20431819066E+02  0.32889045267E+02  0.47000000000E+01 0. -1.
        -11    1    3    3    0    0 -0.24031473691E+02  0.36200361498E+02  0.10079125851E+03  0.10975816914E+03  0.00000000000E+00 0. -1.
         11    1    3    3    0    0  0.32823438623E+02 -0.13448661643E+02  0.14984279608E+02  0.38506794964E+02  0.00000000000E+00 0.  1.
<mgrwt>
<rscale>  0 0.11760684E+03</rscale>
<asrwt>0</asrwt>
<pdfrwt beam="1">  1        1 0.25189107E-01 0.12735265E+03</pdfrwt>
<pdfrwt beam="2">  1       -1 0.22171744E-01 0.12735265E+03</pdfrwt>
<totfact> 0.31027824E+03</totfact>
</mgrwt>
</event>
<event>
 7    1  0.5107591E-006  0.1253831E+03  0.7546771E-02  0.1253511E+00
          1   -1    0    0  501    0  0.00000000000E+00  0.00000000000E+00  0.16367844788E+03  0.16367844788E+03  0.00000000000E+00 0. -1.
         -1   -1    0    0    0  501 -0.00000000000E+00 -0.00000000000E+00 -0.77362803462E+02  0.77362803462E+02  0.00000000000E+00 0.  1.
         23    2    1    2    0    0 -0.36392927730E+01 -0.90677614113E+01  0.77556333847E+02  0.11535259960E+03  0.84827876115E+02 0.  0.
          5    1    1    2  502    0 -0.21918461916E+02 -0.13637744229E+02  0.59095820931E+02  0.64659207326E+02  0.47000000000E+01 0.  1.
         -5    1    1    2    0  502  0.25557754689E+02  0.22705505640E+02 -0.50336510356E+02  0.61029444418E+02  0.47000000000E+01 0.  1.
        -11    1    3    3    0    0  0.30202393865E+02  0.17923090871E+02  0.58109397360E+02  0.67897892773E+02  0.00000000000E+00 0. -1.
         11    1    3    3    0    0 -0.33841686638E+02 -0.26990852283E+02  0.19446936487E+02  0.47454706828E+02  0.00000000000E+00 0.  1.
<mgrwt>
<rscale>  0 0.11390146E+03</rscale>
<asrwt>0</asrwt>
<pdfrwt beam="1">  1        1 0.25181300E-01 0.12538306E+03</pdfrwt>
<pdfrwt beam="2">  1       -1 0.11901970E-01 0.12538306E+03</pdfrwt>
<totfact> 0.82635999E+03</totfact>
</mgrwt>
</event>
<event>
 7    1  0.5107591E-006  0.1289792E+03  0.7546771E-02  0.1243320E+00
         -1   -1    0    0    0  501 -0.00000000000E+00  0.00000000000E+00  0.18584709758E+03  0.18584709758E+03  0.00000000000E+00 0.  1.
          1   -1    0    0  501    0  0.00000000000E+00 -0.00000000000E+00 -0.68432185914E+02  0.68432185914E+02  0.00000000000E+00 0. -1.
         23    2    1    2    0    0 -0.15978407747E+02 -0.27492703852E+02  0.43088506840E+02  0.10541680818E+03  0.90801573473E+02 0.  0.
          5    1    1    2  502    0  0.12563090860E+01 -0.12044276169E+02 -0.31913404805E+02  0.34455744183E+02  0.47000000000E+01 0. -1.
         -5    1    1    2    0  502  0.14722098661E+02  0.39536980021E+02  0.10623980963E+03  0.11440673113E+03  0.47000000000E+01 0. -1.
        -11    1    3    3    0    0 -0.82773370285E+01 -0.59439561352E+02  0.40608914081E+02  0.72461435708E+02  0.00000000000E+00 0.  1.
         11    1    3    3    0    0 -0.77010707181E+01  0.31946857500E+02  0.24795927591E+01  0.32955372469E+02  0.00000000000E+00 0. -1.
<mgrwt>
<rscale>  0 0.11986518E+03</rscale>
<asrwt>0</asrwt>
<pdfrwt beam="2">  1        1 0.10528029E-01 0.12897915E+03</pdfrwt>
<pdfrwt beam="1">  1       -1 0.28591861E-01 0.12897915E+03</pdfrwt>
<totfact> 0.62780369E+03</totfact>
</mgrwt>
</event>
<event>
 7    1  0.5107591E-006  0.1472781E+03  0.7546771E-02  0.1224995E+00
         -1   -1    0    0    0  501 -0.00000000000E+00  0.00000000000E+00  0.16899196283E+03  0.16899196283E+03  0.00000000000E+00 0.  1.
          1   -1    0    0  501    0  0.00000000000E+00 -0.00000000000E+00 -0.13545177293E+03  0.13545177293E+03  0.00000000000E+00 0. -1.
         23    2    1    2    0    0 -0.21281428952E+02  0.18825438604E+02 -0.75952593494E+02  0.12092398465E+03  0.89702381508E+02 0.  0.
          5    1    1    2  502    0  0.79006083265E+02  0.26784257980E+00  0.33142881717E+02  0.85805440043E+02  0.47000000000E+01 0. -1.
         -5    1    1    2    0  502 -0.57724654313E+02 -0.19093281183E+02  0.76349901679E+02  0.97714311072E+02  0.47000000000E+01 0.  1.
        -11    1    3    3    0    0 -0.38058768637E+02  0.46639897848E+02 -0.58974580649E+02  0.84271887983E+02  0.00000000000E+00 0.  1.
         11    1    3    3    0    0  0.16777339684E+02 -0.27814459245E+02 -0.16978012845E+02  0.36652096668E+02  0.00000000000E+00 0. -1.
<mgrwt>
<rscale>  0 0.13167243E+03</rscale>
<asrwt>0</asrwt>
<pdfrwt beam="2">  1        1 0.20838734E-01 0.14727807E+03</pdfrwt>
<pdfrwt beam="1">  1       -1 0.25998764E-01 0.14727807E+03</pdfrwt>
<totfact> 0.30590783E+03</totfact>
</mgrwt>
</event>
<event>
 7    1  0.5107591E-006  0.1472463E+03  0.7546771E-02  0.1213844E+00
         -2   -1    0    0    0  501 -0.00000000000E+00  0.00000000000E+00  0.74137473171E+02  0.74137473171E+02  0.00000000000E+00 0.  1.
          2   -1    0    0  501    0  0.00000000000E+00 -0.00000000000E+00 -0.23930501554E+03  0.23930501554E+03  0.00000000000E+00 0. -1.
         23    2    1    2    0    0 -0.49703692447E+02  0.59876410506E+02 -0.78592977419E+02  0.14263082492E+03  0.90061393178E+02 0.  0.
          5    1    1    2  502    0 -0.19006815122E+01 -0.81316404864E+02 -0.20242423767E+02  0.83951271641E+02  0.47000000000E+01 0. -1.
         -5    1    1    2    0  502  0.51604373959E+02  0.21439994358E+02 -0.66332141184E+02  0.86860392146E+02  0.47000000000E+01 0. -1.
        -11    1    3    3    0    0 -0.35115376786E+02  0.80107297584E+02 -0.38841538621E+02  0.95702319384E+02  0.00000000000E+00 0.  1.
         11    1    3    3    0    0 -0.14588315661E+02 -0.20230887078E+02 -0.39751438798E+02  0.46928505540E+02  0.00000000000E+00 0. -1.
<mgrwt>
<rscale>  0 0.13961814E+03</rscale>
<asrwt>0</asrwt>
<pdfrwt beam="2">  1        2 0.36816157E-01 0.14724629E+03</pdfrwt>
<pdfrwt beam="1">  1       -2 0.11405765E-01 0.14724629E+03</pdfrwt>
<totfact> 0.71789150E+03</totfact>
</mgrwt>
</event>
<event>
 7    1  0.5107591E-006  0.1301798E+03  0.7546771E-02  0.1242308E+00
          1   -1    0    0  501    0  0.00000000000E+00  0.00000000000E+00  0.15603240212E+03  0.15603240212E+03  0.00000000000E+00 0.  1.
         -1   -1    0    0    0  501 -0.00000000000E+00 -0.00000000000E+00 -0.89029401795E+02  0.89029401795E+02  0.00000000000E+00 0. -1.
         23    2    1    2    0    0  0.61599872491E+01 -0.35841765925E+02  0.63777517665E+02  0.11484207251E+03  0.88309411908E+02 0.  0.
          5    1    1    2  502    0 -0.54550478135E+02  0.53959445742E+02  0.11339209508E+02  0.77704852627E+02  0.47000000000E+01 0. -1.
         -5    1    1    2    0  502  0.48390490886E+02 -0.18117679818E+02 -0.81137268435E+01  0.52514878782E+02  0.47000000000E+01 0. -1.
        -11    1    3    3    0    0  0.28056967571E+02 -0.29422609503E+01 -0.10987154371E+02  0.30274872253E+02  0.00000000000E+00 0. -1.
         11    1    3    3    0    0 -0.21896980322E+02 -0.32899504974E+02  0.74764672036E+02  0.84567200257E+02  0.00000000000E+00 0.  1.
<mgrwt>
<rscale>  0 0.12047966E+03</rscale>
<asrwt>0</asrwt>
<pdfrwt beam="1">  1        1 0.24004985E-01 0.13017978E+03</pdfrwt>
<pdfrwt beam="2">  1       -1 0.13696831E-01 0.13017978E+03</pdfrwt>
<totfact> 0.70809709E+03</totfact>
</mgrwt>
</event>
<event>
 7    1  0.5107591E-006  0.1268496E+03  0.7546771E-02  0.1247132E+00
          1   -1    0    0  501    0  0.00000000000E+00  0.00000000000E+00  0.64342895541E+03  0.64342895541E+03  0.00000000000E+00 0. -1.
         -1   -1    0    0    0  501 -0.00000000000E+00 -0.00000000000E+00 -0.22323075681E+02  0.22323075681E+02  0.00000000000E+00 0.  1.
         23    2    1    2    0    0  0.20660252539E+02 -0.60149661388E+01  0.40021966909E+03  0.41103347235E+03  0.91157588890E+02 0.  0.
          5    1    1    2  502    0 -0.89749998558E+01 -0.51177051122E+02  0.16763416005E+03  0.17556463995E+03  0.47000000000E+01 0. -1.
         -5    1    1    2    0  502 -0.11685252683E+02  0.57192017261E+02  0.53252050585E+02  0.79153918792E+02  0.47000000000E+01 0. -1.
        -11    1    3    3    0    0 -0.35128369723E+02 -0.12876945466E+02  0.16583101558E+03  0.16999924651E+03  0.00000000000E+00 0.  1.
         11    1    3    3    0    0  0.55788622262E+02  0.68619793275E+01  0.23438865351E+03  0.24103422585E+03  0.00000000000E+00 0. -1.
<mgrwt>
<rscale>  0 0.11758684E+03</rscale>
<asrwt>0</asrwt>
<pdfrwt beam="1">  1        1 0.98989056E-01 0.12684962E+03</pdfrwt>
<pdfrwt beam="2">  1       -1 0.34343198E-02 0.12684962E+03</pdfrwt>
<totfact> 0.93726300E+03</totfact>
</mgrwt>
</event>
<event>
 7    1  0.5107591E-006  0.1344790E+03  0.7546771E-02  0.1233535E+00
          1   -1    0    0  501    0  0.00000000000E+00  0.00000000000E+00  0.33366961046E+03  0.33366961046E+03  0.00000000000E+00 0. -1.
         -1   -1    0    0    0  501 -0.00000000000E+00 -0.00000000000E+00 -0.42476645018E+02  0.42476645018E+02  0.00000000000E+00 0.  1.
         23    2    1    2    0    0  0.47831326269E+02  0.13109261819E+02  0.12381083889E+03  0.16143397240E+03  0.90951168763E+02 0.  0.
          5    1    1    2  502    0 -0.76849723032E+02 -0.34539216666E+02  0.15464128921E+03  0.17616712447E+03  0.47000000000E+01 0.  1.
         -5    1    1    2    0  502  0.29018396763E+02  0.21429954848E+02  0.12740837339E+02  0.38545158601E+02  0.47000000000E+01 0.  1.
        -11    1    3    3    0    0  0.65457314501E+02  0.15828257201E+02  0.45876991689E+02  0.81485533158E+02  0.00000000000E+00 0.  1.
         11    1    3    3    0    0 -0.17625988232E+02 -0.27189953822E+01  0.77933847205E+02  0.79948439242E+02  0.00000000000E+00 0. -1.
<mgrwt>
<rscale>  0 0.12598674E+03</rscale>
<asrwt>0</asrwt>
<pdfrwt beam="1">  1        1 0.51333785E-01 0.13447895E+03</pdfrwt>
<pdfrwt beam="2">  1       -1 0.65348687E-02 0.13447895E+03</pdfrwt>
<totfact> 0.85219893E+03</totfact>
</mgrwt>
</event>
<event>
 7    1  0.5107591E-006  0.1333227E+03  0.7546771E-02  0.1236401E+00
         -1   -1    0    0    0  501 -0.00000000000E+00  0.00000000000E+00  0.22963310639E+03  0.22963310639E+03  0.00000000000E+00 0.  1.
          1   -1    0    0  501    0  0.00000000000E+00 -0.00000000000E+00 -0.68413145384E+02  0.68413145384E+02  0.00000000000E+00 0. -1.
         23    2    1    2    0    0 -0.90934557070E+01 -0.45465946471E+02  0.17074581548E+02  0.10169751479E+03  0.88887569180E+02 0.  0.
          5    1    1    2  502    0  0.30081752134E+02  0.80439527689E+02  0.67252339771E+02  0.10918056893E+03  0.47000000000E+01 0.  1.
         -5    1    1    2    0  502 -0.20988296427E+02 -0.34973581217E+02  0.76893039687E+02  0.87168168057E+02  0.47000000000E+01 0.  1.
        -11    1    3    3    0    0  0.89460447856E+01  0.25399564842E+02  0.17664216293E+01  0.26986845997E+02  0.00000000000E+00 0.  1.
         11    1    3    3    0    0 -0.18039500493E+02 -0.70865511314E+02  0.15308159919E+02  0.74710668796E+02  0.00000000000E+00 0. -1.
<mgrwt>
<rscale>  0 0.12415189E+03</rscale>
<asrwt>0</asrwt>
<pdfrwt beam="2">  1        1 0.10525099E-01 0.13332268E+03</pdfrwt>
<pdfrwt beam="1">  1       -1 0.35328170E-01 0.13332268E+03</pdfrwt>
<totfact> 0.44009514E+03</totfact>
</mgrwt>
</event>
<event>
 7    1  0.5107591E-006  0.1347485E+03  0.7546771E-02  0.1232908E+00
         -1   -1    0    0    0  501 -0.00000000000E+00  0.00000000000E+00  0.22801152128E+03  0.22801152128E+03  0.00000000000E+00 0.  1.
          1   -1    0    0  501    0  0.00000000000E+00 -0.00000000000E+00 -0.10912345216E+03  0.10912345216E+03  0.00000000000E+00 0. -1.
         23    2    1    2    0    0  0.25140115097E+02 -0.43594245420E+02 -0.54384332093E+02  0.11763442913E+03  0.91365856418E+02 0.  0.
          5    1    1    2  502    0  0.29733937865E+02 -0.26206255517E+02  0.86498598387E+02  0.95262649617E+02  0.47000000000E+01 0. -1.
         -5    1    1    2    0  502 -0.54874052962E+02  0.69800500937E+02  0.86773802824E+02  0.12423789469E+03  0.47000000000E+01 0. -1.
        -11    1    3    3    0    0 -0.17260312390E+02 -0.21535814799E+02  0.16490116126E+02  0.32150173136E+02  0.00000000000E+00 0.  1.
         11    1    3    3    0    0  0.42400427487E+02 -0.22058430622E+02 -0.70874448219E+02  0.85484255995E+02  0.00000000000E+00 0. -1.
<mgrwt>
<rscale>  0 0.12639289E+03</rscale>
<asrwt>0</asrwt>
<pdfrwt beam="2">  1        1 0.16788224E-01 0.13474852E+03</pdfrwt>
<pdfrwt beam="1">  1       -1 0.35078695E-01 0.13474852E+03</pdfrwt>
<totfact> 0.24252768E+03</totfact>
</mgrwt>
</event>
<event>
 7    1  0.5107591E-006  0.1435939E+03  0.7546771E-02  0.1218011E+00
          2   -1    0    0  501    0  0.00000000000E+00  0.00000000000E+00  0.12030580254E+03  0.12030580254E+03  0.00000000000E+00 0. -1.
         -2   -1    0    0    0  501 -0.00000000000E+00 -0.00000000000E+00 -0.14497012794E+03  0.14497012794E+03  0.00000000000E+00 0.  1.
         23    2    1    2    0    0  0.71108570164E+01  0.69781988092E+02  0.87614354810E+01  0.11784297266E+03  0.94287397376E+02 0.  0.
          5    1    1    2  502    0 -0.45169869983E+01  0.21455429524E+02 -0.49769571490E+02  0.54587900435E+02  0.47000000000E+01 0.  1.
         -5    1    1    2    0  502 -0.25938700181E+01 -0.91237417616E+02  0.16343810607E+02  0.92845057381E+02  0.47000000000E+01 0.  1.
        -11    1    3    3    0    0  0.28848376879E+01  0.51394359254E+02 -0.40238420379E+02  0.65336306341E+02  0.00000000000E+00 0.  1.
         11    1    3    3    0    0  0.42260193285E+01  0.18387628838E+02  0.48999855860E+02  0.52506666319E+02  0.00000000000E+00 0. -1.
<mgrwt>
<rscale>  0 0.13657679E+03</rscale>
<asrwt>0</asrwt>
<pdfrwt beam="1">  1        2 0.18508585E-01 0.14359386E+03</pdfrwt>
<pdfrwt beam="2">  1       -2 0.22303097E-01 0.14359386E+03</pdfrwt>
<totfact> 0.50564583E+03</totfact>
</mgrwt>
</event>
<event>
 7    1  0.5107591E-006  0.1545542E+03  0.7546771E-02  0.1203183E+00
         -3   -1    0    0    0  501 -0.00000000000E+00  0.00000000000E+00  0.93162320890E+02  0.93162320890E+02  0.00000000000E+00 0.  1.
          3   -1    0    0  501    0  0.00000000000E+00 -0.00000000000E+00 -0.22656108862E+03  0.22656108862E+03  0.00000000000E+00 0. -1.
         23    2    1    2    0    0 -0.66252137013E+02 -0.62228472192E+02 -0.95036476452E+02  0.16047933399E+03  0.91978021127E+02 0.  0.
          5    1    1    2  502    0  0.47909770876E+01  0.87590577212E+02 -0.19753543270E+02  0.90040852670E+02  0.47000000000E+01 0.  1.
         -5    1    1    2    0  502  0.61461159926E+02 -0.25362105021E+02 -0.18608748006E+02  0.69203222850E+02  0.47000000000E+01 0.  1.
        -11    1    3    3    0    0 -0.14139970615E+02  0.23969915732E+02 -0.13731432604E+02  0.31033012592E+02  0.00000000000E+00 0.  1.
         11    1    3    3    0    0 -0.52112166398E+02 -0.86198387924E+02 -0.81305043848E+02  0.12944632139E+03  0.00000000000E+00 0. -1.
<mgrwt>
<rscale>  0 0.14781574E+03</rscale>
<asrwt>0</asrwt>
<pdfrwt beam="2">  1        3 0.34855552E-01 0.15455423E+03</pdfrwt>
<pdfrwt beam="1">  1       -3 0.14332665E-01 0.15455423E+03</pdfrwt>
<totfact> 0.76563758E+02</totfact>
</mgrwt>
</event>
<event>
 7    1  0.5107591E-006  0.1716502E+03  0.7546771E-02  0.1182917E+00
          2   -1    0    0  501    0  0.00000000000E+00  0.00000000000E+00  0.59673035677E+03  0.59673035677E+03  0.00000000000E+00 0. -1.
         -2   -1    0    0    0  501 -0.00000000000E+00 -0.00000000000E+00 -0.42637784982E+02  0.42637784982E+02  0.00000000000E+00 0.  1.
         23    2    1    2    0    0  0.11759204746E+03  0.35475435328E+01  0.25598592044E+03  0.29537488248E+03  0.88752774843E+02 0.  0.
          5    1    1    2  502    0 -0.10733782925E+03  0.22107947232E+02  0.11564833974E+03  0.15939510470E+03  0.47000000000E+01 0. -1.
         -5    1    1    2    0  502 -0.10254218215E+02 -0.25655490765E+02  0.18245831161E+03  0.18459815458E+03  0.47000000000E+01 0. -1.
        -11    1    3    3    0    0  0.11711978175E+03 -0.14752033073E+02  0.16689416570E+03  0.20442193694E+03  0.00000000000E+00 0. -1.
         11    1    3    3    0    0  0.47226570880E+00  0.18299576606E+02  0.89091754742E+02  0.90952945537E+02  0.00000000000E+00 0.  1.
<mgrwt>
<rscale>  0 0.16522833E+03</rscale>
<asrwt>0</asrwt>
<pdfrwt beam="1">  1        2 0.91804665E-01 0.17165019E+03</pdfrwt>
<pdfrwt beam="2">  1       -2 0.65596596E-02 0.17165019E+03</pdfrwt>
<totfact> 0.63805618E+03</totfact>
</mgrwt>
</event>
<event>
 7    1  0.5107591E-006  0.1120470E+03  0.7546771E-02  0.1265427E+00
         -1   -1    0    0    0  501 -0.00000000000E+00  0.00000000000E+00  0.42250227692E+02  0.42250227692E+02  0.00000000000E+00 0.  1.
          1   -1    0    0  501    0  0.00000000000E+00 -0.00000000000E+00 -0.42629295217E+03  0.42629295217E+03  0.00000000000E+00 0. -1.
         23    2    1    2    0    0  0.15241765612E+02  0.12979537825E+02 -0.33157691000E+03  0.34482090137E+03  0.92506361705E+02 0.  0.
          5    1    1    2  502    0  0.12753838819E+02 -0.51533464569E+02 -0.53931347490E+02  0.75822415006E+02  0.47000000000E+01 0. -1.
         -5    1    1    2    0  502 -0.27995604430E+02  0.38553926744E+02  0.14655330145E+01  0.47899863485E+02  0.47000000000E+01 0.  1.
        -11    1    3    3    0    0 -0.52535673394E+01  0.49060857443E+02 -0.13071615021E+03  0.13971857296E+03  0.00000000000E+00 0.  1.
         11    1    3    3    0    0  0.20495332951E+02 -0.36081319618E+02 -0.20086075979E+03  0.20510232842E+03  0.00000000000E+00 0. -1.
<mgrwt>
<rscale>  0 0.10741822E+03</rscale>
<asrwt>0</asrwt>
<pdfrwt beam="2">  1        1 0.65583533E-01 0.11204705E+03</pdfrwt>
<pdfrwt beam="1">  1       -1 0.65000349E-02 0.11204705E+03</pdfrwt>
<totfact> 0.62457904E+03</totfact>
</mgrwt>
</event>
<event>
 7    1  0.5107591E-006  0.1602828E+03  0.7546771E-02  0.1196592E+00
          2   -1    0    0  501    0  0.00000000000E+00  0.00000000000E+00  0.26561356631E+03  0.26561356631E+03  0.00000000000E+00 0. -1.
         -2   -1    0    0    0  501 -0.00000000000E+00 -0.00000000000E+00 -0.82535361893E+02  0.82535361893E+02  0.00000000000E+00 0.  1.
         23    2    1    2    0    0  0.18115973613E+02 -0.98666382692E+02  0.10380734536E+03  0.16933494084E+03  0.88516177423E+02 0.  0.
          5    1    1    2  502    0  0.29091359719E+02  0.15511458839E+02  0.76052495871E+02  0.83024000709E+02  0.47000000000E+01 0.  1.
         -5    1    1    2    0  502 -0.47207333332E+02  0.83154923853E+02  0.32183631859E+01  0.95789986652E+02  0.47000000000E+01 0.  1.
        -11    1    3    3    0    0  0.17147994165E+02  0.12076383991E+02  0.28596828113E+02  0.35463662139E+02  0.00000000000E+00 0.  1.
         11    1    3    3    0    0  0.96797944776E+00 -0.11074276668E+03  0.75210517248E+02  0.13387127870E+03  0.00000000000E+00 0. -1.
<mgrwt>
<rscale>  0 0.15320284E+03</rscale>
<asrwt>0</asrwt>
<pdfrwt beam="1">  1        2 0.40863625E-01 0.16028279E+03</pdfrwt>
<pdfrwt beam="2">  1       -2 0.12697748E-01 0.16028279E+03</pdfrwt>
<totfact> 0.54360579E+03</totfact>
</mgrwt>
</event>
<event>
 7    1  0.5107591E-006  0.2628013E+03  0.7546771E-02  0.1107745E+00
          1   -1    0    0  501    0  0.00000000000E+00  0.00000000000E+00  0.65573146345E+03  0.65573146345E+03  0.00000000000E+00 0. -1.
         -1   -1    0    0    0  501 -0.00000000000E+00 -0.00000000000E+00 -0.10280005939E+03  0.10280005939E+03  0.00000000000E+00 0.  1.
         23    2    1    2    0    0  0.22714238227E+03  0.42940978636E+02  0.33714873990E+03  0.41849228889E+03  0.89604316721E+02 0.  0.
          5    1    1    2  502    0 -0.14156493152E+03  0.11022586075E+02  0.18681121944E+03  0.23469692999E+03  0.47000000000E+01 0. -1.
         -5    1    1    2    0  502 -0.85577450749E+02 -0.53963564711E+02  0.28971444731E+02  0.10534230396E+03  0.47000000000E+01 0. -1.
        -11    1    3    3    0    0  0.17415276507E+03  0.29827219829E+02  0.18041363136E+03  0.25252312172E+03  0.00000000000E+00 0.  1.
         11    1    3    3    0    0  0.52989617200E+02  0.13113758807E+02  0.15673510854E+03  0.16596916717E+03  0.00000000000E+00 0. -1.
<mgrwt>
<rscale>  0 0.25900042E+03</rscale>
<asrwt>0</asrwt>
<pdfrwt beam="1">  1        1 0.10088176E+00 0.26280130E+03</pdfrwt>
<pdfrwt beam="2">  1       -1 0.15815394E-01 0.26280130E+03</pdfrwt>
<totfact> 0.91741156E+02</totfact>
</mgrwt>
</event>
<event>
 7    1  0.5107591E-006  0.1516943E+03  0.7546771E-02  0.1204177E+00
         -1   -1    0    0    0  501 -0.00000000000E+00  0.00000000000E+00  0.86847604787E+02  0.86847604787E+02  0.00000000000E+00 0.  1.
          1   -1    0    0  501    0  0.00000000000E+00 -0.00000000000E+00 -0.52969123646E+03  0.52969123646E+03  0.00000000000E+00 0. -1.
         23    2    1    2    0    0  0.94087976651E+02 -0.25786294060E+02 -0.44513501628E+03  0.46482727872E+03  0.91660984155E+02 0.  0.
          5    1    1    2  502    0  0.11942620499E+02  0.42142770254E+02 -0.33101764938E+01  0.44177896481E+02  0.47000000000E+01 0. -1.
         -5    1    1    2    0  502 -0.10603059715E+03 -0.16356476195E+02  0.56015611007E+01  0.10753366604E+03  0.47000000000E+01 0.  1.
        -11    1    3    3    0    0  0.95708952011E+02  0.86191651351E+01 -0.27685126929E+03  0.29305480513E+03  0.00000000000E+00 0.  1.
         11    1    3    3    0    0 -0.16209753601E+01 -0.34405459195E+02 -0.16828374699E+03  0.17177247360E+03  0.00000000000E+00 0. -1.
<mgrwt>
<rscale>  0 0.14702518E+03</rscale>
<asrwt>0</asrwt>
<pdfrwt beam="2">  1        1 0.81490959E-01 0.15169426E+03</pdfrwt>
<pdfrwt beam="1">  1       -1 0.13361170E-01 0.15169426E+03</pdfrwt>
<totfact> 0.15983818E+03</totfact>
</mgrwt>
</event>
<event>
 7    1  0.5107591E-006  0.1398321E+03  0.7546771E-02  0.1222092E+00
         -2   -1    0    0    0  501 -0.00000000000E+00  0.00000000000E+00  0.18762863272E+03  0.18762863272E+03  0.00000000000E+00 0.  1.
          2   -1    0    0  501    0  0.00000000000E+00 -0.00000000000E+00 -0.11666540305E+03  0.11666540305E+03  0.00000000000E+00 0. -1.
         23    2    1    2    0    0 -0.75174788292E+02  0.21825328287E+02 -0.42417675171E+02  0.12427116198E+03  0.86697570801E+02 0.  0.
          5    1    1    2  502    0  0.83429637432E+02 -0.58304459976E+02  0.87396417525E+02  0.13423910850E+03  0.47000000000E+01 0. -1.
         -5    1    1    2    0  502 -0.82548491406E+01  0.36479131689E+02  0.25984487317E+02  0.45783765291E+02  0.47000000000E+01 0.  1.
        -11    1    3    3    0    0 -0.83495048329E+02  0.41056621401E+02 -0.44643344694E+02  0.10319930950E+03  0.00000000000E+00 0.  1.
         11    1    3    3    0    0  0.83202600370E+01 -0.19231293114E+02  0.22256695227E+01  0.21071852475E+02  0.00000000000E+00 0. -1.
<mgrwt>
<rscale>  0 0.13368203E+03</rscale>
<asrwt>0</asrwt>
<pdfrwt beam="2">  1        2 0.17948524E-01 0.13983206E+03</pdfrwt>
<pdfrwt beam="1">  1       -2 0.28865943E-01 0.13983206E+03</pdfrwt>
<totfact> 0.33275950E+03</totfact>
</mgrwt>
</event>
<event>
 7    1  0.5107591E-006  0.2621546E+03  0.7546771E-02  0.1107959E+00
         -2   -1    0    0    0  501 -0.00000000000E+00  0.00000000000E+00  0.41411964775E+02  0.41411964775E+02  0.00000000000E+00 0. -1.
          2   -1    0    0  501    0  0.00000000000E+00 -0.00000000000E+00 -0.16133212000E+04  0.16133212000E+04  0.00000000000E+00 0.  1.
         23    2    1    2    0    0 -0.22472375298E+03  0.51023371361E+02 -0.89502403397E+03  0.92885532700E+03  0.92736441230E+02 0.  0.
          5    1    1    2  502    0  0.15830426035E+03 -0.81040074049E+02 -0.37179411340E+03  0.41216584672E+03  0.47000000000E+01 0. -1.
         -5    1    1    2    0  502  0.66419492631E+02  0.30016702688E+02 -0.30509108789E+03  0.31371199109E+03  0.47000000000E+01 0. -1.
        -11    1    3    3    0    0 -0.11956184812E+03  0.58255346774E+02 -0.62481850870E+03  0.63881678889E+03  0.00000000000E+00 0.  1.
         11    1    3    3    0    0 -0.10516190486E+03 -0.72319754130E+01 -0.27020552527E+03  0.29003853811E+03  0.00000000000E+00 0. -1.
<mgrwt>
<rscale>  0 0.25864704E+03</rscale>
<asrwt>0</asrwt>
<pdfrwt beam="2">  1        2 0.24820323E+00 0.26215465E+03</pdfrwt>
<pdfrwt beam="1">  1       -2 0.63710723E-02 0.26215465E+03</pdfrwt>
<totfact> 0.16027165E+03</totfact>
</mgrwt>
</event>
<event>
 7    1  0.5107591E-006  0.1233221E+03  0.7546771E-02  0.1247962E+00
          1   -1    0    0  501    0  0.00000000000E+00  0.00000000000E+00  0.53277603073E+02  0.53277603073E+02  0.00000000000E+00 0. -1.
         -1   -1    0    0    0  501 -0.00000000000E+00 -0.00000000000E+00 -0.62295547545E+03  0.62295547545E+03  0.00000000000E+00 0.  1.
         23    2    1    2    0    0  0.28492507490E+02 -0.29550725540E+02 -0.73247887668E+01  0.10051670679E+03  0.91459758635E+02 0.  0.
          5    1    1    2  502    0  0.27179136824E+02 -0.29082250685E+02 -0.13796290796E+03  0.14366745197E+03  0.47000000000E+01 0. -1.
         -5    1    1    2    0  502 -0.55671644314E+02  0.58632976224E+02 -0.42439017565E+03  0.43204891977E+03  0.47000000000E+01 0.  1.
        -11    1    3    3    0    0 -0.27883261709E+02  0.11523933146E+02  0.15029614994E+01  0.30208214313E+02  0.00000000000E+00 0. -1.
         11    1    3    3    0    0  0.56375769199E+02 -0.41074658686E+02 -0.88277502662E+01  0.70308492472E+02  0.00000000000E+00 0.  1.
<mgrwt>
<rscale>  0 0.11709849E+03</rscale>
<asrwt>0</asrwt>
<pdfrwt beam="1">  1        1 0.81965541E-02 0.12332214E+03</pdfrwt>
<pdfrwt beam="2">  1       -1 0.95839306E-01 0.12332214E+03</pdfrwt>
<totfact> 0.91650182E+02</totfact>
</mgrwt>
</event>
<event>
 7    1  0.5107591E-006  0.1408886E+03  0.7546771E-02  0.1222457E+00
          3   -1    0    0  501    0  0.00000000000E+00  0.00000000000E+00  0.17593770503E+03  0.17593770503E+03  0.00000000000E+00 0. -1.
         -3   -1    0    0    0  501 -0.00000000000E+00 -0.00000000000E+00 -0.12348851010E+03  0.12348851010E+03  0.00000000000E+00 0.  1.
         23    2    1    2    0    0 -0.64909142964E+02 -0.35599932782E+01  0.99578611867E+02  0.15086388535E+03  0.92833946215E+02 0.  0.
          5    1    1    2  502    0  0.30196648567E+02  0.60618442976E+02 -0.21818395071E+01  0.67921157507E+02  0.47000000000E+01 0. -1.
         -5    1    1    2    0  502  0.34712494397E+02 -0.57058449697E+02 -0.44947577425E+02  0.80641172273E+02  0.47000000000E+01 0. -1.
        -11    1    3    3    0    0 -0.79008530670E+01 -0.35524700653E+02  0.70479043363E+02  0.79320384448E+02  0.00000000000E+00 0.  1.
         11    1    3    3    0    0 -0.57008289897E+02  0.31964707374E+02  0.29099568503E+02  0.71543500904E+02  0.00000000000E+00 0. -1.
<mgrwt>
<rscale>  0 0.13342720E+03</rscale>
<asrwt>0</asrwt>
<pdfrwt beam="1">  1        3 0.27067339E-01 0.14088855E+03</pdfrwt>
<pdfrwt beam="2">  1       -3 0.18998232E-01 0.14088855E+03</pdfrwt>
<totfact> 0.74227047E+02</totfact>
</mgrwt>
</event>
<event>
 7    1  0.5107591E-006  0.1779935E+03  0.7546771E-02  0.1193472E+00
          2   -1    0    0  501    0  0.00000000000E+00  0.00000000000E+00  0.80461592118E+03  0.80461592118E+03  0.00000000000E+00 0. -1.
         -2   -1    0    0    0  501 -0.00000000000E+00 -0.00000000000E+00 -0.25184525609E+02  0.25184525609E+02  0.00000000000E+00 0.  1.
         23    2    1    2    0    0  0.50880148257E+02  0.10314531373E+02  0.33870695189E+03  0.35449032761E+03  0.90806464871E+02 0.  0.
          5    1    1    2  502    0  0.36977871731E+02 -0.64376131444E+02  0.17021828542E+03  0.18576330098E+03  0.47000000000E+01 0. -1.
         -5    1    1    2    0  502 -0.87858019988E+02  0.54061600071E+02  0.27050615825E+03  0.28954681820E+03  0.47000000000E+01 0.  1.
        -11    1    3    3    0    0 -0.23194044146E+02  0.90841040399E+01  0.14452540684E+03  0.14665632565E+03  0.00000000000E+00 0. -1.
         11    1    3    3    0    0  0.74074192403E+02  0.12304273331E+01  0.19418154505E+03  0.20783400196E+03  0.00000000000E+00 0.  1.
<mgrwt>
<rscale>  0 0.15584222E+03</rscale>
<asrwt>0</asrwt>
<pdfrwt beam="1">  1        2 0.12378705E+00 0.17799347E+03</pdfrwt>
<pdfrwt beam="2">  1       -2 0.38745430E-02 0.17799347E+03</pdfrwt>
<totfact> 0.99058542E+03</totfact>
</mgrwt>
</event>
<event>
 6    1  0.5318816E-006  0.1274152E+03  0.7546771E-02  0.1275855E+00
         -2   -1    0    0    0  501 -0.00000000000E+00  0.00000000000E+00  0.29658314576E+03  0.29658314576E+03  0.00000000000E+00 0.  1.
          2   -1    0    0  501    0  0.00000000000E+00 -0.00000000000E+00 -0.28406887655E+02  0.28406887655E+02  0.00000000000E+00 0. -1.
          5    1    1    2  502    0  0.12834041118E+02  0.55767169717E+01  0.23098378583E+03  0.23145498850E+03  0.47000000000E+01 0.  1.
         -5    1    1    2    0  502  0.41634412396E+01  0.12322532939E+02 -0.14313007487E+02  0.19903046107E+02  0.47000000000E+01 0.  1.
        -11    1    1    2    0    0 -0.68121702475E+01 -0.26348883644E+02  0.53713916629E+02  0.60215065992E+02  0.00000000000E+00 0.  1.
         11    1    1    2    0    0 -0.10185312110E+02  0.84496337334E+01 -0.22084368629E+01  0.13416932823E+02  0.00000000000E+00 0. -1.
<mgrwt>
<rscale>  0 0.10214180E+03</rscale>
<asrwt>0</asrwt>
<pdfrwt beam="2">  1        2 0.43702906E-02 0.12741521E+03</pdfrwt>
<pdfrwt beam="1">  1       -2 0.45628174E-01 0.12741521E+03</pdfrwt>
<totfact> 0.81083396E+03</totfact>
</mgrwt>
</event>
<event>
 7    1  0.8407506E-006  0.4152791E+03  0.7546771E-02  0.1039358E+00
         -1   -1    0    0    0  501 -0.00000000000E+00  0.00000000000E+00  0.18907688906E+03  0.18907688906E+03  0.00000000000E+00 0.  1.
          1   -1    0    0  501    0  0.00000000000E+00 -0.00000000000E+00 -0.89651391514E+03  0.89651391514E+03  0.00000000000E+00 0. -1.
         23    2    1    2    0    0  0.36119207813E+03  0.16239399033E+03 -0.38560619248E+03  0.56020352082E+03  0.91128061847E+02 0.  0.
          5    1    1    2  502    0 -0.16884104246E+03 -0.54116954569E+02 -0.21905158663E+03  0.28185391605E+03  0.47000000000E+01 0.  1.
         -5    1    1    2    0  502 -0.19235103567E+03 -0.10827703576E+03 -0.10277924697E+03  0.24353336733E+03  0.47000000000E+01 0.  1.
        -11    1    3    3    0    0  0.16674612342E+03  0.10258612275E+03 -0.24156209853E+03  0.31093476760E+03  0.00000000000E+00 0. -1.
         11    1    3    3    0    0  0.19444595471E+03  0.59807867580E+02 -0.14404409395E+03  0.24926875322E+03  0.00000000000E+00 0.  1.
<mgrwt>
<rscale>  0 0.41303343E+03</rscale>
<asrwt>0</asrwt>
<pdfrwt beam="2">  1        1 0.13792522E+00 0.41527908E+03</pdfrwt>
<pdfrwt beam="1">  1       -1 0.29088752E-01 0.41527908E+03</pdfrwt>
<totfact> 0.20525708E+02</totfact>
</mgrwt>
</event>
<event>
 7    1  0.5107591E-006  0.2264259E+03  0.7546771E-02  0.1132226E+00
          1   -1    0    0  501    0  0.00000000000E+00  0.00000000000E+00  0.51081381144E+03  0.51081381144E+03  0.00000000000E+00 0. -1.
         -1   -1    0    0    0  501 -0.00000000000E+00 -0.00000000000E+00 -0.11783557316E+03  0.11783557316E+03  0.00000000000E+00 0.  1.
         23    2    1    2    0    0 -0.55157487891E+02 -0.18055782369E+03  0.33410940677E+03  0.39469587923E+03  0.92261938126E+02 0.  0.
          5    1    1    2  502    0  0.51035127382E+02  0.16762427777E+03  0.91913916108E+02  0.19792104663E+03  0.47000000000E+01 0.  1.
         -5    1    1    2    0  502  0.41223605095E+01  0.12933545925E+02 -0.33045084597E+02  0.36032458733E+02  0.47000000000E+01 0.  1.
        -11    1    3    3    0    0 -0.11356022030E+02  0.79648927846E+01  0.96572679964E+01  0.16901525925E+02  0.00000000000E+00 0.  1.
         11    1    3    3    0    0 -0.43801465861E+02 -0.18852271648E+03  0.32445213877E+03  0.37779435331E+03  0.00000000000E+00 0. -1.
<mgrwt>
<rscale>  0 0.22223785E+03</rscale>
<asrwt>0</asrwt>
<pdfrwt beam="1">  1        1 0.78586739E-01 0.22642593E+03</pdfrwt>
<pdfrwt beam="2">  1       -1 0.18128550E-01 0.22642593E+03</pdfrwt>
<totfact> 0.10396163E+03</totfact>
</mgrwt>
</event>
<event>
 7    1  0.5107591E-006  0.1286190E+03  0.7546771E-02  0.1253960E+00
         -3   -1    0    0    0  501 -0.00000000000E+00  0.00000000000E+00  0.26987676259E+03  0.26987676259E+03  0.00000000000E+00 0.  1.
          3   -1    0    0  501    0  0.00000000000E+00 -0.00000000000E+00 -0.50792759514E+02  0.50792759514E+02  0.00000000000E+00 0. -1.
         23    2    1    2    0    0 -0.19613391114E+02  0.23093873737E+02  0.15591396553E+02  0.79937131945E+02  0.72310727433E+02 0.  0.
          5    1    1    2  502    0  0.22013781345E+01 -0.21588724883E+02 -0.11482291259E+02  0.24997042232E+02  0.47000000000E+01 0. -1.
         -5    1    1    2    0  502  0.17412012979E+02 -0.15051488543E+01  0.21497489779E+03  0.21573534793E+03  0.47000000000E+01 0. -1.
        -11    1    3    3    0    0  0.58484276812E+00 -0.17914911260E+02  0.27382819912E+02  0.32727739196E+02  0.00000000000E+00 0.  1.
         11    1    3    3    0    0 -0.20198233882E+02  0.41008784997E+02 -0.11791423359E+02  0.47209392749E+02  0.00000000000E+00 0. -1.
<mgrwt>
<rscale>  0 0.11364764E+03</rscale>
<asrwt>0</asrwt>
<pdfrwt beam="2">  1        3 0.78142709E-02 0.12861898E+03</pdfrwt>
<pdfrwt beam="1">  1       -3 0.41519501E-01 0.12861898E+03</pdfrwt>
<totfact> 0.14586113E+03</totfact>
</mgrwt>
</event>
<event>
 7    1  0.5107591E-006  0.1743511E+03  0.7546771E-02  0.1179555E+00
          1   -1    0    0  501    0  0.00000000000E+00  0.00000000000E+00  0.37887771980E+03  0.37887771980E+03  0.00000000000E+00 0. -1.
         -1   -1    0    0    0  501 -0.00000000000E+00 -0.00000000000E+00 -0.74491756479E+02  0.74491756479E+02  0.00000000000E+00 0.  1.
         23    2    1    2    0    0 -0.57030482163E+02  0.10734088057E+03  0.19699152991E+03  0.24859678640E+03  0.90665091496E+02 0.  0.
          5    1    1    2  502    0 -0.16237519417E+02 -0.27158891134E+02  0.88916910766E+02  0.94496399004E+02  0.47000000000E+01 0. -1.
         -5    1    1    2    0  502  0.73268001580E+02 -0.80181989435E+02  0.18477522642E+02  0.11027629087E+03  0.47000000000E+01 0. -1.
        -11    1    3    3    0    0 -0.84860841423E+01  0.97438798444E+02  0.10113320994E+03  0.14069207234E+03  0.00000000000E+00 0.  1.
         11    1    3    3    0    0 -0.48544398021E+02  0.99020821258E+01  0.95858319970E+02  0.10790471406E+03  0.00000000000E+00 0. -1.
<mgrwt>
<rscale>  0 0.16837279E+03</rscale>
<asrwt>0</asrwt>
<pdfrwt beam="1">  1        1 0.58288879E-01 0.17435105E+03</pdfrwt>
<pdfrwt beam="2">  1       -1 0.11460270E-01 0.17435105E+03</pdfrwt>
<totfact> 0.31381918E+03</totfact>
</mgrwt>
</event>
<event>
 7    1  0.5107591E-006  0.1687962E+03  0.7546771E-02  0.1184601E+00
         -1   -1    0    0    0  501 -0.00000000000E+00  0.00000000000E+00  0.60231677153E+02  0.60231677153E+02  0.00000000000E+00 0.  1.
          1   -1    0    0  501    0  0.00000000000E+00 -0.00000000000E+00 -0.43711609434E+03  0.43711609434E+03  0.00000000000E+00 0. -1.
         23    2    1    2    0    0  0.91894202025E+02  0.66500087826E+02 -0.22664175030E+03  0.27137207765E+03  0.97002657198E+02 0.  0.
          5    1    1    2  502    0 -0.41860403453E+02 -0.65324639075E+02 -0.11710695515E+02  0.78605548385E+02  0.47000000000E+01 0. -1.
         -5    1    1    2    0  502 -0.50033798572E+02 -0.11754487509E+01 -0.13853197138E+03  0.14737014546E+03  0.47000000000E+01 0. -1.
        -11    1    3    3    0    0  0.59648806883E+02  0.80137132622E+02 -0.21011933945E+03  0.23265871356E+03  0.00000000000E+00 0. -1.
         11    1    3    3    0    0  0.32245395142E+02 -0.13637044796E+02 -0.16522410851E+02  0.38713364087E+02  0.00000000000E+00 0.  1.
<mgrwt>
<rscale>  0 0.16368257E+03</rscale>
<asrwt>0</asrwt>
<pdfrwt beam="2">  1        1 0.67248631E-01 0.16879619E+03</pdfrwt>
<pdfrwt beam="1">  1       -1 0.92664117E-02 0.16879619E+03</pdfrwt>
<totfact> 0.36221330E+03</totfact>
</mgrwt>
</event>
<event>
 7    1  0.5107591E-006  0.1260980E+03  0.7546771E-02  0.1248385E+00
         -2   -1    0    0    0  501 -0.00000000000E+00  0.00000000000E+00  0.15481577622E+02  0.15481577622E+02  0.00000000000E+00 0. -1.
          2   -1    0    0  501    0  0.00000000000E+00 -0.00000000000E+00 -0.88863404702E+03  0.88863404702E+03  0.00000000000E+00 0.  1.
         23    2    1    2    0    0  0.16053888377E+02 -0.42809952062E+01 -0.53901758518E+03  0.54697863998E+03  0.91485633856E+02 0.  0.
          5    1    1    2  502    0  0.13994953628E+02  0.55195284152E+02 -0.23293104862E+03  0.23983607221E+03  0.47000000000E+01 0.  1.
         -5    1    1    2    0  502 -0.30048842006E+02 -0.50914288945E+02 -0.10120383559E+03  0.11730091246E+03  0.47000000000E+01 0.  1.
        -11    1    3    3    0    0 -0.38211448619E+02  0.20263214962E+01 -0.21051909360E+03  0.21396847795E+03  0.00000000000E+00 0.  1.
         11    1    3    3    0    0  0.54265336996E+02 -0.63073167025E+01 -0.32849849158E+03  0.33301016203E+03  0.00000000000E+00 0. -1.
<mgrwt>
<rscale>  0 0.11685062E+03</rscale>
<asrwt>0</asrwt>
<pdfrwt beam="2">  1        2 0.13671298E+00 0.12609800E+03</pdfrwt>
<pdfrwt beam="1">  1       -2 0.23817803E-02 0.12609800E+03</pdfrwt>
<totfact> 0.17489889E+04</totfact>
</mgrwt>
</event>
<event>
 7    1  0.5107591E-006  0.1600697E+03  0.7546771E-02  0.1195842E+00
         -2   -1    0    0    0  501 -0.00000000000E+00  0.00000000000E+00  0.13927244539E+03  0.13927244539E+03  0.00000000000E+00 0.  1.
          2   -1    0    0  501    0  0.00000000000E+00 -0.00000000000E+00 -0.16917064445E+03  0.16917064445E+03  0.00000000000E+00 0. -1.
         23    2    1    2    0    0 -0.39042935965E+02 -0.92051100073E+02 -0.53494152454E+02  0.14664360276E+03  0.92978309360E+02 0.  0.
          5    1    1    2  502    0  0.30000642298E+02  0.99056815340E+02  0.62485531088E+02  0.12099100297E+03  0.47000000000E+01 0.  1.
         -5    1    1    2    0  502  0.90422936671E+01 -0.70057152677E+01 -0.38889577695E+02  0.40808484100E+02  0.47000000000E+01 0.  1.
        -11    1    3    3    0    0 -0.54198848038E+02 -0.19080180830E+02 -0.42139859829E+02  0.71255429376E+02  0.00000000000E+00 0. -1.
         11    1    3    3    0    0  0.15155912072E+02 -0.72970919242E+02 -0.11354292625E+02  0.75388173388E+02  0.00000000000E+00 0.  1.
<mgrwt>
<rscale>  0 0.15383158E+03</rscale>
<asrwt>0</asrwt>
<pdfrwt beam="2">  1        2 0.26026253E-01 0.16006969E+03</pdfrwt>
<pdfrwt beam="1">  1       -2 0.21426530E-01 0.16006969E+03</pdfrwt>
<totfact> 0.37180051E+03</totfact>
</mgrwt>
</event>
<event>
 7    1  0.5107591E-006  0.1493256E+03  0.7546771E-02  0.1211214E+00
          1   -1    0    0  501    0  0.00000000000E+00  0.00000000000E+00  0.24441371471E+03  0.24441371471E+03  0.00000000000E+00 0. -1.
         -1   -1    0    0    0  501 -0.00000000000E+00 -0.00000000000E+00 -0.75524702006E+02  0.75524702006E+02  0.00000000000E+00 0.  1.
         23    2    1    2    0    0  0.64220092347E+02 -0.50481499474E+02  0.93477752970E+02  0.15265122549E+03  0.88835264915E+02 0.  0.
          5    1    1    2  502    0 -0.56899239985E+02  0.50757540278E+02 -0.13819221322E+02  0.77633190608E+02  0.47000000000E+01 0. -1.
         -5    1    1    2    0  502 -0.73208523617E+01 -0.27604080401E+00  0.89230481056E+02  0.89654000621E+02  0.47000000000E+01 0. -1.
        -11    1    3    3    0    0 -0.77908225556E+01 -0.47960714117E+02  0.39539250192E+02  0.62644068518E+02  0.00000000000E+00 0.  1.
         11    1    3    3    0    0  0.72010914903E+02 -0.25207853568E+01  0.53938502778E+02  0.90007156970E+02  0.00000000000E+00 0. -1.
<mgrwt>
<rscale>  0 0.14158329E+03</rscale>
<asrwt>0</asrwt>
<pdfrwt beam="1">  1        1 0.37602110E-01 0.14932564E+03</pdfrwt>
<pdfrwt beam="2">  1       -1 0.11619185E-01 0.14932564E+03</pdfrwt>
<totfact> 0.52689681E+03</totfact>
</mgrwt>
</event>
<event>
 7    1  0.5107591E-006  0.2399666E+03  0.7546771E-02  0.1122133E+00
         -1   -1    0    0    0  501 -0.00000000000E+00  0.00000000000E+00  0.88707275765E+03  0.88707275765E+03  0.00000000000E+00 0.  1.
          1   -1    0    0  501    0  0.00000000000E+00 -0.00000000000E+00 -0.38390692790E+03  0.38390692790E+03  0.00000000000E+00 0. -1.
         23    2    1    2    0    0 -0.14379237200E+03 -0.14961625492E+03 -0.33207556341E+03  0.40195024363E+03  0.90711347466E+02 0.  0.
          5    1    1    2  502    0  0.42183630795E+02  0.10561349776E+02  0.56468084387E+02  0.71426433276E+02  0.47000000000E+01 0. -1.
         -5    1    1    2    0  502  0.10160874120E+03  0.13905490514E+03  0.77877330878E+03  0.79760300864E+03  0.47000000000E+01 0.  1.
        -11    1    3    3    0    0 -0.47873649338E+02 -0.11462433872E+03 -0.17495446871E+03  0.21456861711E+03  0.00000000000E+00 0.  1.
         11    1    3    3    0    0 -0.95918722661E+02 -0.34991916196E+02 -0.15712109470E+03  0.18738162652E+03  0.00000000000E+00 0. -1.
<mgrwt>
<rscale>  0 0.23651955E+03</rscale>
<asrwt>0</asrwt>
<pdfrwt beam="2">  1        1 0.59062604E-01 0.23996664E+03</pdfrwt>
<pdfrwt beam="1">  1       -1 0.13647273E+00 0.23996664E+03</pdfrwt>
<totfact> 0.31499233E+01</totfact>
</mgrwt>
</event>
<event>
 7    1  0.5107591E-006  0.1630477E+03  0.7546771E-02  0.1192102E+00
         -1   -1    0    0    0  501 -0.00000000000E+00  0.00000000000E+00  0.35666072765E+02  0.35666072765E+02  0.00000000000E+00 0.  1.
          1   -1    0    0  501    0  0.00000000000E+00 -0.00000000000E+00 -0.64834576799E+03  0.64834576799E+03  0.00000000000E+00 0. -1.
         23    2    1    2    0    0 -0.10425110645E+03  0.93394354868E+01 -0.30876736886E+03  0.33912453234E+03  0.93341534736E+02 0.  0.
          5    1    1    2  502    0  0.12536230287E+03  0.38481135017E+00 -0.18428657298E+03  0.22293381539E+03  0.47000000000E+01 0. -1.
         -5    1    1    2    0  502 -0.21111196427E+02 -0.97242468370E+01 -0.11962575338E+03  0.12195349303E+03  0.47000000000E+01 0. -1.
        -11    1    3    3    0    0 -0.90354403569E+02  0.45485446114E+02 -0.23381162336E+03  0.25475619574E+03  0.00000000000E+00 0. -1.
         11    1    3    3    0    0 -0.13896702877E+02 -0.36146010627E+02 -0.74955745506E+02  0.84368336593E+02  0.00000000000E+00 0.  1.
<mgrwt>
<rscale>  0 0.15702055E+03</rscale>
<asrwt>0</asrwt>
<pdfrwt beam="2">  1        1 0.99745506E-01 0.16304770E+03</pdfrwt>
<pdfrwt beam="1">  1       -1 0.54870880E-02 0.16304770E+03</pdfrwt>
<totfact> 0.47109421E+03</totfact>
</mgrwt>
</event>
<event>
 7    1  0.5107591E-006  0.1474995E+03  0.7546771E-02  0.1213077E+00
         -2   -1    0    0    0  501 -0.00000000000E+00  0.00000000000E+00  0.28821526429E+02  0.28821526429E+02  0.00000000000E+00 0.  1.
          2   -1    0    0  501    0  0.00000000000E+00 -0.00000000000E+00 -0.62321389786E+03  0.62321389786E+03  0.00000000000E+00 0. -1.
         23    2    1    2    0    0 -0.98037433593E+01  0.77687756271E+02 -0.25488418016E+03  0.28187072559E+03  0.91398357703E+02 0.  0.
          5    1    1    2  502    0 -0.47916168306E+02 -0.31877232478E+02 -0.23636054557E+03  0.24331155878E+03  0.47000000000E+01 0.  1.
         -5    1    1    2    0  502  0.57719911666E+02 -0.45810523794E+02 -0.10314764571E+03  0.12685313992E+03  0.47000000000E+01 0.  1.
        -11    1    3    3    0    0 -0.13744966549E+02  0.19927667025E+02 -0.41771861828E+01  0.24565929718E+02  0.00000000000E+00 0.  1.
         11    1    3    3    0    0  0.39412231901E+01  0.57760089246E+02 -0.25070699397E+03  0.25730479587E+03  0.00000000000E+00 0. -1.
<mgrwt>
<rscale>  0 0.14018716E+03</rscale>
<asrwt>0</asrwt>
<pdfrwt beam="2">  1        2 0.95879056E-01 0.14749947E+03</pdfrwt>
<pdfrwt beam="1">  1       -2 0.44340812E-02 0.14749947E+03</pdfrwt>
<totfact> 0.10885218E+04</totfact>
</mgrwt>
</event>
<event>
 7    1  0.5107591E-006  0.1486058E+03  0.7546771E-02  0.1209988E+00
          2   -1    0    0  501    0  0.00000000000E+00  0.00000000000E+00  0.78319410444E+02  0.78319410444E+02  0.00000000000E+00 0.  1.
         -2   -1    0    0    0  501 -0.00000000000E+00 -0.00000000000E+00 -0.24042171180E+03  0.24042171180E+03  0.00000000000E+00 0. -1.
         23    2    1    2    0    0  0.31398085335E+02 -0.73994838575E+02 -0.79481376663E+02  0.14871198448E+03  0.96627579885E+02 0.  0.
          5    1    1    2  502    0  0.23076470591E+02  0.19242031996E+02 -0.87363497798E+02  0.92505405451E+02  0.47000000000E+01 0.  1.
         -5    1    1    2    0  502 -0.54474555926E+02  0.54752806579E+02  0.47425731048E+01  0.77523732310E+02  0.47000000000E+01 0.  1.
        -11    1    3    3    0    0 -0.14638522515E+01 -0.28005988008E+02  0.19895735238E+02  0.34384858708E+02  0.00000000000E+00 0.  1.
         11    1    3    3    0    0  0.32861937587E+02 -0.45988850567E+02 -0.99377111901E+02  0.11432712578E+03  0.00000000000E+00 0. -1.
<mgrwt>
<rscale>  0 0.14251219E+03</rscale>
<asrwt>0</asrwt>
<pdfrwt beam="1">  1        2 0.12049140E-01 0.14860582E+03</pdfrwt>
<pdfrwt beam="2">  1       -2 0.36987956E-01 0.14860582E+03</pdfrwt>
<totfact> 0.33911544E+03</totfact>
</mgrwt>
</event>
<event>
 7    1  0.5107591E-006  0.1562506E+03  0.7546771E-02  0.1208214E+00
          2   -1    0    0  501    0  0.00000000000E+00  0.00000000000E+00  0.11402381349E+03  0.11402381349E+03  0.00000000000E+00 0. -1.
         -2   -1    0    0    0  501 -0.00000000000E+00 -0.00000000000E+00 -0.15927321261E+03  0.15927321261E+03  0.00000000000E+00 0.  1.
         23    2    1    2    0    0  0.49631632295E+02  0.45094264706E+02 -0.30341982855E+02  0.11633690458E+03  0.90093550326E+02 0.  0.
          5    1    1    2  502    0 -0.47293640780E+02 -0.42151322901E+02  0.56670503366E+02  0.85129656596E+02  0.47000000000E+01 0. -1.
         -5    1    1    2    0  502 -0.23379915154E+01 -0.29429418053E+01 -0.71577919634E+02  0.71830464915E+02  0.47000000000E+01 0.  1.
        -11    1    3    3    0    0  0.72100622414E+02  0.43076052156E+02 -0.76449421789E+01  0.84335586573E+02  0.00000000000E+00 0. -1.
         11    1    3    3    0    0 -0.22468990118E+02  0.20182125503E+01 -0.22697040676E+02  0.32001318008E+02  0.00000000000E+00 0.  1.
<mgrwt>
<rscale>  0 0.14387035E+03</rscale>
<asrwt>0</asrwt>
<pdfrwt beam="1">  1        2 0.17542125E-01 0.15625060E+03</pdfrwt>
<pdfrwt beam="2">  1       -2 0.24503571E-01 0.15625060E+03</pdfrwt>
<totfact> 0.45927782E+03</totfact>
</mgrwt>
</event>
<event>
 6    1  0.5107591E-006  0.2514925E+03  0.7546771E-02  0.1112668E+00
         -2   -1    0    0    0  501 -0.00000000000E+00  0.00000000000E+00  0.39159649643E+02  0.39159649643E+02  0.00000000000E+00 0. -1.
          2   -1    0    0  501    0  0.00000000000E+00 -0.00000000000E+00 -0.18106074617E+04  0.18106074617E+04  0.00000000000E+00 0.  1.
          5    1    1    2  502    0 -0.38026866166E+02  0.56562302889E+02 -0.33183808918E+03  0.33879779233E+03  0.47000000000E+01 0. -1.
         -5    1    1    2    0  502 -0.15303595894E+02  0.15276504475E+03 -0.23755849362E+03  0.28289129862E+03  0.47000000000E+01 0. -1.
        -11    1    1    2    0    0 -0.40895088158E+02 -0.50567891962E+02 -0.38259609474E+03  0.38808412959E+03  0.00000000000E+00 0. -1.
         11    1    1    2    0    0  0.94225550218E+02 -0.15875945568E+03 -0.81945513449E+03  0.83999389077E+03  0.00000000000E+00 0.  1.
<mgrwt>
<rscale>  0 0.25101031E+03</rscale>
<asrwt>0</asrwt>
<pdfrwt beam="2">  1        2 0.27855486E+00 0.25149248E+03</pdfrwt>
<pdfrwt beam="1">  1       -2 0.60245643E-02 0.25149248E+03</pdfrwt>
<totfact> 0.13765903E+03</totfact>
</mgrwt>
</event>
<event>
 7    1  0.5107591E-006  0.1271121E+03  0.7546771E-02  0.1246092E+00
         -2   -1    0    0    0  501 -0.00000000000E+00  0.00000000000E+00  0.11684189317E+03  0.11684189317E+03  0.00000000000E+00 0.  1.
          2   -1    0    0  501    0  0.00000000000E+00 -0.00000000000E+00 -0.10682634452E+03  0.10682634452E+03  0.00000000000E+00 0. -1.
         23    2    1    2    0    0  0.14733774357E+01  0.23468634756E+02 -0.75478528557E+01  0.95348475939E+02  0.92094593342E+02 0.  0.
          5    1    1    2  502    0  0.35531971142E+02 -0.30339069883E+02  0.56833194561E+02  0.73723009561E+02  0.47000000000E+01 0. -1.
         -5    1    1    2    0  502 -0.37005348578E+02  0.68704351268E+01 -0.39269793060E+02  0.54596752186E+02  0.47000000000E+01 0. -1.
        -11    1    3    3    0    0  0.28510449281E+01  0.49223165489E+02  0.23804177982E+02  0.54751140329E+02  0.00000000000E+00 0.  1.
         11    1    3    3    0    0 -0.13776674924E+01 -0.25754530733E+02 -0.31352030838E+02  0.40597335610E+02  0.00000000000E+00 0. -1.
<mgrwt>
<rscale>  0 0.11820269E+03</rscale>
<asrwt>0</asrwt>
<pdfrwt beam="2">  1        2 0.16434822E-01 0.12711211E+03</pdfrwt>
<pdfrwt beam="1">  1       -2 0.17975676E-01 0.12711211E+03</pdfrwt>
<totfact> 0.82786232E+03</totfact>
</mgrwt>
</event>
<event>
 7    1  0.5107591E-006  0.2038755E+03  0.7546771E-02  0.1148865E+00
         -1   -1    0    0    0  501 -0.00000000000E+00  0.00000000000E+00  0.14281362871E+03  0.14281362871E+03  0.00000000000E+00 0.  1.
          1   -1    0    0  501    0  0.00000000000E+00 -0.00000000000E+00 -0.37261059956E+03  0.37261059956E+03  0.00000000000E+00 0. -1.
         23    2    1    2    0    0  0.15523951441E+03  0.42901122383E+02 -0.24411387766E+03  0.31104663489E+03  0.10591794314E+03 0.  0.
          5    1    1    2  502    0 -0.15003763993E+03 -0.23569444986E+01  0.40638701559E+02  0.15553277033E+03  0.47000000000E+01 0. -1.
         -5    1    1    2    0  502 -0.52018744799E+01 -0.40544177884E+02 -0.26321794756E+02  0.48844823038E+02  0.47000000000E+01 0. -1.
        -11    1    3    3    0    0  0.10145120314E+03  0.67530501804E+02 -0.10882172725E+03  0.16338568975E+03  0.00000000000E+00 0.  1.
         11    1    3    3    0    0  0.53788311269E+02 -0.24629379421E+02 -0.13529215040E+03  0.14766094514E+03  0.00000000000E+00 0. -1.
<mgrwt>
<rscale>  0 0.20103930E+03</rscale>
<asrwt>0</asrwt>
<pdfrwt beam="2">  1        1 0.57324707E-01 0.20387552E+03</pdfrwt>
<pdfrwt beam="1">  1       -1 0.21971328E-01 0.20387552E+03</pdfrwt>
<totfact> 0.11443148E+03</totfact>
</mgrwt>
</event>
<event>
 7    1  0.5107591E-006  0.2097560E+03  0.7546771E-02  0.1145647E+00
          1   -1    0    0  501    0  0.00000000000E+00  0.00000000000E+00  0.10969748888E+04  0.10969748888E+04  0.00000000000E+00 0. -1.
         -1   -1    0    0    0  501 -0.00000000000E+00 -0.00000000000E+00 -0.40531639234E+02  0.40531639234E+02  0.00000000000E+00 0.  1.
         23    2    1    2    0    0  0.14941550149E+03 -0.77771802812E+02  0.68252344994E+03  0.70877165425E+03  0.90252715998E+02 0.  0.
          5    1    1    2  502    0 -0.12357924839E+03  0.88806145346E+01  0.15968225249E+03  0.20216628727E+03  0.47000000000E+01 0.  1.
         -5    1    1    2    0  502 -0.25836253101E+02  0.68891188278E+02  0.21423754712E+03  0.22656858651E+03  0.47000000000E+01 0.  1.
        -11    1    3    3    0    0  0.71169181470E+02  0.10349791715E+02  0.21922946932E+03  0.23072436108E+03  0.00000000000E+00 0.  1.
         11    1    3    3    0    0  0.78246320017E+02 -0.88121594528E+02  0.46329398063E+03  0.47804729317E+03  0.00000000000E+00 0. -1.
<mgrwt>
<rscale>  0 0.20492769E+03</rscale>
<asrwt>0</asrwt>
<pdfrwt beam="1">  1        1 0.16876534E+00 0.20975599E+03</pdfrwt>
<pdfrwt beam="2">  1       -1 0.62356376E-02 0.20975599E+03</pdfrwt>
<totfact> 0.17078334E+03</totfact>
</mgrwt>
</event>
<event>
 7    1  0.5107591E-006  0.1675110E+03  0.7546771E-02  0.1186982E+00
          1   -1    0    0  501    0  0.00000000000E+00  0.00000000000E+00  0.20379051018E+03  0.20379051018E+03  0.00000000000E+00 0. -1.
         -1   -1    0    0    0  501 -0.00000000000E+00 -0.00000000000E+00 -0.12048848939E+03  0.12048848939E+03  0.00000000000E+00 0.  1.
         23    2    1    2    0    0 -0.10429326135E+03  0.39521627285E+02  0.51906783937E+02  0.15385134457E+03  0.92395230501E+02 0.  0.
          5    1    1    2  502    0 -0.23383585900E+02  0.13967592103E+01  0.27204229943E+02  0.36206396570E+02  0.47000000000E+01 0.  1.
         -5    1    1    2    0  502  0.12767684725E+03 -0.40918386495E+02  0.41910069069E+01  0.13422125844E+03  0.47000000000E+01 0.  1.
        -11    1    3    3    0    0 -0.22517164358E+02  0.30829994328E+02 -0.21329166374E+02  0.43731505567E+02  0.00000000000E+00 0.  1.
         11    1    3    3    0    0 -0.81776096993E+02  0.86916329569E+01  0.73235950312E+02  0.11011983900E+03  0.00000000000E+00 0. -1.
<mgrwt>
<rscale>  0 0.16152791E+03</rscale>
<asrwt>0</asrwt>
<pdfrwt beam="1">  1        1 0.31352386E-01 0.16751097E+03</pdfrwt>
<pdfrwt beam="2">  1       -1 0.18536691E-01 0.16751097E+03</pdfrwt>
<totfact> 0.31900409E+03</totfact>
</mgrwt>
</event>
<event>
 7    1  0.5107591E-006  0.1555970E+03  0.7546771E-02  0.1202601E+00
         -2   -1    0    0    0  501 -0.00000000000E+00  0.00000000000E+00  0.76039422472E+02  0.76039422472E+02  0.00000000000E+00 0.  1.
          2   -1    0    0  501    0  0.00000000000E+00 -0.00000000000E+00 -0.26986015369E+03  0.26986015369E+03  0.00000000000E+00 0. -1.
         23    2    1    2    0    0  0.92655198657E+02 -0.37776051789E+00 -0.11075871906E+03  0.16952008542E+03  0.88794352137E+02 0.  0.
          5    1    1    2  502    0 -0.10382149581E+03 -0.29924411786E+01 -0.10709055666E+03  0.14925928789E+03  0.47000000000E+01 0. -1.
         -5    1    1    2    0  502  0.11166297154E+02  0.33702016965E+01  0.24028544503E+02  0.27120202849E+02  0.47000000000E+01 0. -1.
        -11    1    3    3    0    0  0.24502379636E+02  0.73390614365E+01 -0.96016985501E+02  0.99365436321E+02  0.00000000000E+00 0. -1.
         11    1    3    3    0    0  0.68152819022E+02 -0.77168219544E+01 -0.14741733558E+02  0.70154649098E+02  0.00000000000E+00 0.  1.
<mgrwt>
<rscale>  0 0.14828123E+03</rscale>
<asrwt>0</asrwt>
<pdfrwt beam="2">  1        2 0.41516948E-01 0.15559700E+03</pdfrwt>
<pdfrwt beam="1">  1       -2 0.11698372E-01 0.15559700E+03</pdfrwt>
<totfact> 0.60855542E+03</totfact>
</mgrwt>
</event>
<event>
 7    1  0.5107591E-006  0.1276723E+03  0.7546771E-02  0.1246315E+00
          3   -1    0    0  501    0  0.00000000000E+00  0.00000000000E+00  0.61108087768E+02  0.61108087768E+02  0.00000000000E+00 0. -1.
         -3   -1    0    0    0  501 -0.00000000000E+00 -0.00000000000E+00 -0.20035954426E+03  0.20035954426E+03  0.00000000000E+00 0.  1.
         23    2    1    2    0    0 -0.24312883957E+01  0.25874534874E+02 -0.52771274410E+02  0.10726306119E+03  0.89694783432E+02 0.  0.
          5    1    1    2  502    0 -0.35323751032E+02 -0.45140285962E+02 -0.94679031500E+02  0.11077735242E+03  0.47000000000E+01 0.  1.
         -5    1    1    2    0  502  0.37755039428E+02  0.19265751088E+02  0.81988494231E+01  0.43427218412E+02  0.47000000000E+01 0.  1.
        -11    1    3    3    0    0 -0.44042040142E+02  0.15483829380E+02 -0.12262277375E+02  0.48268143931E+02  0.00000000000E+00 0.  1.
         11    1    3    3    0    0  0.41610751747E+02  0.10390705494E+02 -0.40508997036E+02  0.58994917259E+02  0.00000000000E+00 0. -1.
<mgrwt>
<rscale>  0 0.11807030E+03</rscale>
<asrwt>0</asrwt>
<pdfrwt beam="1">  1        3 0.94012441E-02 0.12767235E+03</pdfrwt>
<pdfrwt beam="2">  1       -3 0.30824546E-01 0.12767235E+03</pdfrwt>
<totfact> 0.18932054E+03</totfact>
</mgrwt>
</event>
<event>
 7    1  0.5107591E-006  0.1374252E+03  0.7546771E-02  0.1229072E+00
         -2   -1    0    0    0  501 -0.00000000000E+00  0.00000000000E+00  0.29861306433E+03  0.29861306433E+03  0.00000000000E+00 0.  1.
          2   -1    0    0  501    0  0.00000000000E+00 -0.00000000000E+00 -0.50325865590E+02  0.50325865590E+02  0.00000000000E+00 0. -1.
         23    2    1    2    0    0  0.13610526964E+02 -0.55451796255E+02  0.90545327211E+02  0.13973047474E+03  0.89810918825E+02 0.  0.
          5    1    1    2  502    0 -0.56538399556E+02  0.38722023720E+02  0.33113196634E+02  0.76253259186E+02  0.47000000000E+01 0.  1.
         -5    1    1    2    0  502  0.42927872591E+02  0.16729772536E+02  0.12462867489E+03  0.13295519599E+03  0.47000000000E+01 0.  1.
        -11    1    3    3    0    0 -0.35407115308E+02 -0.44530701205E+01  0.29937089786E+02  0.46580285452E+02  0.00000000000E+00 0.  1.
         11    1    3    3    0    0  0.49017642273E+02 -0.50998726135E+02  0.60608237425E+02  0.93150189292E+02  0.00000000000E+00 0. -1.
<mgrwt>
<rscale>  0 0.12891695E+03</rscale>
<asrwt>0</asrwt>
<pdfrwt beam="2">  1        2 0.77424411E-02 0.13742518E+03</pdfrwt>
<pdfrwt beam="1">  1       -2 0.45940470E-01 0.13742518E+03</pdfrwt>
<totfact> 0.38516926E+03</totfact>
</mgrwt>
</event>
<event>
 7    1  0.5107591E-006  0.1771881E+03  0.7546771E-02  0.1176427E+00
         -1   -1    0    0    0  501 -0.00000000000E+00  0.00000000000E+00  0.25032106434E+03  0.25032106434E+03  0.00000000000E+00 0.  1.
          1   -1    0    0  501    0  0.00000000000E+00 -0.00000000000E+00 -0.11194686971E+03  0.11194686971E+03  0.00000000000E+00 0. -1.
         23    2    1    2    0    0 -0.76370676243E+02 -0.99690687063E+02  0.42267645800E+02  0.16069389798E+03  0.90913484647E+02 0.  0.
          5    1    1    2  502    0  0.82320473521E+02  0.28132029562E+02  0.75224166376E+01  0.87445687144E+02  0.47000000000E+01 0.  1.
         -5    1    1    2    0  502 -0.59497972781E+01  0.71558657501E+02  0.88584132197E+02  0.11412834892E+03  0.47000000000E+01 0.  1.
        -11    1    3    3    0    0 -0.27705178646E+02 -0.55549252778E+02  0.66216411181E+02  0.90762930306E+02  0.00000000000E+00 0.  1.
         11    1    3    3    0    0 -0.48665497596E+02 -0.44141434284E+02 -0.23948765381E+02  0.69930967677E+02  0.00000000000E+00 0. -1.
<mgrwt>
<rscale>  0 0.17136954E+03</rscale>
<asrwt>0</asrwt>
<pdfrwt beam="2">  1        1 0.17222595E-01 0.17718810E+03</pdfrwt>
<pdfrwt beam="1">  1       -1 0.38510933E-01 0.17718810E+03</pdfrwt>
<totfact> 0.20178443E+03</totfact>
</mgrwt>
</event>
<event>
 7    1  0.5107591E-006  0.1232895E+03  0.7546771E-02  0.1245851E+00
         -1   -1    0    0    0  501 -0.00000000000E+00  0.00000000000E+00  0.10680643566E+03  0.10680643566E+03  0.00000000000E+00 0.  1.
          1   -1    0    0  501    0  0.00000000000E+00 -0.00000000000E+00 -0.13764201956E+03  0.13764201956E+03  0.00000000000E+00 0. -1.
         23    2    1    2    0    0 -0.46358076315E+02  0.22366810896E+02 -0.55860425824E+02  0.11864483795E+03  0.91142004200E+02 0.  0.
          5    1    1    2  502    0  0.41644829046E+02  0.32213113524E+02  0.42803775533E+02  0.68016392649E+02  0.47000000000E+01 0. -1.
         -5    1    1    2    0  502  0.47132472689E+01 -0.54579924419E+02 -0.17778933611E+02  0.57787224624E+02  0.47000000000E+01 0.  1.
        -11    1    3    3    0    0 -0.23865541211E+02 -0.16824884088E+02  0.16346533482E+02  0.33464159018E+02  0.00000000000E+00 0.  1.
         11    1    3    3    0    0 -0.22492535104E+02  0.39191694984E+02 -0.72206959306E+02  0.85180678932E+02  0.00000000000E+00 0. -1.
<mgrwt>
<rscale>  0 0.11834562E+03</rscale>
<asrwt>0</asrwt>
<pdfrwt beam="2">  1        1 0.21175695E-01 0.12328953E+03</pdfrwt>
<pdfrwt beam="1">  1       -1 0.16431759E-01 0.12328953E+03</pdfrwt>
<totfact> 0.62130839E+03</totfact>
</mgrwt>
</event>
<event>
 7    1  0.5107591E-006  0.1270204E+03  0.7546771E-02  0.1246284E+00
          1   -1    0    0  501    0  0.00000000000E+00  0.00000000000E+00  0.13315013028E+03  0.13315013028E+03  0.00000000000E+00 0. -1.
         -1   -1    0    0    0  501 -0.00000000000E+00 -0.00000000000E+00 -0.92570551742E+02  0.92570551742E+02  0.00000000000E+00 0.  1.
         23    2    1    2    0    0  0.19485404396E+02 -0.11340003895E+02  0.21248943765E+02  0.97237746642E+02  0.92170413301E+02 0.  0.
          5    1    1    2  502    0 -0.36436532916E+02 -0.14862709715E+02  0.63105359555E+02  0.74517766174E+02  0.47000000000E+01 0.  1.
         -5    1    1    2    0  502  0.16951128520E+02  0.26202713610E+02 -0.43774724777E+02  0.53965169211E+02  0.47000000000E+01 0.  1.
        -11    1    3    3    0    0  0.33579900243E+02  0.27764768167E+02  0.32286321857E+02  0.54230052838E+02  0.00000000000E+00 0. -1.
         11    1    3    3    0    0 -0.14094495847E+02 -0.39104772062E+02 -0.11037378092E+02  0.43007693805E+02  0.00000000000E+00 0.  1.
<mgrwt>
<rscale>  0 0.11808850E+03</rscale>
<asrwt>0</asrwt>
<pdfrwt beam="1">  1        1 0.20484635E-01 0.12702044E+03</pdfrwt>
<pdfrwt beam="2">  1       -1 0.14241623E-01 0.12702044E+03</pdfrwt>
<totfact> 0.81243798E+03</totfact>
</mgrwt>
</event>
<event>
 7    1  0.5107591E-006  0.1268400E+03  0.7546771E-02  0.1246841E+00
         -1   -1    0    0    0  501 -0.00000000000E+00  0.00000000000E+00  0.10331080840E+03  0.10331080840E+03  0.00000000000E+00 0.  1.
          1   -1    0    0  501    0  0.00000000000E+00 -0.00000000000E+00 -0.16377179189E+03  0.16377179189E+03  0.00000000000E+00 0. -1.
         23    2    1    2    0    0 -0.18077662335E+02 -0.11689705041E+02 -0.96847235701E+02  0.13512674482E+03  0.91740934282E+02 0.  0.
          5    1    1    2  502    0 -0.39000129220E+02  0.44197273850E+02  0.60158714540E+01  0.59436434989E+02  0.47000000000E+01 0. -1.
         -5    1    1    2    0  502  0.57077791555E+02 -0.32507568809E+02  0.30370380759E+02  0.72519420476E+02  0.47000000000E+01 0. -1.
        -11    1    3    3    0    0 -0.15746416438E+02  0.95842492266E+01 -0.10897830184E+03  0.11052636670E+03  0.00000000000E+00 0. -1.
         11    1    3    3    0    0 -0.23312458971E+01 -0.21273954267E+02  0.12131066143E+02  0.24600378114E+02  0.00000000000E+00 0.  1.
<mgrwt>
<rscale>  0 0.11775867E+03</rscale>
<asrwt>0</asrwt>
<pdfrwt beam="2">  1        1 0.25195660E-01 0.12684001E+03</pdfrwt>
<pdfrwt beam="1">  1       -1 0.15893971E-01 0.12684001E+03</pdfrwt>
<totfact> 0.52717360E+03</totfact>
</mgrwt>
</event>
<event>
 7    1  0.5107591E-006  0.1478881E+03  0.7546771E-02  0.1212527E+00
          1   -1    0    0  501    0  0.00000000000E+00  0.00000000000E+00  0.10732495145E+03  0.10732495145E+03  0.00000000000E+00 0. -1.
         -1   -1    0    0    0  501 -0.00000000000E+00 -0.00000000000E+00 -0.20836209880E+03  0.20836209880E+03  0.00000000000E+00 0.  1.
         23    2    1    2    0    0  0.47831586794E+01 -0.78901019643E+02  0.22620089922E+02  0.12291260228E+03  0.91365145564E+02 0.  0.
          5    1    1    2  502    0 -0.25653231584E+01  0.10510306923E+03 -0.12800290373E+03  0.16571080052E+03  0.47000000000E+01 0. -1.
         -5    1    1    2    0  502 -0.22178355210E+01 -0.26202049582E+02  0.43456664572E+01  0.27063647457E+02  0.47000000000E+01 0. -1.
        -11    1    3    3    0    0 -0.37248796492E+02 -0.66362874855E+02  0.21316800757E+02  0.79031069800E+02  0.00000000000E+00 0.  1.
         11    1    3    3    0    0  0.42031955172E+02 -0.12538144788E+02  0.13032891646E+01  0.43881532481E+02  0.00000000000E+00 0. -1.
<mgrwt>
<rscale>  0 0.14059777E+03</rscale>
<asrwt>0</asrwt>
<pdfrwt beam="1">  1        1 0.16511531E-01 0.14788805E+03</pdfrwt>
<pdfrwt beam="2">  1       -1 0.32055707E-01 0.14788805E+03</pdfrwt>
<totfact> 0.29021444E+03</totfact>
</mgrwt>
</event>
<event>
 7    1  0.5107591E-006  0.1512311E+03  0.7546771E-02  0.1207943E+00
          1   -1    0    0  501    0  0.00000000000E+00  0.00000000000E+00  0.61016565612E+02  0.61016565612E+02  0.00000000000E+00 0. -1.
         -1   -1    0    0    0  501 -0.00000000000E+00 -0.00000000000E+00 -0.32304856230E+03  0.32304856230E+03  0.00000000000E+00 0.  1.
         23    2    1    2    0    0 -0.72524939284E+02 -0.44605795860E+02 -0.82985924758E+02  0.14969718978E+03  0.90956259150E+02 0.  0.
          5    1    1    2  502    0  0.88838002998E+02  0.74822280324E+02 -0.14421022944E+03  0.18522754840E+03  0.47000000000E+01 0. -1.
         -5    1    1    2    0  502 -0.16313063715E+02 -0.30216484464E+02 -0.34835842484E+02  0.49140389729E+02  0.47000000000E+01 0. -1.
        -11    1    3    3    0    0 -0.64385419933E+02 -0.69494008533E+02 -0.78705304571E+02  0.12316421757E+03  0.00000000000E+00 0.  1.
         11    1    3    3    0    0 -0.81395193508E+01  0.24888212672E+02 -0.42806201863E+01  0.26532972213E+02  0.00000000000E+00 0. -1.
<mgrwt>
<rscale>  0 0.14407919E+03</rscale>
<asrwt>0</asrwt>
<pdfrwt beam="1">  1        1 0.93871640E-02 0.15123106E+03</pdfrwt>
<pdfrwt beam="2">  1       -1 0.49699779E-01 0.15123106E+03</pdfrwt>
<totfact> 0.28196142E+03</totfact>
</mgrwt>
</event>
<event>
 7    1  0.5107591E-006  0.1250521E+03  0.7546771E-02  0.1250602E+00
         -2   -1    0    0    0  501 -0.00000000000E+00  0.00000000000E+00  0.50880959811E+03  0.50880959811E+03  0.00000000000E+00 0.  1.
          2   -1    0    0  501    0  0.00000000000E+00 -0.00000000000E+00 -0.23334823985E+02  0.23334823985E+02  0.00000000000E+00 0. -1.
         23    2    1    2    0    0 -0.35089123370E+01 -0.64850947200E+00  0.17280781731E+03  0.19539725027E+03  0.91130733893E+02 0.  0.
          5    1    1    2  502    0  0.77561008313E+01  0.47783894055E+02  0.26494834156E+03  0.26937552102E+03  0.47000000000E+01 0. -1.
         -5    1    1    2    0  502 -0.42471884943E+01 -0.47135384583E+02  0.47718615260E+02  0.67371650805E+02  0.47000000000E+01 0. -1.
        -11    1    3    3    0    0 -0.33510595566E+02 -0.94413407750E+00  0.15877334294E+03  0.16227392222E+03  0.00000000000E+00 0.  1.
         11    1    3    3    0    0  0.30001683229E+02  0.29562460549E+00  0.14034474374E+02  0.33123328055E+02  0.00000000000E+00 0. -1.
<mgrwt>
<rscale>  0 0.11556270E+03</rscale>
<asrwt>0</asrwt>
<pdfrwt beam="2">  1        2 0.35899733E-02 0.12505212E+03</pdfrwt>
<pdfrwt beam="1">  1       -2 0.78278392E-01 0.12505212E+03</pdfrwt>
<totfact> 0.34687637E+03</totfact>
</mgrwt>
</event>
<event>
 7    1  0.5107591E-006  0.1306295E+03  0.7546771E-02  0.1240487E+00
         -2   -1    0    0    0  501 -0.00000000000E+00  0.00000000000E+00  0.68486904589E+02  0.68486904589E+02  0.00000000000E+00 0.  1.
          2   -1    0    0  501    0  0.00000000000E+00 -0.00000000000E+00 -0.23372177602E+03  0.23372177602E+03  0.00000000000E+00 0. -1.
         23    2    1    2    0    0  0.35371347871E+02 -0.13730033479E+02 -0.13712691530E+03  0.16858938713E+03  0.90437517018E+02 0.  0.
          5    1    1    2  502    0  0.63789014849E+01  0.92664473661E+01 -0.71807309533E+02  0.72834999371E+02  0.47000000000E+01 0. -1.
         -5    1    1    2    0  502 -0.41750249356E+02  0.44635861130E+01  0.43699353401E+02  0.60784294106E+02  0.47000000000E+01 0. -1.
        -11    1    3    3    0    0  0.65642647626E+01  0.23715757530E+02 -0.11279374079E+03  0.11544676127E+03  0.00000000000E+00 0. -1.
         11    1    3    3    0    0  0.28807083109E+02 -0.37445791009E+02 -0.24333174510E+02  0.53142625860E+02  0.00000000000E+00 0.  1.
<mgrwt>
<rscale>  0 0.12159614E+03</rscale>
<asrwt>0</asrwt>
<pdfrwt beam="2">  1        2 0.35957197E-01 0.13062947E+03</pdfrwt>
<pdfrwt beam="1">  1       -2 0.10536447E-01 0.13062947E+03</pdfrwt>
<totfact> 0.82791297E+03</totfact>
</mgrwt>
</event>
<event>
 7    1  0.5107591E-006  0.2698612E+03  0.7546771E-02  0.1135039E+00
         -4   -1    0    0    0  501 -0.00000000000E+00  0.00000000000E+00  0.92478692974E+02  0.92478692974E+02  0.00000000000E+00 0.  1.
          4   -1    0    0  501    0  0.00000000000E+00 -0.00000000000E+00 -0.48121950530E+03  0.48121950530E+03  0.00000000000E+00 0. -1.
         23    2    1    2    0    0  0.68444285294E+02 -0.15672107963E+02 -0.23769623507E+03  0.26444179980E+03  0.92193981131E+02 0.  0.
          5    1    1    2  502    0  0.16554692526E+02 -0.79993089365E+02 -0.16121990149E+03  0.18079518474E+03  0.47000000000E+01 0. -1.
         -5    1    1    2    0  502 -0.84998977820E+02  0.95665197329E+02  0.10175324230E+02  0.12846121373E+03  0.47000000000E+01 0.  1.
        -11    1    3    3    0    0  0.63353785452E+02  0.19191002304E+02 -0.85012233750E+02  0.10774542490E+03  0.00000000000E+00 0.  1.
         11    1    3    3    0    0  0.50904998425E+01 -0.34863110267E+02 -0.15268400132E+03  0.15669637489E+03  0.00000000000E+00 0. -1.
<mgrwt>
<rscale>  0 0.21845635E+03</rscale>
<asrwt>0</asrwt>
<pdfrwt beam="2">  1        4 0.74033770E-01 0.26986118E+03</pdfrwt>
<pdfrwt beam="1">  1       -4 0.14227491E-01 0.26986118E+03</pdfrwt>
<totfact> 0.12893203E+02</totfact>
</mgrwt>
</event>
<event>
 7    1  0.5107591E-006  0.1372931E+03  0.7546771E-02  0.1228344E+00
          4   -1    0    0  501    0  0.00000000000E+00  0.00000000000E+00  0.17243214153E+03  0.17243214153E+03  0.00000000000E+00 0. -1.
         -4   -1    0    0    0  501 -0.00000000000E+00 -0.00000000000E+00 -0.10601477272E+03  0.10601477272E+03  0.00000000000E+00 0.  1.
         23    2    1    2    0    0 -0.12762715021E+02  0.55344231056E+02  0.87849713118E+02  0.13949105957E+03  0.92273033974E+02 0.  0.
          5    1    1    2  502    0  0.39705844354E+02 -0.34655636282E+02 -0.64806003608E+02  0.83662866947E+02  0.47000000000E+01 0.  1.
         -5    1    1    2    0  502 -0.26943129334E+02 -0.20688594773E+02  0.43373659301E+02  0.55292987740E+02  0.47000000000E+01 0.  1.
        -11    1    3    3    0    0 -0.26546634785E+02  0.62962478128E+02  0.98930725088E+02  0.12023429559E+03  0.00000000000E+00 0. -1.
         11    1    3    3    0    0  0.13783919764E+02 -0.76182470722E+01 -0.11081011970E+02  0.19256763975E+02  0.00000000000E+00 0.  1.
<mgrwt>
<rscale>  0 0.12940343E+03</rscale>
<asrwt>0</asrwt>
<pdfrwt beam="1">  1        4 0.26528022E-01 0.13729306E+03</pdfrwt>
<pdfrwt beam="2">  1       -4 0.16309965E-01 0.13729306E+03</pdfrwt>
<totfact> 0.72315200E+02</totfact>
</mgrwt>
</event>
<event>
 7    1  0.5107591E-006  0.1296993E+03  0.7546771E-02  0.1242747E+00
         -1   -1    0    0    0  501 -0.00000000000E+00  0.00000000000E+00  0.52458614610E+02  0.52458614610E+02  0.00000000000E+00 0.  1.
          1   -1    0    0  501    0  0.00000000000E+00 -0.00000000000E+00 -0.24658356326E+03  0.24658356326E+03  0.00000000000E+00 0. -1.
         23    2    1    2    0    0 -0.28775430704E+02 -0.19241796918E+02 -0.10251192485E+03  0.14025033465E+03  0.89236704724E+02 0.  0.
          5    1    1    2  502    0 -0.32059683058E+02  0.19627127968E+02  0.10964633951E+02  0.39438060649E+02  0.47000000000E+01 0. -1.
         -5    1    1    2    0  502  0.60835113763E+02 -0.38533105029E+00 -0.10257765775E+03  0.11935378258E+03  0.47000000000E+01 0. -1.
        -11    1    3    3    0    0 -0.59982531458E+02 -0.11225664466E+02 -0.51183665114E+02  0.79647267356E+02  0.00000000000E+00 0. -1.
         11    1    3    3    0    0  0.31207100753E+02 -0.80161324515E+01 -0.51328259740E+02  0.60603067289E+02  0.00000000000E+00 0.  1.
<mgrwt>
<rscale>  0 0.12021226E+03</rscale>
<asrwt>0</asrwt>
<pdfrwt beam="2">  1        1 0.37935933E-01 0.12969928E+03</pdfrwt>
<pdfrwt beam="1">  1       -1 0.80705561E-02 0.12969928E+03</pdfrwt>
<totfact> 0.90000220E+03</totfact>
</mgrwt>
</event>
<event>
 7    1  0.5107591E-006  0.1745648E+03  0.7546771E-02  0.1179244E+00
          1   -1    0    0  501    0  0.00000000000E+00  0.00000000000E+00  0.83599224169E+03  0.83599224169E+03  0.00000000000E+00 0. -1.
         -1   -1    0    0    0  501 -0.00000000000E+00 -0.00000000000E+00 -0.37197964529E+02  0.37197964529E+02  0.00000000000E+00 0.  1.
         23    2    1    2    0    0 -0.11987742401E+03  0.21842193874E+02  0.54000377068E+03  0.56102773803E+03  0.91106378815E+02 0.  0.
          5    1    1    2  502    0  0.52710016276E+02  0.77195050789E+00  0.10557351160E+02  0.53967484534E+02  0.47000000000E+01 0.  1.
         -5    1    1    2    0  502  0.67167407737E+02 -0.22614144382E+02  0.24823315532E+03  0.25819498366E+03  0.47000000000E+01 0.  1.
        -11    1    3    3    0    0 -0.21474603415E+02  0.40005002088E+02  0.25394810915E+03  0.25797519440E+03  0.00000000000E+00 0.  1.
         11    1    3    3    0    0 -0.98402820597E+02 -0.18162808214E+02  0.28605566153E+03  0.30305254363E+03  0.00000000000E+00 0. -1.
<mgrwt>
<rscale>  0 0.16866768E+03</rscale>
<asrwt>0</asrwt>
<pdfrwt beam="1">  1        1 0.12861418E+00 0.17456483E+03</pdfrwt>
<pdfrwt beam="2">  1       -1 0.57227644E-02 0.17456483E+03</pdfrwt>
<totfact> 0.30509660E+03</totfact>
</mgrwt>
</event>
<event>
 7    1  0.5107591E-006  0.1337784E+03  0.7546771E-02  0.1235110E+00
         -1   -1    0    0    0  501 -0.00000000000E+00  0.00000000000E+00  0.79921380185E+02  0.79921380185E+02  0.00000000000E+00 0.  1.
          1   -1    0    0  501    0  0.00000000000E+00 -0.00000000000E+00 -0.20034514174E+03  0.20034514174E+03  0.00000000000E+00 0. -1.
         23    2    1    2    0    0 -0.41426570794E+02  0.23567213234E+02 -0.10381780534E+03  0.14546142273E+03  0.90051732300E+02 0.  0.
          5    1    1    2  502    0 -0.21065009593E+02  0.99761835375E+01  0.38236761463E+02  0.45026645382E+02  0.47000000000E+01 0.  1.
         -5    1    1    2    0  502  0.62491580388E+02 -0.33543396771E+02 -0.54842717682E+02  0.89778453813E+02  0.47000000000E+01 0.  1.
        -11    1    3    3    0    0 -0.16221040280E+02 -0.24672741222E+02 -0.81413297304E+02  0.86602490063E+02  0.00000000000E+00 0. -1.
         11    1    3    3    0    0 -0.25205530514E+02  0.48239954456E+02 -0.22404508031E+02  0.58858932665E+02  0.00000000000E+00 0.  1.
<mgrwt>
<rscale>  0 0.12497375E+03</rscale>
<asrwt>0</asrwt>
<pdfrwt beam="2">  1        1 0.30822329E-01 0.13377839E+03</pdfrwt>
<pdfrwt beam="1">  1       -1 0.12295597E-01 0.13377839E+03</pdfrwt>
<totfact> 0.61375674E+03</totfact>
</mgrwt>
</event>
<event>
 7    1  0.5107591E-006  0.2131334E+03  0.7546771E-02  0.1142835E+00
          1   -1    0    0  501    0  0.00000000000E+00  0.00000000000E+00  0.16830620484E+03  0.16830620484E+03  0.00000000000E+00 0. -1.
         -1   -1    0    0    0  501 -0.00000000000E+00 -0.00000000000E+00 -0.45817990674E+03  0.45817990674E+03  0.00000000000E+00 0.  1.
         23    2    1    2    0    0 -0.82410513370E+02 -0.15166851246E+03  0.70997836801E+02  0.20737503711E+03  0.90381872076E+02 0.  0.
          5    1    1    2  502    0  0.20383560864E+02  0.72659856305E+02 -0.45843464087E+02  0.88423172705E+02  0.47000000000E+01 0.  1.
         -5    1    1    2    0  502  0.62026952507E+02  0.79008656153E+02 -0.31502807461E+03  0.33068790177E+03  0.47000000000E+01 0.  1.
        -11    1    3    3    0    0 -0.64541386905E+02 -0.79989653997E+02 -0.29864475785E+01  0.10282438543E+03  0.00000000000E+00 0.  1.
         11    1    3    3    0    0 -0.17869126466E+02 -0.71678858460E+02  0.73984284380E+02  0.10455065168E+03  0.00000000000E+00 0. -1.
<mgrwt>
<rscale>  0 0.20840573E+03</rscale>
<asrwt>0</asrwt>
<pdfrwt beam="1">  1        1 0.25893262E-01 0.21313335E+03</pdfrwt>
<pdfrwt beam="2">  1       -1 0.70489216E-01 0.21313335E+03</pdfrwt>
<totfact> 0.38910301E+02</totfact>
</mgrwt>
</event>
<event>
 7    1  0.5107591E-006  0.1395851E+03  0.7546771E-02  0.1224860E+00
          1   -1    0    0  501    0  0.00000000000E+00  0.00000000000E+00  0.16554545823E+03  0.16554545823E+03  0.00000000000E+00 0. -1.
         -1   -1    0    0    0  501 -0.00000000000E+00 -0.00000000000E+00 -0.10010180278E+03  0.10010180278E+03  0.00000000000E+00 0.  1.
         23    2    1    2    0    0 -0.60717150908E+02 -0.13115726413E+02 -0.14856874729E+01  0.11084563095E+03  0.91792984156E+02 0.  0.
          5    1    1    2  502    0  0.46819383854E+02 -0.43437858062E+02  0.71756674144E+02  0.96176985302E+02  0.47000000000E+01 0.  1.
         -5    1    1    2    0  502  0.13897767054E+02  0.56553584475E+02 -0.48273312170E+01  0.58624644756E+02  0.47000000000E+01 0.  1.
        -11    1    3    3    0    0 -0.26220538227E+02  0.14780043740E+02 -0.41388785307E+02  0.51176145488E+02  0.00000000000E+00 0.  1.
         11    1    3    3    0    0 -0.34496612682E+02 -0.27895770153E+02  0.39903097834E+02  0.59669485465E+02  0.00000000000E+00 0. -1.
<mgrwt>
<rscale>  0 0.13176475E+03</rscale>
<asrwt>0</asrwt>
<pdfrwt beam="1">  1        1 0.25468532E-01 0.13958513E+03</pdfrwt>
<pdfrwt beam="2">  1       -1 0.15400277E-01 0.13958513E+03</pdfrwt>
<totfact> 0.54988037E+03</totfact>
</mgrwt>
</event>
<event>
 7    1  0.5107591E-006  0.2069620E+03  0.7546771E-02  0.1148075E+00
          1   -1    0    0  501    0  0.00000000000E+00  0.00000000000E+00  0.34870531416E+03  0.34870531416E+03  0.00000000000E+00 0. -1.
         -1   -1    0    0    0  501 -0.00000000000E+00 -0.00000000000E+00 -0.11703402494E+03  0.11703402494E+03  0.00000000000E+00 0.  1.
         23    2    1    2    0    0 -0.12209792364E+03  0.11090605800E+03  0.16009916796E+03  0.24675108411E+03  0.89701155351E+02 0.  0.
          5    1    1    2  502    0  0.55817432203E+02  0.20466470304E+02  0.17497183614E+02  0.62150652280E+02  0.47000000000E+01 0.  1.
         -5    1    1    2    0  502  0.66280491438E+02 -0.13137252831E+03  0.54074937648E+02  0.15683760270E+03  0.47000000000E+01 0.  1.
        -11    1    3    3    0    0 -0.45620608257E+02  0.43955581001E+02  0.12335427000E+03  0.13867086546E+03  0.00000000000E+00 0. -1.
         11    1    3    3    0    0 -0.76477315384E+02  0.66950477003E+02  0.36744897956E+02  0.10808021866E+03  0.00000000000E+00 0.  1.
<mgrwt>
<rscale>  0 0.20198523E+03</rscale>
<asrwt>0</asrwt>
<pdfrwt beam="1">  1        1 0.53646971E-01 0.20696204E+03</pdfrwt>
<pdfrwt beam="2">  1       -1 0.18005235E-01 0.20696204E+03</pdfrwt>
<totfact> 0.17191425E+03</totfact>
</mgrwt>
</event>
<event>
 7    1  0.5107591E-006  0.2007355E+03  0.7546771E-02  0.1155156E+00
         -1   -1    0    0    0  501 -0.00000000000E+00  0.00000000000E+00  0.71276576425E+03  0.71276576425E+03  0.00000000000E+00 0.  1.
          1   -1    0    0  501    0  0.00000000000E+00 -0.00000000000E+00 -0.49752648572E+02  0.49752648572E+02  0.00000000000E+00 0. -1.
         23    2    1    2    0    0  0.12389937049E+03  0.96539625133E+02  0.34543278993E+03  0.38681637836E+03  0.75047618081E+02 0.  0.
          5    1    1    2  502    0  0.86154988802E+01  0.38966802536E+01 -0.58000933907E+01  0.12047490249E+02  0.47000000000E+01 0.  1.
         -5    1    1    2    0  502 -0.13251486937E+03 -0.10043630539E+03  0.32338041914E+03  0.36365454422E+03  0.47000000000E+01 0.  1.
        -11    1    3    3    0    0  0.28554091126E+02  0.48512898672E+02  0.60983445231E+02  0.82992879513E+02  0.00000000000E+00 0. -1.
         11    1    3    3    0    0  0.95345279367E+02  0.48026726460E+02  0.28444934470E+03  0.30382349885E+03  0.00000000000E+00 0.  1.
<mgrwt>
<rscale>  0 0.19371091E+03</rscale>
<asrwt>0</asrwt>
<pdfrwt beam="2">  1        1 0.76542541E-02 0.20073554E+03</pdfrwt>
<pdfrwt beam="1">  1       -1 0.10965626E+00 0.20073554E+03</pdfrwt>
<totfact> 0.75195871E+02</totfact>
</mgrwt>
</event>
<event>
 7    1  0.5107591E-006  0.2113548E+03  0.7546771E-02  0.1143667E+00
         -2   -1    0    0    0  501 -0.00000000000E+00  0.00000000000E+00  0.73457043509E+03  0.73457043509E+03  0.00000000000E+00 0.  1.
          2   -1    0    0  501    0  0.00000000000E+00 -0.00000000000E+00 -0.63897739834E+02  0.63897739834E+02  0.00000000000E+00 0. -1.
         23    2    1    2    0    0  0.94885288463E+02 -0.14157308356E+03  0.18769986452E+03  0.27127408849E+03  0.96499927405E+02 0.  0.
          5    1    1    2  502    0 -0.50961321733E+02  0.15505591067E+03  0.40332571537E+03  0.43512425171E+03  0.47000000000E+01 0.  1.
         -5    1    1    2    0  502 -0.43923966730E+02 -0.13482827108E+02  0.79647115363E+02  0.92069834722E+02  0.47000000000E+01 0.  1.
        -11    1    3    3    0    0  0.67510662212E+02 -0.11382584835E+03  0.19076575321E+03  0.23217576502E+03  0.00000000000E+00 0.  1.
         11    1    3    3    0    0  0.27374626251E+02 -0.27747235216E+02 -0.30658886949E+01  0.39098323468E+02  0.00000000000E+00 0. -1.
<mgrwt>
<rscale>  0 0.20736795E+03</rscale>
<asrwt>0</asrwt>
<pdfrwt beam="2">  1        2 0.98304221E-02 0.21135480E+03</pdfrwt>
<pdfrwt beam="1">  1       -2 0.11301083E+00 0.21135480E+03</pdfrwt>
<totfact> 0.41891058E+02</totfact>
</mgrwt>
</event>
<event>
 7    1  0.5107591E-006  0.1627233E+03  0.7546771E-02  0.1193049E+00
          2   -1    0    0  501    0  0.00000000000E+00  0.00000000000E+00  0.33399699281E+03  0.33399699281E+03  0.00000000000E+00 0. -1.
         -2   -1    0    0    0  501 -0.00000000000E+00 -0.00000000000E+00 -0.76650044786E+02  0.76650044786E+02  0.00000000000E+00 0.  1.
         23    2    1    2    0    0 -0.61571896706E+02  0.84036382027E+02  0.18907161708E+03  0.23418065761E+03  0.90770546132E+02 0.  0.
          5    1    1    2  502    0 -0.35958610935E+02 -0.43913187721E+01  0.11851659349E+02  0.38403869731E+02  0.47000000000E+01 0. -1.
         -5    1    1    2    0  502  0.97530507641E+02 -0.79645063255E+02  0.56423671593E+02  0.13806251025E+03  0.47000000000E+01 0. -1.
        -11    1    3    3    0    0 -0.78369346801E+02  0.38284922224E+02  0.10037776743E+03  0.13297814099E+03  0.00000000000E+00 0.  1.
         11    1    3    3    0    0  0.16797450095E+02  0.45751459803E+02  0.88693849652E+02  0.10120251662E+03  0.00000000000E+00 0. -1.
<mgrwt>
<rscale>  0 0.15620506E+03</rscale>
<asrwt>0</asrwt>
<pdfrwt beam="1">  1        2 0.51384152E-01 0.16272327E+03</pdfrwt>
<pdfrwt beam="2">  1       -2 0.11792315E-01 0.16272327E+03</pdfrwt>
<totfact> 0.47992865E+03</totfact>
</mgrwt>
</event>
<event>
 7    1  0.5107591E-006  0.1441146E+03  0.7546771E-02  0.1218101E+00
         -1   -1    0    0    0  501 -0.00000000000E+00  0.00000000000E+00  0.16655755331E+02  0.16655755331E+02  0.00000000000E+00 0.  1.
          1   -1    0    0  501    0  0.00000000000E+00 -0.00000000000E+00 -0.10157699472E+04  0.10157699472E+04  0.00000000000E+00 0. -1.
         23    2    1    2    0    0  0.92302122075E+01 -0.71132846375E+02 -0.44698912784E+03  0.46180226241E+03  0.91197426046E+02 0.  0.
          5    1    1    2  502    0 -0.17527868071E+02  0.10464760834E+02 -0.70545856690E+01  0.22104175112E+02  0.47000000000E+01 0.  1.
         -5    1    1    2    0  502  0.82976558632E+01  0.60668085541E+02 -0.54507047834E+03  0.54851926498E+03  0.47000000000E+01 0.  1.
        -11    1    3    3    0    0  0.49048442033E+02 -0.30279658229E+02 -0.18968687474E+03  0.19825165275E+03  0.00000000000E+00 0.  1.
         11    1    3    3    0    0 -0.39818229826E+02 -0.40853188146E+02 -0.25730225309E+03  0.26355060967E+03  0.00000000000E+00 0. -1.
<mgrwt>
<rscale>  0 0.13651172E+03</rscale>
<asrwt>0</asrwt>
<pdfrwt beam="2">  1        1 0.15627230E+00 0.14411462E+03</pdfrwt>
<pdfrwt beam="1">  1       -1 0.25624239E-02 0.14411462E+03</pdfrwt>
<totfact> 0.72110598E+03</totfact>
</mgrwt>
</event>
<event>
 7    1  0.5107591E-006  0.1373253E+03  0.7546771E-02  0.1229030E+00
          1   -1    0    0  501    0  0.00000000000E+00  0.00000000000E+00  0.37242834439E+03  0.37242834439E+03  0.00000000000E+00 0. -1.
         -1   -1    0    0    0  501 -0.00000000000E+00 -0.00000000000E+00 -0.41348005829E+02  0.41348005829E+02  0.00000000000E+00 0.  1.
         23    2    1    2    0    0  0.52361706448E+02  0.22135881086E+02  0.18270535906E+03  0.21160471984E+03  0.90352441560E+02 0.  0.
          5    1    1    2  502    0 -0.11686951803E+02  0.32248211761E+02  0.12576054729E+03  0.13043901740E+03  0.47000000000E+01 0. -1.
         -5    1    1    2    0  502 -0.40674754645E+02 -0.54384092847E+02  0.22614432201E+02  0.71732612974E+02  0.47000000000E+01 0. -1.
        -11    1    3    3    0    0  0.77846108763E+02  0.23186411242E+02  0.13741824492E+03  0.15962894585E+03  0.00000000000E+00 0.  1.
         11    1    3    3    0    0 -0.25484402314E+02 -0.10505301560E+01  0.45287114142E+02  0.51975773994E+02  0.00000000000E+00 0. -1.
<mgrwt>
<rscale>  0 0.12894474E+03</rscale>
<asrwt>0</asrwt>
<pdfrwt beam="1">  1        1 0.57296666E-01 0.13732528E+03</pdfrwt>
<pdfrwt beam="2">  1       -1 0.63612319E-02 0.13732528E+03</pdfrwt>
<totfact> 0.77455718E+03</totfact>
</mgrwt>
</event>
<event>
 7    1  0.5107591E-006  0.1667300E+03  0.7546771E-02  0.1187930E+00
          1   -1    0    0  501    0  0.00000000000E+00  0.00000000000E+00  0.14520573220E+03  0.14520573220E+03  0.00000000000E+00 0. -1.
         -1   -1    0    0    0  501 -0.00000000000E+00 -0.00000000000E+00 -0.19002868673E+03  0.19002868673E+03  0.00000000000E+00 0.  1.
         23    2    1    2    0    0 -0.51018468582E+02 -0.97830215251E+02  0.38443432088E+02  0.14886873178E+03  0.92251648644E+02 0.  0.
          5    1    1    2  502    0  0.60188041199E+01  0.97787632727E+02 -0.98127126052E+02  0.13874317996E+03  0.47000000000E+01 0. -1.
         -5    1    1    2    0  502  0.44999664462E+02  0.42582524196E-01  0.14860739428E+02  0.47622507193E+02  0.47000000000E+01 0. -1.
        -11    1    3    3    0    0 -0.35291847849E+02 -0.81975460356E+02  0.67729916437E+02  0.11203942255E+03  0.00000000000E+00 0. -1.
         11    1    3    3    0    0 -0.15726620733E+02 -0.15854754895E+02 -0.29286484349E+02  0.36829309225E+02  0.00000000000E+00 0.  1.
<mgrwt>
<rscale>  0 0.16068101E+03</rscale>
<asrwt>0</asrwt>
<pdfrwt beam="1">  1        1 0.22339343E-01 0.16672996E+03</pdfrwt>
<pdfrwt beam="2">  1       -1 0.29235183E-01 0.16672996E+03</pdfrwt>
<totfact> 0.23150822E+03</totfact>
</mgrwt>
</event>
<event>
 7    1  0.5107591E-006  0.1715215E+03  0.7546771E-02  0.1182031E+00
          1   -1    0    0  501    0  0.00000000000E+00  0.00000000000E+00  0.20596777139E+03  0.20596777139E+03  0.00000000000E+00 0. -1.
         -1   -1    0    0    0  501 -0.00000000000E+00 -0.00000000000E+00 -0.13280793151E+03  0.13280793151E+03  0.00000000000E+00 0.  1.
         23    2    1    2    0    0  0.99213622668E+02 -0.62861452092E+02  0.72632914758E+02  0.16725340598E+03  0.94357068753E+02 0.  0.
          5    1    1    2  502    0 -0.25677812683E+02  0.26178487478E+02  0.59649975623E+02  0.70177438416E+02  0.47000000000E+01 0.  1.
         -5    1    1    2    0  502 -0.73535809985E+02  0.36682964614E+02 -0.59123050506E+02  0.10134485850E+03  0.47000000000E+01 0.  1.
        -11    1    3    3    0    0  0.33835273356E+02 -0.63155923725E+02  0.29607596455E+01  0.71709570647E+02  0.00000000000E+00 0.  1.
         11    1    3    3    0    0  0.65378349312E+02  0.29447163283E+00  0.69672155112E+02  0.95543835334E+02  0.00000000000E+00 0. -1.
<mgrwt>
<rscale>  0 0.16604956E+03</rscale>
<asrwt>0</asrwt>
<pdfrwt beam="1">  1        1 0.31687350E-01 0.17152149E+03</pdfrwt>
<pdfrwt beam="2">  1       -1 0.20431989E-01 0.17152149E+03</pdfrwt>
<totfact> 0.26937852E+03</totfact>
</mgrwt>
</event>
<event>
 7    1  0.5107591E-006  0.1388529E+03  0.7546771E-02  0.1225397E+00
          4   -1    0    0  501    0  0.00000000000E+00  0.00000000000E+00  0.57529836514E+02  0.57529836514E+02  0.00000000000E+00 0. -1.
         -4   -1    0    0    0  501 -0.00000000000E+00 -0.00000000000E+00 -0.27981283100E+03  0.27981283100E+03  0.00000000000E+00 0.  1.
         23    2    1    2    0    0  0.46566063290E+02  0.43571608629E+02 -0.71301010073E+02  0.13221905185E+03  0.91275189978E+02 0.  0.
          5    1    1    2  502    0 -0.18788173782E+01 -0.19237423047E+02  0.19072037672E+02  0.27557957493E+02  0.47000000000E+01 0. -1.
         -5    1    1    2    0  502 -0.44687245912E+02 -0.24334185582E+02 -0.17005402209E+03  0.17756565818E+03  0.47000000000E+01 0.  1.
        -11    1    3    3    0    0 -0.22082304391E+02 -0.90752744130E+01 -0.86057170308E+01  0.25378083822E+02  0.00000000000E+00 0.  1.
         11    1    3    3    0    0  0.68648367681E+02  0.52646883042E+02 -0.62695293042E+02  0.10684096803E+03  0.00000000000E+00 0. -1.
<mgrwt>
<rscale>  0 0.13139700E+03</rscale>
<asrwt>0</asrwt>
<pdfrwt beam="1">  1        4 0.88507442E-02 0.13885294E+03</pdfrwt>
<pdfrwt beam="2">  1       -4 0.43048127E-01 0.13885294E+03</pdfrwt>
<totfact> 0.81404955E+02</totfact>
</mgrwt>
</event>
<event>
 7    1  0.5107591E-006  0.1709858E+03  0.7546771E-02  0.1182985E+00
         -3   -1    0    0    0  501 -0.00000000000E+00  0.00000000000E+00  0.15265358820E+03  0.15265358820E+03  0.00000000000E+00 0.  1.
          3   -1    0    0  501    0  0.00000000000E+00 -0.00000000000E+00 -0.18371073092E+03  0.18371073092E+03  0.00000000000E+00 0. -1.
         23    2    1    2    0    0 -0.43169651087E+02 -0.10838903161E+03 -0.64328648763E+02  0.16217149120E+03  0.92464136611E+02 0.  0.
          5    1    1    2  502    0 -0.32809905291E+02  0.51458404796E+02 -0.21026370628E+02  0.64719823633E+02  0.47000000000E+01 0. -1.
         -5    1    1    2    0  502  0.75979556377E+02  0.56930626815E+02  0.54297876669E+02  0.10947300429E+03  0.47000000000E+01 0. -1.
        -11    1    3    3    0    0 -0.60682476563E+02 -0.45224780907E+02 -0.59822738177E+02  0.96469703912E+02  0.00000000000E+00 0. -1.
         11    1    3    3    0    0  0.17512825477E+02 -0.63164250704E+02 -0.45059105864E+01  0.65701787292E+02  0.00000000000E+00 0.  1.
<mgrwt>
<rscale>  0 0.16516566E+03</rscale>
<asrwt>0</asrwt>
<pdfrwt beam="2">  1        3 0.28263190E-01 0.17098581E+03</pdfrwt>
<pdfrwt beam="1">  1       -3 0.23485167E-01 0.17098581E+03</pdfrwt>
<totfact> 0.48322593E+02</totfact>
</mgrwt>
</event>
<event>
 7    1  0.5107591E-006  0.1440704E+03  0.7546771E-02  0.1218026E+00
          2   -1    0    0  501    0  0.00000000000E+00  0.00000000000E+00  0.30949928555E+03  0.30949928555E+03  0.00000000000E+00 0. -1.
         -2   -1    0    0    0  501 -0.00000000000E+00 -0.00000000000E+00 -0.55549316442E+02  0.55549316442E+02  0.00000000000E+00 0.  1.
         23    2    1    2    0    0  0.66933664806E+02  0.25565294053E+02  0.92103429980E+02  0.14836780167E+03  0.91631124709E+02 0.  0.
          5    1    1    2  502    0 -0.84090554165E+02 -0.36794865112E+02  0.53572998940E+02  0.10638251555E+03  0.47000000000E+01 0.  1.
         -5    1    1    2    0  502  0.17156889359E+02  0.11229571059E+02  0.10827354019E+03  0.11029828477E+03  0.47000000000E+01 0.  1.
        -11    1    3    3    0    0  0.16458707489E+02 -0.33930435415E+02  0.37140315831E+02  0.52929826749E+02  0.00000000000E+00 0.  1.
         11    1    3    3    0    0  0.50474957317E+02  0.59495729468E+02  0.54963114149E+02  0.95437974926E+02  0.00000000000E+00 0. -1.
<mgrwt>
<rscale>  0 0.13656614E+03</rscale>
<asrwt>0</asrwt>
<pdfrwt beam="1">  1        2 0.47615274E-01 0.14407035E+03</pdfrwt>
<pdfrwt beam="2">  1       -2 0.85460489E-02 0.14407035E+03</pdfrwt>
<totfact> 0.85833492E+03</totfact>
</mgrwt>
</event>
<event>
 7    1  0.5107591E-006  0.1714630E+03  0.7546771E-02  0.1183179E+00
          1   -1    0    0  501    0  0.00000000000E+00  0.00000000000E+00  0.76919960918E+02  0.76919960918E+02  0.00000000000E+00 0. -1.
         -1   -1    0    0    0  501 -0.00000000000E+00 -0.00000000000E+00 -0.40554218686E+03  0.40554218686E+03  0.00000000000E+00 0.  1.
         23    2    1    2    0    0  0.63471341133E+02 -0.10127098193E+03 -0.49907993630E+02  0.15522955088E+03  0.85562741364E+02 0.  0.
          5    1    1    2  502    0  0.87107720769E+00 -0.26573588403E+02 -0.60185648579E+02  0.65964510693E+02  0.47000000000E+01 0. -1.
         -5    1    1    2    0  502 -0.64342418341E+02  0.12784457034E+03 -0.21852858373E+03  0.26126808621E+03  0.47000000000E+01 0.  1.
        -11    1    3    3    0    0 -0.38666612560E+01 -0.97040221694E+01 -0.39767628540E+02  0.41116704577E+02  0.00000000000E+00 0.  1.
         11    1    3    3    0    0  0.67338002389E+02 -0.91566959765E+02 -0.10140365090E+02  0.11411284630E+03  0.00000000000E+00 0. -1.
<mgrwt>
<rscale>  0 0.16498637E+03</rscale>
<asrwt>0</asrwt>
<pdfrwt beam="1">  1        1 0.11833840E-01 0.17146297E+03</pdfrwt>
<pdfrwt beam="2">  1       -1 0.62391104E-01 0.17146297E+03</pdfrwt>
<totfact> 0.13595361E+03</totfact>
</mgrwt>
</event>
<event>
 7    1  0.5107591E-006  0.2092329E+03  0.7546771E-02  0.1145941E+00
         -2   -1    0    0    0  501 -0.00000000000E+00  0.00000000000E+00  0.66562166467E+02  0.66562166467E+02  0.00000000000E+00 0.  1.
          2   -1    0    0  501    0  0.00000000000E+00 -0.00000000000E+00 -0.60303992425E+03  0.60303992425E+03  0.00000000000E+00 0. -1.
         23    2    1    2    0    0  0.24581747580E+02  0.16606063566E+03 -0.26861998641E+03  0.32971061943E+03  0.91498625326E+02 0.  0.
          5    1    1    2  502    0 -0.59918373233E+02 -0.13464468963E+03 -0.24772509178E+03  0.28828668890E+03  0.47000000000E+01 0.  1.
         -5    1    1    2    0  502  0.35336625654E+02 -0.31415946030E+02 -0.20132679590E+02  0.51604782385E+02  0.47000000000E+01 0.  1.
        -11    1    3    3    0    0  0.17721467053E+01  0.11828106744E+02  0.64049694818E+01  0.13567175356E+02  0.00000000000E+00 0.  1.
         11    1    3    3    0    0  0.22809600874E+02  0.15423252892E+03 -0.27502495589E+03  0.31614344407E+03  0.00000000000E+00 0. -1.
<mgrwt>
<rscale>  0 0.20456769E+03</rscale>
<asrwt>0</asrwt>
<pdfrwt beam="2">  1        2 0.92775373E-01 0.20923295E+03</pdfrwt>
<pdfrwt beam="1">  1       -2 0.10240333E-01 0.20923295E+03</pdfrwt>
<totfact> 0.31709551E+03</totfact>
</mgrwt>
</event>
<event>
 7    1  0.5107591E-006  0.2080453E+03  0.7546771E-02  0.1146627E+00
          2   -1    0    0  501    0  0.00000000000E+00  0.00000000000E+00  0.26641770291E+03  0.26641770291E+03  0.00000000000E+00 0. -1.
         -2   -1    0    0    0  501 -0.00000000000E+00 -0.00000000000E+00 -0.20375002155E+03  0.20375002155E+03  0.00000000000E+00 0.  1.
         23    2    1    2    0    0  0.79905540205E+02  0.14585322079E+03  0.15140880361E+03  0.24398672332E+03  0.94587726339E+02 0.  0.
          5    1    1    2  502    0 -0.62948921872E+02 -0.15557547739E+03 -0.10694390419E+03  0.19906125835E+03  0.47000000000E+01 0.  1.
         -5    1    1    2    0  502 -0.16956618333E+02  0.97222566042E+01  0.18202781941E+02  0.27119742793E+02  0.47000000000E+01 0.  1.
        -11    1    3    3    0    0  0.54421694241E+02  0.10914192198E+03  0.47510832911E+02  0.13088529017E+03  0.00000000000E+00 0.  1.
         11    1    3    3    0    0  0.25483845964E+02  0.36711298807E+02  0.10389797070E+03  0.11310143315E+03  0.00000000000E+00 0. -1.
<mgrwt>
<rscale>  0 0.20373276E+03</rscale>
<asrwt>0</asrwt>
<pdfrwt beam="1">  1        2 0.40987339E-01 0.20804533E+03</pdfrwt>
<pdfrwt beam="2">  1       -2 0.31346157E-01 0.20804533E+03</pdfrwt>
<totfact> 0.11686767E+03</totfact>
</mgrwt>
</event>
<event>
 7    1  0.5107591E-006  0.1335354E+03  0.7546771E-02  0.1235320E+00
          1   -1    0    0  501    0  0.00000000000E+00  0.00000000000E+00  0.81368981233E+03  0.81368981233E+03  0.00000000000E+00 0. -1.
         -1   -1    0    0    0  501 -0.00000000000E+00 -0.00000000000E+00 -0.18415406388E+02  0.18415406388E+02  0.00000000000E+00 0.  1.
         23    2    1    2    0    0  0.25753377598E+02 -0.39283804985E+02  0.46089855485E+03  0.47205119508E+03  0.90545011601E+02 0.  0.
          5    1    1    2  502    0  0.27736903622E+02 -0.32224238712E+02  0.13315730604E+03  0.13985955647E+03  0.47000000000E+01 0. -1.
         -5    1    1    2    0  502 -0.53490281220E+02  0.71508043697E+02  0.20121854505E+03  0.22019446717E+03  0.47000000000E+01 0. -1.
        -11    1    3    3    0    0 -0.32617894699E+02 -0.20805704756E+02  0.22692778468E+03  0.23020213697E+03  0.00000000000E+00 0. -1.
         11    1    3    3    0    0  0.58371272297E+02 -0.18478100229E+02  0.23397077017E+03  0.24184905811E+03  0.00000000000E+00 0.  1.
<mgrwt>
<rscale>  0 0.12483940E+03</rscale>
<asrwt>0</asrwt>
<pdfrwt beam="1">  1        1 0.12518302E+00 0.13353535E+03</pdfrwt>
<pdfrwt beam="2">  1       -1 0.28331401E-02 0.13353535E+03</pdfrwt>
<totfact> 0.88607039E+03</totfact>
</mgrwt>
</event>
<event>
 7    1  0.5107591E-006  0.1585805E+03  0.7546771E-02  0.1197780E+00
          1   -1    0    0  501    0  0.00000000000E+00  0.00000000000E+00  0.69908498231E+02  0.69908498231E+02  0.00000000000E+00 0. -1.
         -1   -1    0    0    0  501 -0.00000000000E+00 -0.00000000000E+00 -0.31547737200E+03  0.31547737200E+03  0.00000000000E+00 0.  1.
         23    2    1    2    0    0  0.10728725548E+01  0.97570380635E+02 -0.82246594959E+02  0.15774152434E+03  0.92718692215E+02 0.  0.
          5    1    1    2  502    0  0.11175120795E+02 -0.96843416008E+02 -0.18098899822E+03  0.20562742528E+03  0.47000000000E+01 0. -1.
         -5    1    1    2    0  502 -0.12247993349E+02 -0.72696462790E+00  0.17666719410E+02  0.22016920615E+02  0.47000000000E+01 0. -1.
        -11    1    3    3    0    0  0.45854455650E+01  0.29323726394E+02  0.19255324044E+02  0.35379015599E+02  0.00000000000E+00 0. -1.
         11    1    3    3    0    0 -0.35125730102E+01  0.68246654241E+02 -0.10150191900E+03  0.12236250874E+03  0.00000000000E+00 0.  1.
<mgrwt>
<rscale>  0 0.15221268E+03</rscale>
<asrwt>0</asrwt>
<pdfrwt beam="1">  1        1 0.10755154E-01 0.15858052E+03</pdfrwt>
<pdfrwt beam="2">  1       -1 0.48534978E-01 0.15858052E+03</pdfrwt>
<totfact> 0.24624504E+03</totfact>
</mgrwt>
</event>
<event>
 7    1  0.5107591E-006  0.2369104E+03  0.7546771E-02  0.1124678E+00
          1   -1    0    0  501    0  0.00000000000E+00  0.00000000000E+00  0.66896638916E+03  0.66896638916E+03  0.00000000000E+00 0. -1.
         -1   -1    0    0    0  501 -0.00000000000E+00 -0.00000000000E+00 -0.80725941713E+02  0.80725941713E+02  0.00000000000E+00 0.  1.
         23    2    1    2    0    0  0.18319241659E+03  0.83326614015E+02  0.34861377206E+03  0.41272426763E+03  0.91142596618E+02 0.  0.
          5    1    1    2  502    0 -0.18696352869E+03 -0.74132372554E+02  0.16125688830E+03  0.25783103721E+03  0.47000000000E+01 0. -1.
         -5    1    1    2    0  502  0.37711120975E+01 -0.91942414609E+01  0.78369787083E+02  0.79137026036E+02  0.47000000000E+01 0. -1.
        -11    1    3    3    0    0  0.89305443517E+02  0.89980668994E+02  0.20351220908E+03  0.23976906031E+03  0.00000000000E+00 0.  1.
         11    1    3    3    0    0  0.93886973077E+02 -0.66540549789E+01  0.14510156297E+03  0.17295520732E+03  0.00000000000E+00 0. -1.
<mgrwt>
<rscale>  0 0.23280988E+03</rscale>
<asrwt>0</asrwt>
<pdfrwt beam="1">  1        1 0.10291790E+00 0.23691039E+03</pdfrwt>
<pdfrwt beam="2">  1       -1 0.12419376E-01 0.23691039E+03</pdfrwt>
<totfact> 0.13068240E+03</totfact>
</mgrwt>
</event>
<event>
 7    1  0.5107591E-006  0.1214784E+03  0.7546771E-02  0.1251180E+00
          1   -1    0    0  501    0  0.00000000000E+00  0.00000000000E+00  0.90761823698E+02  0.90761823698E+02  0.00000000000E+00 0. -1.
         -1   -1    0    0    0  501 -0.00000000000E+00 -0.00000000000E+00 -0.24062297834E+03  0.24062297834E+03  0.00000000000E+00 0.  1.
         23    2    1    2    0    0 -0.32023901927E+02  0.63947676095E+01  0.39847798192E+02  0.10611499742E+03  0.92769188365E+02 0.  0.
          5    1    1    2  502    0  0.35915531687E+02 -0.14940451415E+02 -0.41357018751E+01  0.39399702217E+02  0.47000000000E+01 0. -1.
         -5    1    1    2    0  502 -0.38916297593E+01  0.85456838051E+01 -0.18557325096E+03  0.18587010240E+03  0.47000000000E+01 0.  1.
        -11    1    3    3    0    0  0.53613307575E+01  0.40357706546E+02 -0.16493533602E+01  0.40745658808E+02  0.00000000000E+00 0. -1.
         11    1    3    3    0    0 -0.37385232685E+02 -0.33962938937E+02  0.41497151553E+02  0.65369338616E+02  0.00000000000E+00 0.  1.
<mgrwt>
<rscale>  0 0.11523034E+03</rscale>
<asrwt>0</asrwt>
<pdfrwt beam="1">  1        1 0.13963358E-01 0.12147839E+03</pdfrwt>
<pdfrwt beam="2">  1       -1 0.37018920E-01 0.12147839E+03</pdfrwt>
<totfact> 0.27898219E+03</totfact>
</mgrwt>
</event>
<event>
 7    1  0.5107591E-006  0.2267541E+03  0.7546771E-02  0.1128945E+00
         -2   -1    0    0    0  501 -0.00000000000E+00  0.00000000000E+00  0.25451518999E+03  0.25451518999E+03  0.00000000000E+00 0.  1.
          2   -1    0    0  501    0  0.00000000000E+00 -0.00000000000E+00 -0.50505247643E+02  0.50505247643E+02  0.00000000000E+00 0. -1.
         23    2    1    2    0    0 -0.25020523060E+02  0.52564063886E+01  0.54001217669E+02  0.10808616627E+03  0.90071257605E+02 0.  0.
          5    1    1    2  502    0  0.65622552561E+02 -0.19777750007E+01  0.14003777705E+03  0.15473493464E+03  0.47000000000E+01 0. -1.
         -5    1    1    2    0  502 -0.40602029501E+02 -0.32786313880E+01  0.99709476349E+01  0.42199336726E+02  0.47000000000E+01 0. -1.
        -11    1    3    3    0    0 -0.33925356380E+02  0.11902481346E+02  0.75646435428E+02  0.83755489734E+02  0.00000000000E+00 0.  1.
         11    1    3    3    0    0  0.89048333194E+01 -0.66460749574E+01 -0.21645217759E+02  0.24330676534E+02  0.00000000000E+00 0. -1.
<mgrwt>
<rscale>  0 0.22675408E+03</rscale>
<asrwt>0</asrwt>
<pdfrwt beam="2">  1        2 0.77700383E-02 0.22675408E+03</pdfrwt>
<pdfrwt beam="1">  1       -2 0.39156182E-01 0.22675408E+03</pdfrwt>
<totfact> 0.53855923E+03</totfact>
</mgrwt>
</event>
<event>
 7    1  0.5107591E-006  0.1428236E+03  0.7546771E-02  0.1219179E+00
         -1   -1    0    0    0  501 -0.00000000000E+00  0.00000000000E+00  0.39226730757E+03  0.39226730757E+03  0.00000000000E+00 0.  1.
          1   -1    0    0  501    0  0.00000000000E+00 -0.00000000000E+00 -0.77922122337E+02  0.77922122337E+02  0.00000000000E+00 0. -1.
         23    2    1    2    0    0 -0.55666302938E+02 -0.40920259734E+02 -0.88301613575E+01  0.11686113015E+03  0.93836810751E+02 0.  0.
          5    1    1    2  502    0  0.68236867773E+02 -0.26977922227E+02  0.17256366442E+03  0.18757501616E+03  0.47000000000E+01 0.  1.
         -5    1    1    2    0  502 -0.12570564835E+02  0.67898181961E+02  0.15061168217E+03  0.16575328359E+03  0.47000000000E+01 0.  1.
        -11    1    3    3    0    0 -0.66595927697E+01 -0.53236714626E+02 -0.30685045517E+02  0.61806714671E+02  0.00000000000E+00 0. -1.
         11    1    3    3    0    0 -0.49006710168E+02  0.12316454892E+02  0.21854884160E+02  0.55054415483E+02  0.00000000000E+00 0.  1.
<mgrwt>
<rscale>  0 0.13573964E+03</rscale>
<asrwt>0</asrwt>
<pdfrwt beam="2">  1        1 0.11988019E-01 0.14282361E+03</pdfrwt>
<pdfrwt beam="1">  1       -1 0.60348815E-01 0.14282361E+03</pdfrwt>
<totfact> 0.14167494E+03</totfact>
</mgrwt>
</event>
<event>
 7    1  0.5107591E-006  0.1342195E+03  0.7546771E-02  0.1234202E+00
         -3   -1    0    0    0  501 -0.00000000000E+00  0.00000000000E+00  0.13894564143E+03  0.13894564143E+03  0.00000000000E+00 0.  1.
          3   -1    0    0  501    0  0.00000000000E+00 -0.00000000000E+00 -0.11349596047E+03  0.11349596047E+03  0.00000000000E+00 0. -1.
         23    2    1    2    0    0 -0.37324267422E+02 -0.31586396010E+02 -0.30226292167E+02  0.10713264448E+03  0.90404498915E+02 0.  0.
          5    1    1    2  502    0  0.48784674543E+02  0.14970830051E+02  0.90952018114E+02  0.10439554503E+03  0.47000000000E+01 0. -1.
         -5    1    1    2    0  502 -0.11460407120E+02  0.16615565959E+02 -0.35276044991E+02  0.40913412394E+02  0.47000000000E+01 0. -1.
        -11    1    3    3    0    0 -0.76542319930E+01  0.31575225769E+02 -0.14609514850E+02  0.35623308015E+02  0.00000000000E+00 0.  1.
         11    1    3    3    0    0 -0.29670035429E+02 -0.63161621779E+02 -0.15616777316E+02  0.71509336467E+02  0.00000000000E+00 0. -1.
<mgrwt>
<rscale>  0 0.12555648E+03</rscale>
<asrwt>0</asrwt>
<pdfrwt beam="2">  1        3 0.17460917E-01 0.13421952E+03</pdfrwt>
<pdfrwt beam="1">  1       -3 0.21376253E-01 0.13421952E+03</pdfrwt>
<totfact> 0.13049718E+03</totfact>
</mgrwt>
</event>
<event>
 6    1  0.5107591E-006  0.3313397E+03  0.7546771E-02  0.1070546E+00
          2   -1    0    0  501    0  0.00000000000E+00  0.00000000000E+00  0.50160400082E+03  0.50160400082E+03  0.00000000000E+00 0. -1.
         -2   -1    0    0    0  501 -0.00000000000E+00 -0.00000000000E+00 -0.54717470823E+02  0.54717470823E+02  0.00000000000E+00 0.  1.
          5    1    1    2  502    0  0.38809756118E+02  0.10942907057E+03  0.15862673368E+03  0.19663532057E+03  0.47000000000E+01 0. -1.
         -5    1    1    2    0  502 -0.11446249836E+01 -0.24332725631E+02 -0.12416090630E+01  0.24839953624E+02  0.47000000000E+01 0. -1.
        -11    1    1    2    0    0 -0.43901906811E+02 -0.33137985050E+02  0.27513408083E+03  0.28057844876E+03  0.00000000000E+00 0. -1.
         11    1    1    2    0    0  0.62367756763E+01 -0.51958359892E+02  0.14367324553E+02  0.54267748694E+02  0.00000000000E+00 0.  1.
<mgrwt>
<rscale>  0 0.33133972E+03</rscale>
<asrwt>0</asrwt>
<pdfrwt beam="1">  1        2 0.77169843E-01 0.33133972E+03</pdfrwt>
<pdfrwt beam="2">  1       -2 0.84180728E-02 0.33133972E+03</pdfrwt>
<totfact> 0.54242973E+03</totfact>
</mgrwt>
</event>
<event>
 7    1  0.5107591E-006  0.1277166E+03  0.7546771E-02  0.1245712E+00
         -3   -1    0    0    0  501 -0.00000000000E+00  0.00000000000E+00  0.17038061471E+03  0.17038061471E+03  0.00000000000E+00 0.  1.
          3   -1    0    0  501    0  0.00000000000E+00 -0.00000000000E+00 -0.73411836030E+02  0.73411836030E+02  0.00000000000E+00 0. -1.
         23    2    1    2    0    0  0.20813633399E+02  0.15919089589E+02  0.27209672396E+02  0.98266266037E+02  0.90715313042E+02 0.  0.
          5    1    1    2  502    0  0.45977082026E+02 -0.12434819572E+02  0.61566495446E+02  0.77981024429E+02  0.47000000000E+01 0. -1.
         -5    1    1    2    0  502 -0.66790715426E+02 -0.34842700170E+01  0.81926108425E+01  0.67545160279E+02  0.47000000000E+01 0. -1.
        -11    1    3    3    0    0  0.38663814222E+02 -0.24448931776E+02  0.28875180966E+02  0.54096366523E+02  0.00000000000E+00 0. -1.
         11    1    3    3    0    0 -0.17850180822E+02  0.40368021365E+02 -0.16655085701E+01  0.44169899514E+02  0.00000000000E+00 0.  1.
<mgrwt>
<rscale>  0 0.11842849E+03</rscale>
<asrwt>0</asrwt>
<pdfrwt beam="2">  1        3 0.11294129E-01 0.12771663E+03</pdfrwt>
<pdfrwt beam="1">  1       -3 0.26212402E-01 0.12771663E+03</pdfrwt>
<totfact> 0.18815797E+03</totfact>
</mgrwt>
</event>
<event>
 7    1  0.5107591E-006  0.1510809E+03  0.7546771E-02  0.1204560E+00
          2   -1    0    0  501    0  0.00000000000E+00  0.00000000000E+00  0.78092168482E+03  0.78092168482E+03  0.00000000000E+00 0. -1.
         -2   -1    0    0    0  501 -0.00000000000E+00 -0.00000000000E+00 -0.28174795791E+02  0.28174795791E+02  0.00000000000E+00 0.  1.
         23    2    1    2    0    0 -0.61856845137E+01 -0.84632201530E+02  0.46590978425E+03  0.48490369694E+03  0.10420554695E+03 0.  0.
          5    1    1    2  502    0  0.45785314630E+02  0.98363327430E+02  0.19707548971E+03  0.22501661686E+03  0.47000000000E+01 0.  1.
         -5    1    1    2    0  502 -0.39599630116E+02 -0.13731125900E+02  0.89761615072E+02  0.99176166815E+02  0.47000000000E+01 0.  1.
        -11    1    3    3    0    0 -0.91352981505E+01  0.13288407246E+02  0.10892011737E+02  0.19459479929E+02  0.00000000000E+00 0.  1.
         11    1    3    3    0    0  0.29496136368E+01 -0.97920608777E+02  0.45501777252E+03  0.46544421701E+03  0.00000000000E+00 0. -1.
<mgrwt>
<rscale>  0 0.14672222E+03</rscale>
<asrwt>0</asrwt>
<pdfrwt beam="1">  1        2 0.12014178E+00 0.15108089E+03</pdfrwt>
<pdfrwt beam="2">  1       -2 0.43345846E-02 0.15108089E+03</pdfrwt>
<totfact> 0.86182346E+03</totfact>
</mgrwt>
</event>
<event>
 7    1  0.5107591E-006  0.1351213E+03  0.7546771E-02  0.1232003E+00
         -1   -1    0    0    0  501 -0.00000000000E+00  0.00000000000E+00  0.39759514390E+03  0.39759514390E+03  0.00000000000E+00 0.  1.
          1   -1    0    0  501    0  0.00000000000E+00 -0.00000000000E+00 -0.40271777625E+02  0.40271777625E+02  0.00000000000E+00 0. -1.
         23    2    1    2    0    0 -0.11750457372E+02 -0.49919930178E+02  0.22636550728E+03  0.24969750823E+03  0.92072960499E+02 0.  0.
          5    1    1    2  502    0 -0.17410264091E+02 -0.38071847566E+02  0.36478704030E+02  0.55725835305E+02  0.47000000000E+01 0.  1.
         -5    1    1    2    0  502  0.29160721463E+02  0.87991777744E+02  0.94479154970E+02  0.13244357799E+03  0.47000000000E+01 0.  1.
        -11    1    3    3    0    0 -0.38449450674E+02  0.10043328228E+02  0.87345806892E+02  0.95961026884E+02  0.00000000000E+00 0. -1.
         11    1    3    3    0    0  0.26698993302E+02 -0.59963258407E+02  0.13901970039E+03  0.15373648135E+03  0.00000000000E+00 0.  1.
<mgrwt>
<rscale>  0 0.12698281E+03</rscale>
<asrwt>0</asrwt>
<pdfrwt beam="2">  1        1 0.61956584E-02 0.13512131E+03</pdfrwt>
<pdfrwt beam="1">  1       -1 0.61168481E-01 0.13512131E+03</pdfrwt>
<totfact> 0.33276528E+03</totfact>
</mgrwt>
</event>
<event>
 7    1  0.5107591E-006  0.1452963E+03  0.7546771E-02  0.1216560E+00
          2   -1    0    0  501    0  0.00000000000E+00  0.00000000000E+00  0.22566170751E+03  0.22566170751E+03  0.00000000000E+00 0. -1.
         -2   -1    0    0    0  501 -0.00000000000E+00 -0.00000000000E+00 -0.88734825137E+02  0.88734825137E+02  0.00000000000E+00 0.  1.
         23    2    1    2    0    0  0.22437615791E+02  0.70550115928E+02  0.12090629437E+03  0.16821971199E+03  0.90547081811E+02 0.  0.
          5    1    1    2  502    0  0.48860837617E+02 -0.51794887721E+02  0.57187270746E+01  0.71588306909E+02  0.47000000000E+01 0.  1.
         -5    1    1    2    0  502 -0.71298453409E+02 -0.18755228207E+02  0.10301860921E+02  0.74588513740E+02  0.47000000000E+01 0.  1.
        -11    1    3    3    0    0  0.54273737479E+02  0.35172900101E+02  0.45595705952E+02  0.79131156208E+02  0.00000000000E+00 0.  1.
         11    1    3    3    0    0 -0.31836121688E+02  0.35377215827E+02  0.75310588422E+02  0.89088555787E+02  0.00000000000E+00 0. -1.
<mgrwt>
<rscale>  0 0.13762577E+03</rscale>
<asrwt>0</asrwt>
<pdfrwt beam="1">  1        2 0.34717186E-01 0.14529626E+03</pdfrwt>
<pdfrwt beam="2">  1       -2 0.13651512E-01 0.14529626E+03</pdfrwt>
<totfact> 0.57237630E+03</totfact>
</mgrwt>
</event>
<event>
 7    1  0.5107591E-006  0.1281181E+03  0.7546771E-02  0.1244595E+00
         -1   -1    0    0    0  501 -0.00000000000E+00  0.00000000000E+00  0.14765618956E+03  0.14765618956E+03  0.00000000000E+00 0.  1.
          1   -1    0    0  501    0  0.00000000000E+00 -0.00000000000E+00 -0.86930317745E+02  0.86930317745E+02  0.00000000000E+00 0. -1.
         23    2    1    2    0    0 -0.27191768097E+02 -0.70538573932E+01  0.78603816996E+01  0.95989899215E+02  0.91450128455E+02 0.  0.
          5    1    1    2  502    0  0.71808870458E+01 -0.55023784852E+00 -0.41160886914E+02  0.42049690986E+02  0.47000000000E+01 0.  1.
         -5    1    1    2    0  502  0.20010881051E+02  0.76040952417E+01  0.94026377035E+02  0.96546917108E+02  0.47000000000E+01 0.  1.
        -11    1    3    3    0    0 -0.20480560306E+02 -0.43492404128E+02  0.26090000716E+02  0.54696715666E+02  0.00000000000E+00 0.  1.
         11    1    3    3    0    0 -0.67112077914E+01  0.36438546734E+02 -0.18229619017E+02  0.41293183549E+02  0.00000000000E+00 0. -1.
<mgrwt>
<rscale>  0 0.11909653E+03</rscale>
<asrwt>0</asrwt>
<pdfrwt beam="2">  1        1 0.13373895E-01 0.12811815E+03</pdfrwt>
<pdfrwt beam="1">  1       -1 0.22716337E-01 0.12811815E+03</pdfrwt>
<totfact> 0.66939477E+03</totfact>
</mgrwt>
</event>
<event>
 7    1  0.5107591E-006  0.2300760E+03  0.7546771E-02  0.1129502E+00
          1   -1    0    0  501    0  0.00000000000E+00  0.00000000000E+00  0.54861519704E+02  0.54861519704E+02  0.00000000000E+00 0. -1.
         -1   -1    0    0    0  501 -0.00000000000E+00 -0.00000000000E+00 -0.89915167230E+03  0.89915167230E+03  0.00000000000E+00 0.  1.
         23    2    1    2    0    0  0.17910098302E+03  0.72343347545E+02 -0.40474481458E+03  0.45789318282E+03  0.92396319675E+02 0.  0.
          5    1    1    2  502    0 -0.12699841443E+03  0.13136932599E+02 -0.27900673693E+03  0.30686809140E+03  0.47000000000E+01 0. -1.
         -5    1    1    2    0  502 -0.52102568590E+02 -0.85480280144E+02 -0.16053860109E+03  0.18925191779E+03  0.47000000000E+01 0. -1.
        -11    1    3    3    0    0  0.11601980592E+03  0.64690416837E+02 -0.34877435298E+03  0.37321440848E+03  0.00000000000E+00 0.  1.
         11    1    3    3    0    0  0.63081177098E+02  0.76529307084E+01 -0.55970461595E+02  0.84678774340E+02  0.00000000000E+00 0. -1.
<mgrwt>
<rscale>  0 0.22597910E+03</rscale>
<asrwt>0</asrwt>
<pdfrwt beam="1">  1        1 0.84402344E-02 0.23007599E+03</pdfrwt>
<pdfrwt beam="2">  1       -1 0.13833102E+00 0.23007599E+03</pdfrwt>
<totfact> 0.37717484E+02</totfact>
</mgrwt>
</event>
<event>
 7    1  0.5107591E-006  0.1434215E+03  0.7546771E-02  0.1219728E+00
          2   -1    0    0  501    0  0.00000000000E+00  0.00000000000E+00  0.74905518127E+03  0.74905518127E+03  0.00000000000E+00 0.  1.
         -2   -1    0    0    0  501 -0.00000000000E+00 -0.00000000000E+00 -0.22086689992E+02  0.22086689992E+02  0.00000000000E+00 0. -1.
         23    2    1    2    0    0  0.64270884156E+02 -0.28518312503E+02  0.33054711812E+03  0.34957381443E+03  0.89422669045E+02 0.  0.
          5    1    1    2  502    0 -0.46899748928E+02 -0.46526697958E+02  0.18650807077E+03  0.19791834310E+03  0.47000000000E+01 0.  1.
         -5    1    1    2    0  502 -0.17371135228E+02  0.75045010461E+02  0.20991330239E+03  0.22364971374E+03  0.47000000000E+01 0.  1.
        -11    1    3    3    0    0  0.13369632490E+02 -0.27972592530E+02  0.25033176577E+02  0.39848123360E+02  0.00000000000E+00 0. -1.
         11    1    3    3    0    0  0.50901251666E+02 -0.54571997351E+00  0.30551394155E+03  0.30972569107E+03  0.00000000000E+00 0.  1.
<mgrwt>
<rscale>  0 0.13534878E+03</rscale>
<asrwt>0</asrwt>
<pdfrwt beam="1">  1        2 0.11523924E+00 0.14342148E+03</pdfrwt>
<pdfrwt beam="2">  1       -2 0.33979529E-02 0.14342148E+03</pdfrwt>
<totfact> 0.12984366E+04</totfact>
</mgrwt>
</event>
<event>
 7    1  0.5107591E-006  0.1526305E+03  0.7546771E-02  0.1206429E+00
          2   -1    0    0  501    0  0.00000000000E+00  0.00000000000E+00  0.70797300028E+03  0.70797300028E+03  0.00000000000E+00 0. -1.
         -2   -1    0    0    0  501 -0.00000000000E+00 -0.00000000000E+00 -0.27364590204E+02  0.27364590204E+02  0.00000000000E+00 0.  1.
         23    2    1    2    0    0 -0.82022329158E+02  0.30711458025E+02  0.28384566643E+03  0.31022965376E+03  0.89460715312E+02 0.  0.
          5    1    1    2  502    0  0.10776525594E+03 -0.50881775960E+02  0.32164858937E+03  0.34304840847E+03  0.47000000000E+01 0.  1.
         -5    1    1    2    0  502 -0.25742926781E+02  0.20170317935E+02  0.75114154278E+02  0.82059528257E+02  0.47000000000E+01 0.  1.
        -11    1    3    3    0    0 -0.77328794543E+02 -0.12688112823E+02  0.14689041925E+03  0.16648581303E+03  0.00000000000E+00 0.  1.
         11    1    3    3    0    0 -0.46935346152E+01  0.43399570848E+02  0.13695524718E+03  0.14374384072E+03  0.00000000000E+00 0. -1.
<mgrwt>
<rscale>  0 0.14525424E+03</rscale>
<asrwt>0</asrwt>
<pdfrwt beam="1">  1        2 0.10891891E+00 0.15263054E+03</pdfrwt>
<pdfrwt beam="2">  1       -2 0.42099375E-02 0.15263054E+03</pdfrwt>
<totfact> 0.10149471E+04</totfact>
</mgrwt>
</event>
<event>
 7    1  0.5107591E-006  0.2085157E+03  0.7546771E-02  0.1142747E+00
         -3   -1    0    0    0  501 -0.00000000000E+00  0.00000000000E+00  0.70225789153E+02  0.70225789153E+02  0.00000000000E+00 0.  1.
          3   -1    0    0  501    0  0.00000000000E+00 -0.00000000000E+00 -0.15478218512E+03  0.15478218512E+03  0.00000000000E+00 0. -1.
         23    2    1    2    0    0 -0.14003356053E+01 -0.18155206557E+02 -0.22855518832E+02  0.84426880149E+02  0.79208275361E+02 0.  0.
          5    1    1    2  502    0 -0.31340533451E+02 -0.44126019187E+02 -0.37548355097E+02  0.66040166390E+02  0.47000000000E+01 0.  1.
         -5    1    1    2    0  502  0.32740869056E+02  0.62281225744E+02 -0.24152522037E+02  0.74540927734E+02  0.47000000000E+01 0.  1.
        -11    1    3    3    0    0 -0.24956055633E+02 -0.13208452422E+02  0.20462493163E+02  0.34870927069E+02  0.00000000000E+00 0.  1.
         11    1    3    3    0    0  0.23555720028E+02 -0.49467541343E+01 -0.43318011995E+02  0.49555953080E+02  0.00000000000E+00 0. -1.
<mgrwt>
<rscale>  0 0.20851572E+03</rscale>
<asrwt>0</asrwt>
<pdfrwt beam="2">  1        3 0.23812644E-01 0.20851572E+03</pdfrwt>
<pdfrwt beam="1">  1       -3 0.10803968E-01 0.20851572E+03</pdfrwt>
<totfact> 0.26143459E+03</totfact>
</mgrwt>
</event>
<event>
 7    1  0.5107591E-006  0.1272907E+03  0.7546771E-02  0.1245732E+00
          3   -1    0    0  501    0  0.00000000000E+00  0.00000000000E+00  0.83042201379E+03  0.83042201379E+03  0.00000000000E+00 0. -1.
         -3   -1    0    0    0  501 -0.00000000000E+00 -0.00000000000E+00 -0.15119551315E+02  0.15119551315E+02  0.00000000000E+00 0.  1.
         23    2    1    2    0    0 -0.19555946248E+02  0.13970016785E+02  0.39786546070E+03  0.40912826497E+03  0.92257335660E+02 0.  0.
          5    1    1    2  502    0 -0.16059561963E+02  0.35562929547E+01  0.38377392812E+03  0.38415501384E+03  0.47000000000E+01 0.  1.
         -5    1    1    2    0  502  0.35615508211E+02 -0.17526309740E+02  0.33663073654E+02  0.52258286291E+02  0.47000000000E+01 0.  1.
        -11    1    3    3    0    0 -0.49334646815E+01  0.50894450064E+02  0.28322266177E+03  0.28780142505E+03  0.00000000000E+00 0.  1.
         11    1    3    3    0    0 -0.14622481567E+02 -0.36924433279E+02  0.11464279892E+03  0.12132683992E+03  0.00000000000E+00 0. -1.
<mgrwt>
<rscale>  0 0.11841645E+03</rscale>
<asrwt>0</asrwt>
<pdfrwt beam="1">  1        3 0.12775720E+00 0.12729068E+03</pdfrwt>
<pdfrwt beam="2">  1       -3 0.23260855E-02 0.12729068E+03</pdfrwt>
<totfact> 0.88315256E+02</totfact>
</mgrwt>
</event>
<event>
 7    1  0.5107591E-006  0.2212646E+03  0.7546771E-02  0.1136176E+00
          2   -1    0    0  501    0  0.00000000000E+00  0.00000000000E+00  0.20511546669E+03  0.20511546669E+03  0.00000000000E+00 0. -1.
         -2   -1    0    0    0  501 -0.00000000000E+00 -0.00000000000E+00 -0.29960088257E+03  0.29960088257E+03  0.00000000000E+00 0.  1.
         23    2    1    2    0    0  0.10326350624E+03 -0.15056538133E+03  0.83347679120E+02  0.22084555858E+03  0.92155517224E+02 0.  0.
          5    1    1    2  502    0 -0.16307321879E+02  0.94406497749E+02 -0.14742067350E+03  0.17587910774E+03  0.47000000000E+01 0.  1.
         -5    1    1    2    0  502 -0.86956184362E+02  0.56158883579E+02 -0.30412421494E+02  0.10799168294E+03  0.47000000000E+01 0.  1.
        -11    1    3    3    0    0 -0.14008683605E+02 -0.42897680901E+02  0.14549005846E+02  0.47414426224E+02  0.00000000000E+00 0. -1.
         11    1    3    3    0    0  0.11727218985E+03 -0.10766770043E+03  0.68798673274E+02  0.17343113236E+03  0.00000000000E+00 0.  1.
<mgrwt>
<rscale>  0 0.21695248E+03</rscale>
<asrwt>0</asrwt>
<pdfrwt beam="1">  1        2 0.31556226E-01 0.22126458E+03</pdfrwt>
<pdfrwt beam="2">  1       -2 0.46092443E-01 0.22126458E+03</pdfrwt>
<totfact> 0.74882474E+02</totfact>
</mgrwt>
</event>
<event>
 7    1  0.5107591E-006  0.1631061E+03  0.7546771E-02  0.1192355E+00
          1   -1    0    0  501    0  0.00000000000E+00  0.00000000000E+00  0.20010123478E+03  0.20010123478E+03  0.00000000000E+00 0. -1.
         -1   -1    0    0    0  501 -0.00000000000E+00 -0.00000000000E+00 -0.17448334806E+03  0.17448334806E+03  0.00000000000E+00 0.  1.
         23    2    1    2    0    0 -0.10332900859E+03  0.17389020101E+02  0.12195471502E+03  0.18515282901E+03  0.91811521830E+02 0.  0.
          5    1    1    2  502    0  0.11158651424E+02  0.21140769702E-01 -0.94729384634E+02  0.95500064197E+02  0.47000000000E+01 0.  1.
         -5    1    1    2    0  502  0.92170357165E+02 -0.17410160871E+02 -0.16074436608E+01  0.93931689629E+02  0.47000000000E+01 0.  1.
        -11    1    3    3    0    0 -0.20172317578E+02 -0.83895966712E+01 -0.12351702890E+02  0.25097256684E+02  0.00000000000E+00 0.  1.
         11    1    3    3    0    0 -0.83156691011E+02  0.25778616773E+02  0.13430641791E+03  0.16005557233E+03  0.00000000000E+00 0. -1.
<mgrwt>
<rscale>  0 0.15680215E+03</rscale>
<asrwt>0</asrwt>
<pdfrwt beam="1">  1        1 0.30784805E-01 0.16310612E+03</pdfrwt>
<pdfrwt beam="2">  1       -1 0.26843592E-01 0.16310612E+03</pdfrwt>
<totfact> 0.17819658E+03</totfact>
</mgrwt>
</event>
<event>
 7    1  0.5107591E-006  0.1404013E+03  0.7546771E-02  0.1221769E+00
         -1   -1    0    0    0  501 -0.00000000000E+00  0.00000000000E+00  0.28424072332E+02  0.28424072332E+02  0.00000000000E+00 0.  1.
          1   -1    0    0  501    0  0.00000000000E+00 -0.00000000000E+00 -0.58341025451E+03  0.58341025451E+03  0.00000000000E+00 0. -1.
         23    2    1    2    0    0  0.27987483173E+01 -0.63873428488E+02 -0.22506598283E+03  0.25328187518E+03  0.97001875277E+02 0.  0.
          5    1    1    2  502    0  0.85590032428E+01  0.99242733891E+02 -0.27073785813E+03  0.28851941805E+03  0.47000000000E+01 0. -1.
         -5    1    1    2    0  502 -0.11357751560E+02 -0.35369305403E+02 -0.59182341209E+02  0.70033033607E+02  0.47000000000E+01 0. -1.
        -11    1    3    3    0    0  0.13994267746E+02 -0.20052745020E+02 -0.76355146993E+00  0.24464977486E+02  0.00000000000E+00 0.  1.
         11    1    3    3    0    0 -0.11195519428E+02 -0.43820683469E+02 -0.22430243136E+03  0.22881689769E+03  0.00000000000E+00 0. -1.
<mgrwt>
<rscale>  0 0.13390846E+03</rscale>
<asrwt>0</asrwt>
<pdfrwt beam="2">  1        1 0.89755432E-01 0.14040129E+03</pdfrwt>
<pdfrwt beam="1">  1       -1 0.43729338E-02 0.14040129E+03</pdfrwt>
<totfact> 0.75681547E+03</totfact>
</mgrwt>
</event>
<event>
 7    1  0.5107591E-006  0.2217631E+03  0.7546771E-02  0.1135948E+00
         -1   -1    0    0    0  501 -0.00000000000E+00  0.00000000000E+00  0.13169247887E+03  0.13169247887E+03  0.00000000000E+00 0.  1.
          1   -1    0    0  501    0  0.00000000000E+00 -0.00000000000E+00 -0.34863721952E+03  0.34863721952E+03  0.00000000000E+00 0. -1.
         23    2    1    2    0    0  0.14529321824E+02 -0.18259740646E+03 -0.13005699054E+03  0.24215252938E+03  0.90388675478E+02 0.  0.
          5    1    1    2  502    0 -0.22086165848E+02  0.16716489750E+03 -0.21073316595E+02  0.16999434211E+03  0.47000000000E+01 0.  1.
         -5    1    1    2    0  502  0.75568440248E+01  0.15432508968E+02 -0.65814433517E+02  0.68182826898E+02  0.47000000000E+01 0.  1.
        -11    1    3    3    0    0  0.41175319350E+02 -0.40524868724E+02 -0.52734610893E+02  0.78221551344E+02  0.00000000000E+00 0.  1.
         11    1    3    3    0    0 -0.26645997526E+02 -0.14207253774E+03 -0.77322379647E+02  0.16393097803E+03  0.00000000000E+00 0. -1.
<mgrwt>
<rscale>  0 0.21725209E+03</rscale>
<asrwt>0</asrwt>
<pdfrwt beam="2">  1        1 0.53636495E-01 0.22176312E+03</pdfrwt>
<pdfrwt beam="1">  1       -1 0.20260381E-01 0.22176312E+03</pdfrwt>
<totfact> 0.14228019E+03</totfact>
</mgrwt>
</event>
<event>
 7    1  0.5107591E-006  0.2998775E+03  0.7546771E-02  0.1129058E+00
         -2   -1    0    0    0  501 -0.00000000000E+00  0.00000000000E+00  0.47283789022E+03  0.47283789022E+03  0.00000000000E+00 0.  1.
          2   -1    0    0  501    0  0.00000000000E+00 -0.00000000000E+00 -0.83991157744E+02  0.83991157744E+02  0.00000000000E+00 0. -1.
         23    2    1    2    0    0 -0.27323137762E+02 -0.23468633098E+02  0.79719349092E+02  0.12614787569E+03  0.90888840485E+02 0.  0.
          5    1    1    2  502    0 -0.75629520376E+02  0.32575218521E+02 -0.20673995318E+02  0.85032189766E+02  0.47000000000E+01 0. -1.
         -5    1    1    2    0  502  0.10295265814E+03 -0.91065854229E+01  0.32980137871E+03  0.34564898251E+03  0.47000000000E+01 0.  1.
        -11    1    3    3    0    0  0.30488807789E+02 -0.14018486039E+02  0.98543773730E+01  0.34974191980E+02  0.00000000000E+00 0.  1.
         11    1    3    3    0    0 -0.57811945551E+02 -0.94501470590E+01  0.69864971719E+02  0.91173683709E+02  0.00000000000E+00 0. -1.
<mgrwt>
<rscale>  0 0.22659716E+03</rscale>
<asrwt>0</asrwt>
<pdfrwt beam="2">  1        2 0.12921717E-01 0.29987753E+03</pdfrwt>
<pdfrwt beam="1">  1       -2 0.72744289E-01 0.29987753E+03</pdfrwt>
<totfact> 0.82053676E+02</totfact>
</mgrwt>
</event>
<event>
 7    1  0.5107591E-006  0.1903419E+03  0.7546771E-02  0.1175456E+00
         -2   -1    0    0    0  501 -0.00000000000E+00  0.00000000000E+00  0.23645109732E+03  0.23645109732E+03  0.00000000000E+00 0.  1.
          2   -1    0    0  501    0  0.00000000000E+00 -0.00000000000E+00 -0.23931006454E+03  0.23931006454E+03  0.00000000000E+00 0. -1.
         23    2    1    2    0    0  0.85123827681E+02 -0.30617232256E+02 -0.17662051902E+03  0.21803431337E+03  0.90336444017E+02 0.  0.
          5    1    1    2  502    0 -0.18296223074E+02 -0.30749610856E+02 -0.21751201275E+02  0.42136624253E+02  0.47000000000E+01 0. -1.
         -5    1    1    2    0  502 -0.66827604607E+02  0.61366843112E+02  0.19551275308E+03  0.21559022424E+03  0.47000000000E+01 0.  1.
        -11    1    3    3    0    0  0.67860593108E+02  0.17914152885E+02 -0.67546141719E+02  0.97408717432E+02  0.00000000000E+00 0. -1.
         11    1    3    3    0    0  0.17263234573E+02 -0.48531385142E+02 -0.10907437730E+03  0.12062559594E+03  0.00000000000E+00 0.  1.
<mgrwt>
<rscale>  0 0.17231424E+03</rscale>
<asrwt>0</asrwt>
<pdfrwt beam="2">  1        2 0.36816933E-01 0.19034193E+03</pdfrwt>
<pdfrwt beam="1">  1       -2 0.36377092E-01 0.19034193E+03</pdfrwt>
<totfact> 0.99462474E+02</totfact>
</mgrwt>
</event>
<event>
 7    1  0.5107591E-006  0.1353969E+03  0.7546771E-02  0.1231332E+00
         -3   -1    0    0    0  501 -0.00000000000E+00  0.00000000000E+00  0.28356660607E+03  0.28356660607E+03  0.00000000000E+00 0.  1.
          3   -1    0    0  501    0  0.00000000000E+00 -0.00000000000E+00 -0.51844303615E+02  0.51844303615E+02  0.00000000000E+00 0. -1.
         23    2    1    2    0    0  0.16700275815E+02 -0.49250201341E+02  0.87673889538E+02  0.13771852631E+03  0.92602375979E+02 0.  0.
          5    1    1    2  502    0  0.33255392385E+02  0.43129178121E+02  0.13591259062E+03  0.14649358149E+03  0.47000000000E+01 0.  1.
         -5    1    1    2    0  502 -0.49955668199E+02  0.61210232200E+01  0.81358222964E+01  0.51198801890E+02  0.47000000000E+01 0.  1.
        -11    1    3    3    0    0  0.28274699605E+02  0.19057430952E+02  0.44591806750E+02  0.56134423854E+02  0.00000000000E+00 0.  1.
         11    1    3    3    0    0 -0.11574423790E+02 -0.68307632293E+02  0.43082082788E+02  0.81584102452E+02  0.00000000000E+00 0. -1.
<mgrwt>
<rscale>  0 0.12742181E+03</rscale>
<asrwt>0</asrwt>
<pdfrwt beam="2">  1        3 0.79760469E-02 0.13539695E+03</pdfrwt>
<pdfrwt beam="1">  1       -3 0.43625631E-01 0.13539695E+03</pdfrwt>
<totfact> 0.12925755E+03</totfact>
</mgrwt>
</event>
<event>
 7    1  0.5107591E-006  0.1304517E+03  0.7546771E-02  0.1242789E+00
         -2   -1    0    0    0  501 -0.00000000000E+00  0.00000000000E+00  0.43846292016E+02  0.43846292016E+02  0.00000000000E+00 0.  1.
          2   -1    0    0  501    0  0.00000000000E+00 -0.00000000000E+00 -0.28721972059E+03  0.28721972059E+03  0.00000000000E+00 0. -1.
         23    2    1    2    0    0 -0.77422719941E+01 -0.36454101221E+02 -0.10162740242E+03  0.13842754720E+03  0.86285645562E+02 0.  0.
          5    1    1    2  502    0 -0.36662453931E+02  0.66041174658E+02 -0.69905743179E+02  0.10302657525E+03  0.47000000000E+01 0.  1.
         -5    1    1    2    0  502  0.44404725925E+02 -0.29587073437E+02 -0.71840282968E+02  0.89611890149E+02  0.47000000000E+01 0.  1.
        -11    1    3    3    0    0 -0.23105223869E+02  0.42450273915E+00  0.57883525456E+01  0.23823026630E+02  0.00000000000E+00 0.  1.
         11    1    3    3    0    0  0.15362951875E+02 -0.36878603960E+02 -0.10741575497E+03  0.11460452057E+03  0.00000000000E+00 0. -1.
<mgrwt>
<rscale>  0 0.12018695E+03</rscale>
<asrwt>0</asrwt>
<pdfrwt beam="2">  1        2 0.44187650E-01 0.13045169E+03</pdfrwt>
<pdfrwt beam="1">  1       -2 0.67455833E-02 0.13045169E+03</pdfrwt>
<totfact> 0.13272235E+04</totfact>
</mgrwt>
</event>
<event>
 7    1  0.5107591E-006  0.1323570E+03  0.7546771E-02  0.1236924E+00
          1   -1    0    0  501    0  0.00000000000E+00  0.00000000000E+00  0.82583078116E+03  0.82583078116E+03  0.00000000000E+00 0. -1.
         -1   -1    0    0    0  501 -0.00000000000E+00 -0.00000000000E+00 -0.16690889915E+02  0.16690889915E+02  0.00000000000E+00 0.  1.
         23    2    1    2    0    0  0.33992254654E+02 -0.27165437570E+02  0.39137286219E+03  0.40428922774E+03  0.91562153958E+02 0.  0.
          5    1    1    2  502    0  0.17769790889E+02  0.45770994117E+02  0.67273443411E+02  0.83417957054E+02  0.47000000000E+01 0. -1.
         -5    1    1    2    0  502 -0.51762045544E+02 -0.18605556547E+02  0.35049358565E+03  0.35481448628E+03  0.47000000000E+01 0. -1.
        -11    1    3    3    0    0  0.34737625210E+02 -0.59408356285E+02  0.25143902423E+03  0.26068685871E+03  0.00000000000E+00 0.  1.
         11    1    3    3    0    0 -0.74537055549E+00  0.32242918715E+02  0.13993383796E+03  0.14360236903E+03  0.00000000000E+00 0. -1.
<mgrwt>
<rscale>  0 0.12382088E+03</rscale>
<asrwt>0</asrwt>
<pdfrwt beam="1">  1        1 0.12705086E+00 0.13235703E+03</pdfrwt>
<pdfrwt beam="2">  1       -1 0.25678299E-02 0.13235703E+03</pdfrwt>
<totfact> 0.99866963E+03</totfact>
</mgrwt>
</event>
<event>
 7    1  0.5107591E-006  0.1434726E+03  0.7546771E-02  0.1223226E+00
         -2   -1    0    0    0  501 -0.00000000000E+00  0.00000000000E+00  0.17722261719E+03  0.17722261719E+03  0.00000000000E+00 0. -1.
          2   -1    0    0  501    0  0.00000000000E+00 -0.00000000000E+00 -0.88474129926E+02  0.88474129926E+02  0.00000000000E+00 0.  1.
         23    2    1    2    0    0  0.69431253987E+02  0.11801130458E+02  0.24046853404E+02  0.10830970879E+03  0.78694193866E+02 0.  0.
          5    1    1    2  502    0 -0.18068023285E+01 -0.50849196571E+02  0.60292868854E+02  0.79033064987E+02  0.47000000000E+01 0.  1.
         -5    1    1    2    0  502 -0.67624451659E+02  0.39048066113E+02  0.44087650029E+01  0.78353973340E+02  0.47000000000E+01 0.  1.
        -11    1    3    3    0    0  0.18350727203E+02  0.41880394360E+02  0.47563598392E+01  0.45971073291E+02  0.00000000000E+00 0.  1.
         11    1    3    3    0    0  0.51080526784E+02 -0.30079263901E+02  0.19290493565E+02  0.62338635495E+02  0.00000000000E+00 0. -1.
<mgrwt>
<rscale>  0 0.13289216E+03</rscale>
<asrwt>0</asrwt>
<pdfrwt beam="2">  1        2 0.13611405E-01 0.14347257E+03</pdfrwt>
<pdfrwt beam="1">  1       -2 0.27265018E-01 0.14347257E+03</pdfrwt>
<totfact> 0.50936689E+03</totfact>
</mgrwt>
</event>
<event>
 7    1  0.5107591E-006  0.1312033E+03  0.7546771E-02  0.1238419E+00
          2   -1    0    0  501    0  0.00000000000E+00  0.00000000000E+00  0.58270748561E+03  0.58270748561E+03  0.00000000000E+00 0. -1.
         -2   -1    0    0    0  501 -0.00000000000E+00 -0.00000000000E+00 -0.23129321792E+02  0.23129321792E+02  0.00000000000E+00 0.  1.
         23    2    1    2    0    0 -0.39017435936E+02  0.82934858203E+01  0.23811310024E+03  0.25862781839E+03  0.92732721985E+02 0.  0.
          5    1    1    2  502    0  0.41405166355E+02 -0.57259402238E+02  0.11586969649E+03  0.13579728830E+03  0.47000000000E+01 0.  1.
         -5    1    1    2    0  502 -0.23877304194E+01  0.48965916418E+02  0.20559536709E+03  0.21141170070E+03  0.47000000000E+01 0.  1.
        -11    1    3    3    0    0 -0.66080044602E+02  0.19158411394E+02  0.13571936954E+03  0.15216229589E+03  0.00000000000E+00 0.  1.
         11    1    3    3    0    0  0.27062608666E+02 -0.10864925573E+02  0.10239373070E+03  0.10646552250E+03  0.00000000000E+00 0. -1.
<mgrwt>
<rscale>  0 0.12288048E+03</rscale>
<asrwt>0</asrwt>
<pdfrwt beam="1">  1        2 0.89647295E-01 0.13120326E+03</pdfrwt>
<pdfrwt beam="2">  1       -2 0.35583576E-02 0.13120326E+03</pdfrwt>
<totfact> 0.16162366E+04</totfact>
</mgrwt>
</event>
<event>
 7    1  0.5107591E-006  0.1615024E+03  0.7546771E-02  0.1194182E+00
         -2   -1    0    0    0  501 -0.00000000000E+00  0.00000000000E+00  0.36410593878E+03  0.36410593878E+03  0.00000000000E+00 0. -1.
          2   -1    0    0  501    0  0.00000000000E+00 -0.00000000000E+00 -0.62951959588E+02  0.62951959588E+02  0.00000000000E+00 0.  1.
         23    2    1    2    0    0 -0.15525171543E+02  0.10108491708E+03  0.10698995829E+03  0.17450555840E+03  0.92445374812E+02 0.  0.
          5    1    1    2  502    0  0.16280118685E+02 -0.43359054452E+02  0.18871813459E+03  0.19437508634E+03  0.47000000000E+01 0. -1.
         -5    1    1    2    0  502 -0.75494714191E+00 -0.57725862632E+02  0.54458863111E+01  0.58177253627E+02  0.47000000000E+01 0. -1.
        -11    1    3    3    0    0  0.36561837702E+02  0.31827985822E+02  0.22377204171E+02  0.53390335494E+02  0.00000000000E+00 0.  1.
         11    1    3    3    0    0 -0.52087009245E+02  0.69256931262E+02  0.84612754120E+02  0.12111522291E+03  0.00000000000E+00 0. -1.
<mgrwt>
<rscale>  0 0.15523643E+03</rscale>
<asrwt>0</asrwt>
<pdfrwt beam="2">  1        2 0.96849171E-02 0.16150238E+03</pdfrwt>
<pdfrwt beam="1">  1       -2 0.56016297E-01 0.16150238E+03</pdfrwt>
<totfact> 0.19823909E+03</totfact>
</mgrwt>
</event>
<event>
 7    1  0.5107591E-006  0.1719156E+03  0.7546771E-02  0.1181643E+00
          1   -1    0    0  501    0  0.00000000000E+00  0.00000000000E+00  0.13500491691E+03  0.13500491691E+03  0.00000000000E+00 0. -1.
         -1   -1    0    0    0  501 -0.00000000000E+00 -0.00000000000E+00 -0.20647965636E+03  0.20647965636E+03  0.00000000000E+00 0.  1.
         23    2    1    2    0    0 -0.11046065217E+03 -0.41578290548E+02  0.99543904051E+01  0.15125927534E+03  0.94074271539E+02 0.  0.
          5    1    1    2  502    0  0.12989434866E+03  0.60243068525E+02 -0.59328548045E+02  0.15506042607E+03  0.47000000000E+01 0.  1.
         -5    1    1    2    0  502 -0.19433696498E+02 -0.18664777976E+02 -0.22100581811E+02  0.35164871859E+02  0.47000000000E+01 0.  1.
        -11    1    3    3    0    0 -0.19808749397E+02 -0.11649660345E+02 -0.38014374110E+02  0.44420645851E+02  0.00000000000E+00 0.  1.
         11    1    3    3    0    0 -0.90651902770E+02 -0.29928630203E+02  0.47968764515E+02  0.10683862949E+03  0.00000000000E+00 0. -1.
<mgrwt>
<rscale>  0 0.16641071E+03</rscale>
<asrwt>0</asrwt>
<pdfrwt beam="1">  1        1 0.20769987E-01 0.17191556E+03</pdfrwt>
<pdfrwt beam="2">  1       -1 0.31766101E-01 0.17191556E+03</pdfrwt>
<totfact> 0.22096030E+03</totfact>
</mgrwt>
</event>
<event>
 7    1  0.5107591E-006  0.1269242E+03  0.7546771E-02  0.1246993E+00
          2   -1    0    0  501    0  0.00000000000E+00  0.00000000000E+00  0.46919023545E+03  0.46919023545E+03  0.00000000000E+00 0. -1.
         -2   -1    0    0    0  501 -0.00000000000E+00 -0.00000000000E+00 -0.30381078608E+02  0.30381078608E+02  0.00000000000E+00 0.  1.
         23    2    1    2    0    0  0.85561267047E+00 -0.21964516575E+02  0.28571599793E+03  0.30070635115E+03  0.91145521479E+02 0.  0.
          5    1    1    2  502    0 -0.89136476318E+01  0.73460973162E+02  0.97813044059E+02  0.12274139188E+03  0.47000000000E+01 0. -1.
         -5    1    1    2    0  502  0.80580349613E+01 -0.51496456587E+02  0.55280114847E+02  0.76123571028E+02  0.47000000000E+01 0. -1.
        -11    1    3    3    0    0  0.17447424149E+02  0.27837586362E+02  0.17648232004E+03  0.17951421423E+03  0.00000000000E+00 0. -1.
         11    1    3    3    0    0 -0.16591811478E+02 -0.49802102938E+02  0.10923367789E+03  0.12119213692E+03  0.00000000000E+00 0.  1.
<mgrwt>
<rscale>  0 0.11766876E+03</rscale>
<asrwt>0</asrwt>
<pdfrwt beam="1">  1        2 0.72183107E-01 0.12692422E+03</pdfrwt>
<pdfrwt beam="2">  1       -2 0.46740125E-02 0.12692422E+03</pdfrwt>
<totfact> 0.13657645E+04</totfact>
</mgrwt>
</event>
<event>
 7    1  0.5107591E-006  0.1368541E+03  0.7546771E-02  0.1229398E+00
         -1   -1    0    0    0  501 -0.00000000000E+00  0.00000000000E+00  0.38644004241E+02  0.38644004241E+02  0.00000000000E+00 0. -1.
          1   -1    0    0  501    0  0.00000000000E+00 -0.00000000000E+00 -0.43274279129E+03  0.43274279129E+03  0.00000000000E+00 0.  1.
         23    2    1    2    0    0  0.43808166338E+02 -0.34430111929E+02 -0.25354096391E+03  0.27520943443E+03  0.91392693210E+02 0.  0.
          5    1    1    2  502    0 -0.63672450799E+02 -0.15489774987E+02 -0.28098142807E+02  0.71454249342E+02  0.47000000000E+01 0. -1.
         -5    1    1    2    0  502  0.19864284460E+02  0.49919886916E+02 -0.11245968033E+03  0.12472311175E+03  0.47000000000E+01 0. -1.
        -11    1    3    3    0    0  0.62084486176E+01 -0.37254562676E+02 -0.22439782131E+03  0.22755401443E+03  0.00000000000E+00 0.  1.
         11    1    3    3    0    0  0.37599717721E+02  0.28244507474E+01 -0.29143142605E+02  0.47655420002E+02  0.00000000000E+00 0. -1.
<mgrwt>
<rscale>  0 0.12869993E+03</rscale>
<asrwt>0</asrwt>
<pdfrwt beam="2">  1        1 0.66575815E-01 0.13685414E+03</pdfrwt>
<pdfrwt beam="1">  1       -1 0.59452314E-02 0.13685414E+03</pdfrwt>
<totfact> 0.70875380E+03</totfact>
</mgrwt>
</event>
<event>
 7    1  0.5107591E-006  0.1252505E+03  0.7546771E-02  0.1249266E+00
         -2   -1    0    0    0  501 -0.00000000000E+00  0.00000000000E+00  0.10059677984E+03  0.10059677984E+03  0.00000000000E+00 0. -1.
          2   -1    0    0  501    0  0.00000000000E+00 -0.00000000000E+00 -0.11863269688E+03  0.11863269688E+03  0.00000000000E+00 0.  1.
         23    2    1    2    0    0 -0.75432548583E+01 -0.24623751464E+01 -0.65544344874E+01  0.93453850598E+02  0.92885400333E+02 0.  0.
          5    1    1    2  502    0  0.30145346197E+02  0.31983710045E+02 -0.53549485306E+02  0.69435847961E+02  0.47000000000E+01 0. -1.
         -5    1    1    2    0  502 -0.22602091338E+02 -0.29521334898E+02  0.42068002752E+02  0.56339778155E+02  0.47000000000E+01 0. -1.
        -11    1    3    3    0    0 -0.29044711501E+02  0.41562519665E+01 -0.42143029041E+02  0.51350799344E+02  0.00000000000E+00 0.  1.
         11    1    3    3    0    0  0.21501456642E+02 -0.66186271129E+01  0.35588594553E+02  0.42103051254E+02  0.00000000000E+00 0. -1.
<mgrwt>
<rscale>  0 0.11633655E+03</rscale>
<asrwt>0</asrwt>
<pdfrwt beam="2">  1        2 0.18251184E-01 0.12525048E+03</pdfrwt>
<pdfrwt beam="1">  1       -2 0.15476428E-01 0.12525048E+03</pdfrwt>
<totfact> 0.93862640E+03</totfact>
</mgrwt>
</event>
<event>
 7    1  0.5107591E-006  0.1464745E+03  0.7546771E-02  0.1213573E+00
         -1   -1    0    0    0  501 -0.00000000000E+00  0.00000000000E+00  0.15127956050E+04  0.15127956050E+04  0.00000000000E+00 0.  1.
          1   -1    0    0  501    0  0.00000000000E+00 -0.00000000000E+00 -0.18495058306E+02  0.18495058306E+02  0.00000000000E+00 0. -1.
         23    2    1    2    0    0 -0.10074756049E+02  0.80033824493E+02  0.24591783822E+03  0.27434429663E+03  0.91007121506E+02 0.  0.
          5    1    1    2  502    0  0.64125137397E+02 -0.61189509068E+02  0.79544066704E+03  0.80037749472E+03  0.47000000000E+01 0. -1.
         -5    1    1    2    0  502 -0.54050381348E+02 -0.18844315424E+02  0.45294204141E+03  0.45656887194E+03  0.47000000000E+01 0.  1.
        -11    1    3    3    0    0 -0.88191514277E+01  0.48623779462E+02  0.23638549914E+03  0.24149565952E+03  0.00000000000E+00 0.  1.
         11    1    3    3    0    0 -0.12556046210E+01  0.31410045031E+02  0.95323390811E+01  0.32848637113E+02  0.00000000000E+00 0. -1.
<mgrwt>
<rscale>  0 0.13981851E+03</rscale>
<asrwt>0</asrwt>
<pdfrwt beam="2">  1        1 0.28453948E-02 0.14647451E+03</pdfrwt>
<pdfrwt beam="1">  1       -1 0.23273769E+00 0.14647451E+03</pdfrwt>
<totfact> 0.37444182E+02</totfact>
</mgrwt>
</event>
<event>
 7    1  0.5107591E-006  0.1420967E+03  0.7546771E-02  0.1221001E+00
         -1   -1    0    0    0  501 -0.00000000000E+00  0.00000000000E+00  0.95128605891E+02  0.95128605891E+02  0.00000000000E+00 0.  1.
          1   -1    0    0  501    0  0.00000000000E+00 -0.00000000000E+00 -0.17716625325E+03  0.17716625325E+03  0.00000000000E+00 0. -1.
         23    2    1    2    0    0  0.64423455039E+02  0.20412410458E+02 -0.59273456793E+02  0.12838625396E+03  0.91665912239E+02 0.  0.
          5    1    1    2  502    0 -0.83013813000E+02 -0.47506968835E+02 -0.43064877979E+02  0.10499942358E+03  0.47000000000E+01 0. -1.
         -5    1    1    2    0  502  0.18590357960E+02  0.27094558377E+02  0.20300687417E+02  0.38909181594E+02  0.47000000000E+01 0. -1.
        -11    1    3    3    0    0  0.16555822024E+02  0.23402507660E+02 -0.73060362502E+02  0.78483050250E+02  0.00000000000E+00 0. -1.
         11    1    3    3    0    0  0.47867633015E+02 -0.29900972022E+01  0.13786905709E+02  0.49903203713E+02  0.00000000000E+00 0.  1.
<mgrwt>
<rscale>  0 0.13444796E+03</rscale>
<asrwt>0</asrwt>
<pdfrwt beam="2">  1        1 0.27256347E-01 0.14209672E+03</pdfrwt>
<pdfrwt beam="1">  1       -1 0.14635170E-01 0.14209672E+03</pdfrwt>
<totfact> 0.54769406E+03</totfact>
</mgrwt>
</event>
<event>
 7    1  0.5107591E-006  0.1340046E+03  0.7546771E-02  0.1236884E+00
          2   -1    0    0  501    0  0.00000000000E+00  0.00000000000E+00  0.28098236015E+02  0.28098236015E+02  0.00000000000E+00 0.  1.
         -2   -1    0    0    0  501 -0.00000000000E+00 -0.00000000000E+00 -0.49822827958E+03  0.49822827958E+03  0.00000000000E+00 0. -1.
         23    2    1    2    0    0 -0.47686326799E+02  0.76398045094E+01 -0.14730547564E+03  0.17679407026E+03  0.84999339697E+02 0.  0.
          5    1    1    2  502    0  0.52329146844E+01 -0.56404254947E+02 -0.79561821933E+02  0.97780350181E+02  0.47000000000E+01 0. -1.
         -5    1    1    2    0  502  0.42453412114E+02  0.48764450438E+02 -0.24326274599E+03  0.25175209515E+03  0.47000000000E+01 0. -1.
        -11    1    3    3    0    0  0.61430305487E+01  0.91445935586E+01  0.72084374844E+01  0.13165180843E+02  0.00000000000E+00 0.  1.
         11    1    3    3    0    0 -0.53829357347E+02 -0.15047890492E+01 -0.15451391312E+03  0.16362888942E+03  0.00000000000E+00 0. -1.
<mgrwt>
<rscale>  0 0.12384581E+03</rscale>
<asrwt>0</asrwt>
<pdfrwt beam="1">  1        2 0.43228051E-02 0.13400458E+03</pdfrwt>
<pdfrwt beam="2">  1       -2 0.76650513E-01 0.13400458E+03</pdfrwt>
<totfact> 0.28541625E+03</totfact>
</mgrwt>
</event>
<event>
 7    1  0.5107591E-006  0.1306347E+03  0.7546771E-02  0.1240268E+00
          1   -1    0    0  501    0  0.00000000000E+00  0.00000000000E+00  0.20434110239E+03  0.20434110239E+03  0.00000000000E+00 0. -1.
         -1   -1    0    0    0  501 -0.00000000000E+00 -0.00000000000E+00 -0.64399957084E+02  0.64399957084E+02  0.00000000000E+00 0.  1.
         23    2    1    2    0    0 -0.37216278348E+02  0.73656791179E+01  0.66941789322E+02  0.11909367783E+03  0.90899924851E+02 0.  0.
          5    1    1    2  502    0 -0.21718122306E+02  0.14785122522E+02  0.81669325063E+02  0.85919993836E+02  0.47000000000E+01 0. -1.
         -5    1    1    2    0  502  0.58934400654E+02 -0.22150801639E+02 -0.86699690774E+01  0.63727387813E+02  0.47000000000E+01 0. -1.
        -11    1    3    3    0    0 -0.23803418693E+02 -0.30376516750E+02  0.68920994181E+02  0.78990119320E+02  0.00000000000E+00 0. -1.
         11    1    3    3    0    0 -0.13412859655E+02  0.37742195868E+02 -0.19792048583E+01  0.40103558507E+02  0.00000000000E+00 0.  1.
<mgrwt>
<rscale>  0 0.12173129E+03</rscale>
<asrwt>0</asrwt>
<pdfrwt beam="1">  1        1 0.31437092E-01 0.13063473E+03</pdfrwt>
<pdfrwt beam="2">  1       -1 0.99076858E-02 0.13063473E+03</pdfrwt>
<totfact> 0.83268054E+03</totfact>
</mgrwt>
</event>
<event>
 7    1  0.5107591E-006  0.1355166E+03  0.7546771E-02  0.1230951E+00
          3   -1    0    0  501    0  0.00000000000E+00  0.00000000000E+00  0.35691228864E+03  0.35691228864E+03  0.00000000000E+00 0. -1.
         -3   -1    0    0    0  501 -0.00000000000E+00 -0.00000000000E+00 -0.46117724578E+02  0.46117724578E+02  0.00000000000E+00 0.  1.
         23    2    1    2    0    0 -0.36419746237E+02 -0.37604141638E+02  0.20490411199E+03  0.23104883097E+03  0.93045138500E+02 0.  0.
          5    1    1    2  502    0 -0.27780441804E+02  0.48657921198E+02  0.87708397620E+02  0.10418348840E+03  0.47000000000E+01 0.  1.
         -5    1    1    2    0  502  0.64200188042E+02 -0.11053779559E+02  0.18182054455E+02  0.67797693850E+02  0.47000000000E+01 0.  1.
        -11    1    3    3    0    0  0.31207789503E+02 -0.19059531009E+02  0.74215425527E+02  0.82735247834E+02  0.00000000000E+00 0. -1.
         11    1    3    3    0    0 -0.67627535740E+02 -0.18544610629E+02  0.13068868646E+03  0.14831358314E+03  0.00000000000E+00 0.  1.
<mgrwt>
<rscale>  0 0.12767246E+03</rscale>
<asrwt>0</asrwt>
<pdfrwt beam="1">  1        3 0.54909581E-01 0.13551656E+03</pdfrwt>
<pdfrwt beam="2">  1       -3 0.70950348E-02 0.13551656E+03</pdfrwt>
<totfact> 0.98951692E+02</totfact>
</mgrwt>
</event>
<event>
 7    1  0.5107591E-006  0.2196297E+03  0.7546771E-02  0.1134159E+00
          1   -1    0    0  501    0  0.00000000000E+00  0.00000000000E+00  0.65753417812E+02  0.65753417812E+02  0.00000000000E+00 0. -1.
         -1   -1    0    0    0  501 -0.00000000000E+00 -0.00000000000E+00 -0.18340182811E+03  0.18340182811E+03  0.00000000000E+00 0.  1.
         23    2    1    2    0    0  0.13404055616E+02  0.14855766997E+02 -0.32996911171E+02  0.96869160102E+02  0.88850861065E+02 0.  0.
          5    1    1    2  502    0  0.28107265339E+02  0.41652161717E+02 -0.13414218485E+02  0.52220227863E+02  0.47000000000E+01 0. -1.
         -5    1    1    2    0  502 -0.41511320956E+02 -0.56507928714E+02 -0.71237280638E+02  0.10006585795E+03  0.47000000000E+01 0. -1.
        -11    1    3    3    0    0 -0.63143481301E+01  0.22475889588E+02  0.25557673031E+02  0.34615477114E+02  0.00000000000E+00 0. -1.
         11    1    3    3    0    0  0.19718403746E+02 -0.76201225906E+01 -0.58554584201E+02  0.62253682988E+02  0.00000000000E+00 0.  1.
<mgrwt>
<rscale>  0 0.21962966E+03</rscale>
<asrwt>0</asrwt>
<pdfrwt beam="1">  1        1 0.10115910E-01 0.21962966E+03</pdfrwt>
<pdfrwt beam="2">  1       -1 0.28215666E-01 0.21962966E+03</pdfrwt>
<totfact> 0.70166543E+03</totfact>
</mgrwt>
</event>
<event>
 7    1  0.5107591E-006  0.1260228E+03  0.7546771E-02  0.1245009E+00
         -2   -1    0    0    0  501 -0.00000000000E+00  0.00000000000E+00  0.72502892735E+02  0.72502892735E+02  0.00000000000E+00 0. -1.
          2   -1    0    0  501    0  0.00000000000E+00 -0.00000000000E+00 -0.22993752761E+03  0.22993752761E+03  0.00000000000E+00 0.  1.
         23    2    1    2    0    0  0.86553099206E+01  0.13680459493E+02 -0.14478755576E+03  0.17578464724E+03  0.98360238616E+02 0.  0.
          5    1    1    2  502    0 -0.21260889856E+02 -0.65965579197E+02 -0.19707812186E+02  0.72207831552E+02  0.47000000000E+01 0. -1.
         -5    1    1    2    0  502  0.12605579935E+02  0.52285119704E+02  0.70607330695E+01  0.54447941554E+02  0.47000000000E+01 0. -1.
        -11    1    3    3    0    0  0.47359392967E+02  0.19319591062E+02 -0.11733654195E+03  0.12800008897E+03  0.00000000000E+00 0.  1.
         11    1    3    3    0    0 -0.38704083046E+02 -0.56391315692E+01 -0.27451013808E+02  0.47784558263E+02  0.00000000000E+00 0. -1.
<mgrwt>
<rscale>  0 0.11884820E+03</rscale>
<asrwt>0</asrwt>
<pdfrwt beam="2">  1        2 0.35375004E-01 0.12602276E+03</pdfrwt>
<pdfrwt beam="1">  1       -2 0.11154291E-01 0.12602276E+03</pdfrwt>
<totfact> 0.76790441E+03</totfact>
</mgrwt>
</event>
<event>
 7    1  0.5107591E-006  0.3338763E+03  0.7546771E-02  0.1105608E+00
          2   -1    0    0  501    0  0.00000000000E+00  0.00000000000E+00  0.61372812024E+03  0.61372812024E+03  0.00000000000E+00 0. -1.
         -2   -1    0    0    0  501 -0.00000000000E+00 -0.00000000000E+00 -0.98972318159E+02  0.98972318159E+02  0.00000000000E+00 0.  1.
         23    2    1    2    0    0  0.49311204547E+02  0.72122147888E+02  0.27012625963E+03  0.29879582953E+03  0.93153381553E+02 0.  0.
          5    1    1    2  502    0  0.60107383329E+02 -0.48303503690E+02  0.28460926919E+03  0.29490787054E+03  0.47000000000E+01 0. -1.
         -5    1    1    2    0  502 -0.10941858788E+03 -0.23818644198E+02 -0.39979726729E+02  0.11899673833E+03  0.47000000000E+01 0.  1.
        -11    1    3    3    0    0  0.12091804518E+02 -0.22014048279E+02  0.72962551611E+02  0.77164525501E+02  0.00000000000E+00 0. -1.
         11    1    3    3    0    0  0.37219400029E+02  0.94136196167E+02  0.19716370801E+03  0.22163130403E+03  0.00000000000E+00 0.  1.
<mgrwt>
<rscale>  0 0.26257204E+03</rscale>
<asrwt>0</asrwt>
<pdfrwt beam="1">  1        2 0.94419709E-01 0.33387634E+03</pdfrwt>
<pdfrwt beam="2">  1       -2 0.15226511E-01 0.33387634E+03</pdfrwt>
<totfact> 0.16428982E+03</totfact>
</mgrwt>
</event>
<event>
 7    1  0.5107591E-006  0.2242868E+03  0.7546771E-02  0.1133998E+00
          1   -1    0    0  501    0  0.00000000000E+00  0.00000000000E+00  0.55892712112E+03  0.55892712112E+03  0.00000000000E+00 0. -1.
         -1   -1    0    0    0  501 -0.00000000000E+00 -0.00000000000E+00 -0.91031350818E+02  0.91031350818E+02  0.00000000000E+00 0.  1.
         23    2    1    2    0    0  0.33603216925E+02 -0.18316791407E+03  0.32055632479E+03  0.38160516073E+03  0.90479171094E+02 0.  0.
          5    1    1    2  502    0  0.30334501645E+02  0.12453276678E+03  0.12398219124E+03  0.17838796410E+03  0.47000000000E+01 0.  1.
         -5    1    1    2    0  502 -0.63937718570E+02  0.58635147284E+02  0.23357254283E+02  0.89965347110E+02  0.47000000000E+01 0.  1.
        -11    1    3    3    0    0  0.35080285605E+02 -0.88372360661E+02  0.84428503093E+02  0.12715530937E+03  0.00000000000E+00 0.  1.
         11    1    3    3    0    0 -0.14770686799E+01 -0.94795553408E+02  0.23612782169E+03  0.25444985136E+03  0.00000000000E+00 0. -1.
<mgrwt>
<rscale>  0 0.21984528E+03</rscale>
<asrwt>0</asrwt>
<pdfrwt beam="1">  1        1 0.85988786E-01 0.22428684E+03</pdfrwt>
<pdfrwt beam="2">  1       -1 0.14004824E-01 0.22428684E+03</pdfrwt>
<totfact> 0.13896185E+03</totfact>
</mgrwt>
</event>
<event>
 7    1  0.5107591E-006  0.1636732E+03  0.7546771E-02  0.1191417E+00
          2   -1    0    0  501    0  0.00000000000E+00  0.00000000000E+00  0.44602776297E+02  0.44602776297E+02  0.00000000000E+00 0. -1.
         -2   -1    0    0    0  501 -0.00000000000E+00 -0.00000000000E+00 -0.60732958010E+03  0.60732958010E+03  0.00000000000E+00 0.  1.
         23    2    1    2    0    0 -0.10281699871E+03  0.24322209259E+02 -0.13953763688E+03  0.19819457068E+03  0.92991562275E+02 0.  0.
          5    1    1    2  502    0  0.10378078900E+03 -0.35005257154E+02 -0.42744387649E+03  0.44127789175E+03  0.47000000000E+01 0.  1.
         -5    1    1    2    0  502 -0.96379028339E+00  0.10683047894E+02  0.42547095739E+01  0.12459893963E+02  0.47000000000E+01 0.  1.
        -11    1    3    3    0    0 -0.22308751435E+02 -0.50690338820E+01 -0.10216514005E+03  0.10469523072E+03  0.00000000000E+00 0.  1.
         11    1    3    3    0    0 -0.80508247279E+02  0.29391243141E+02 -0.37372496830E+02  0.93499339959E+02  0.00000000000E+00 0. -1.
<mgrwt>
<rscale>  0 0.15761393E+03</rscale>
<asrwt>0</asrwt>
<pdfrwt beam="1">  1        2 0.68619657E-02 0.16367317E+03</pdfrwt>
<pdfrwt beam="2">  1       -2 0.93435319E-01 0.16367317E+03</pdfrwt>
<totfact> 0.10201401E+03</totfact>
</mgrwt>
</event>
<event>
 6    1  0.5107591E-006  0.2203436E+03  0.7546771E-02  0.1161232E+00
         -1   -1    0    0    0  501 -0.00000000000E+00  0.00000000000E+00  0.99298495892E+02  0.99298495892E+02  0.00000000000E+00 0.  1.
          1   -1    0    0  501    0  0.00000000000E+00 -0.00000000000E+00 -0.43600466324E+03  0.43600466324E+03  0.00000000000E+00 0. -1.
          5    1    1    2  502    0  0.27006468302E+02  0.30605142484E+02 -0.62689741146E+02  0.74954104101E+02  0.47000000000E+01 0. -1.
         -5    1    1    2    0  502 -0.56069955082E+02 -0.13919309360E+03  0.13734531271E+02  0.15076234449E+03  0.47000000000E+01 0.  1.
        -11    1    1    2    0    0 -0.31010414268E+01  0.98765465542E+01 -0.28393281981E+02  0.30221533571E+02  0.00000000000E+00 0.  1.
         11    1    1    2    0    0  0.32164528207E+02  0.98711404558E+02 -0.25935767549E+03  0.27936517696E+03  0.00000000000E+00 0. -1.
<mgrwt>
<rscale>  0 0.18696006E+03</rscale>
<asrwt>0</asrwt>
<pdfrwt beam="2">  1        1 0.67077641E-01 0.22034360E+03</pdfrwt>
<pdfrwt beam="1">  1       -1 0.15276692E-01 0.22034360E+03</pdfrwt>
<totfact> 0.16822387E+03</totfact>
</mgrwt>
</event>
<event>
 7    1  0.5107591E-006  0.1363057E+03  0.7546771E-02  0.1230253E+00
          1   -1    0    0  501    0  0.00000000000E+00  0.00000000000E+00  0.15080260754E+03  0.15080260754E+03  0.00000000000E+00 0. -1.
         -1   -1    0    0    0  501 -0.00000000000E+00 -0.00000000000E+00 -0.97736373655E+02  0.97736373655E+02  0.00000000000E+00 0.  1.
         23    2    1    2    0    0 -0.49112611947E+02 -0.23273130046E+02  0.20432225481E+02  0.10838109805E+03  0.91516661554E+02 0.  0.
          5    1    1    2  502    0 -0.10670328040E+02  0.55084221204E+02 -0.13727955230E+02  0.57954068718E+02  0.47000000000E+01 0. -1.
         -5    1    1    2    0  502  0.59782939988E+02 -0.31811091158E+02  0.46361963632E+02  0.82203814425E+02  0.47000000000E+01 0. -1.
        -11    1    3    3    0    0 -0.49716547422E+02 -0.10957255081E+02  0.53040483813E+02  0.73519313447E+02  0.00000000000E+00 0. -1.
         11    1    3    3    0    0  0.60393547504E+00 -0.12315874966E+02 -0.32608258333E+02  0.34861784603E+02  0.00000000000E+00 0.  1.
<mgrwt>
<rscale>  0 0.12813255E+03</rscale>
<asrwt>0</asrwt>
<pdfrwt beam="1">  1        1 0.23200401E-01 0.13630574E+03</pdfrwt>
<pdfrwt beam="2">  1       -1 0.15036365E-01 0.13630574E+03</pdfrwt>
<totfact> 0.64098260E+03</totfact>
</mgrwt>
</event>
<event>
 7    1  0.5107591E-006  0.1272057E+03  0.7546771E-02  0.1246016E+00
         -3   -1    0    0    0  501 -0.00000000000E+00  0.00000000000E+00  0.36877040240E+03  0.36877040240E+03  0.00000000000E+00 0.  1.
          3   -1    0    0  501    0  0.00000000000E+00 -0.00000000000E+00 -0.44653414184E+02  0.44653414184E+02  0.00000000000E+00 0. -1.
         23    2    1    2    0    0 -0.17615866854E+01 -0.23510190443E+02  0.41804373274E+02  0.10377612292E+03  0.92011117927E+02 0.  0.
          5    1    1    2  502    0  0.85597242523E+01 -0.56490401807E+01 -0.10415817674E+02  0.15354471402E+02  0.47000000000E+01 0. -1.
         -5    1    1    2    0  502 -0.67981375669E+01  0.29159230624E+02  0.29272843261E+03  0.29429322225E+03  0.47000000000E+01 0. -1.
        -11    1    3    3    0    0 -0.92573624511E+01 -0.42645391899E+02 -0.12763324049E+02  0.45466808229E+02  0.00000000000E+00 0. -1.
         11    1    3    3    0    0  0.74957757657E+01  0.19135201456E+02  0.54567697323E+02  0.58309314696E+02  0.00000000000E+00 0.  1.
<mgrwt>
<rscale>  0 0.11824750E+03</rscale>
<asrwt>0</asrwt>
<pdfrwt beam="2">  1        3 0.68697563E-02 0.12720567E+03</pdfrwt>
<pdfrwt beam="1">  1       -3 0.56733906E-01 0.12720567E+03</pdfrwt>
<totfact> 0.96484598E+02</totfact>
</mgrwt>
</event>
<event>
 7    1  0.5107591E-006  0.1389965E+03  0.7546771E-02  0.1225269E+00
         -2   -1    0    0    0  501 -0.00000000000E+00  0.00000000000E+00  0.31341863716E+02  0.31341863716E+02  0.00000000000E+00 0. -1.
          2   -1    0    0  501    0  0.00000000000E+00 -0.00000000000E+00 -0.76141277871E+03  0.76141277871E+03  0.00000000000E+00 0.  1.
         23    2    1    2    0    0 -0.55840839949E+02 -0.25913661152E+02 -0.56996993448E+03  0.58073494512E+03  0.92723422243E+02 0.  0.
          5    1    1    2  502    0 -0.48226141693E+01  0.62143815398E+02 -0.10538706098E+03  0.12253013516E+03  0.47000000000E+01 0.  1.
         -5    1    1    2    0  502  0.60663454118E+02 -0.36230154245E+02 -0.54713919526E+02  0.89489562141E+02  0.47000000000E+01 0.  1.
        -11    1    3    3    0    0 -0.44319260941E+02 -0.60364396284E+02 -0.39430239514E+03  0.40135076435E+03  0.00000000000E+00 0.  1.
         11    1    3    3    0    0 -0.11521579008E+02  0.34450735131E+02 -0.17566753934E+03  0.17938418077E+03  0.00000000000E+00 0. -1.
<mgrwt>
<rscale>  0 0.13148470E+03</rscale>
<asrwt>0</asrwt>
<pdfrwt beam="2">  1        2 0.11714043E+00 0.13899650E+03</pdfrwt>
<pdfrwt beam="1">  1       -2 0.48218252E-02 0.13899650E+03</pdfrwt>
<totfact> 0.75454973E+03</totfact>
</mgrwt>
</event>
<event>
 7    1  0.5107591E-006  0.1438777E+03  0.7546771E-02  0.1218736E+00
         -2   -1    0    0    0  501 -0.00000000000E+00  0.00000000000E+00  0.69105824527E+02  0.69105824527E+02  0.00000000000E+00 0.  1.
          2   -1    0    0  501    0  0.00000000000E+00 -0.00000000000E+00 -0.33850087227E+03  0.33850087227E+03  0.00000000000E+00 0. -1.
         23    2    1    2    0    0  0.27580911494E+02 -0.65689733903E+02 -0.23198035117E+03  0.25894381749E+03  0.90339191196E+02 0.  0.
          5    1    1    2  502    0  0.41300307561E+02  0.16780218828E+02 -0.45245904794E+02  0.63691232122E+02  0.47000000000E+01 0. -1.
         -5    1    1    2    0  502 -0.68881219056E+02  0.48909515075E+02  0.78312082236E+01  0.84971647187E+02  0.47000000000E+01 0. -1.
        -11    1    3    3    0    0 -0.99527210953E+01  0.18616702390E+02 -0.28062549343E+02  0.35116163525E+02  0.00000000000E+00 0.  1.
         11    1    3    3    0    0  0.37533632590E+02 -0.84306436293E+02 -0.20391780183E+03  0.22382765396E+03  0.00000000000E+00 0. -1.
<mgrwt>
<rscale>  0 0.13605637E+03</rscale>
<asrwt>0</asrwt>
<pdfrwt beam="2">  1        2 0.52077058E-01 0.14387770E+03</pdfrwt>
<pdfrwt beam="1">  1       -2 0.10631665E-01 0.14387770E+03</pdfrwt>
<totfact> 0.55417061E+03</totfact>
</mgrwt>
</event>
<event>
 6    1  0.5107591E-006  0.6898763E+03  0.7546771E-02  0.9734703E-01
          2   -1    0    0  501    0  0.00000000000E+00  0.00000000000E+00  0.63332883394E+03  0.63332883394E+03  0.00000000000E+00 0. -1.
         -2   -1    0    0    0  501 -0.00000000000E+00 -0.00000000000E+00 -0.18786814793E+03  0.18786814793E+03  0.00000000000E+00 0.  1.
          5    1    1    2  502    0 -0.89403194200E+02  0.91845904385E+02  0.13006333530E+03  0.18266680726E+03  0.47000000000E+01 0. -1.
         -5    1    1    2    0  502 -0.25725230458E+02 -0.81005543472E+02 -0.17297424010E+02  0.86861823793E+02  0.47000000000E+01 0.  1.
        -11    1    1    2    0    0 -0.30311451209E+02 -0.50186926675E+02 -0.87472254042E+02  0.10530387890E+03  0.00000000000E+00 0.  1.
         11    1    1    2    0    0  0.14543987587E+03  0.39346565763E+02  0.42016702876E+03  0.44636447192E+03  0.00000000000E+00 0. -1.
<mgrwt>
<rscale>  0 0.68987626E+03</rscale>
<asrwt>0</asrwt>
<pdfrwt beam="1">  1        2 0.97435204E-01 0.68987626E+03</pdfrwt>
<pdfrwt beam="2">  1       -2 0.28902792E-01 0.68987626E+03</pdfrwt>
<totfact> 0.51327130E+02</totfact>
</mgrwt>
</event>
<event>
 7    1  0.5107591E-006  0.1948887E+03  0.7546771E-02  0.1158653E+00
         -1   -1    0    0    0  501 -0.00000000000E+00  0.00000000000E+00  0.13157755550E+03  0.13157755550E+03  0.00000000000E+00 0.  1.
          1   -1    0    0  501    0  0.00000000000E+00 -0.00000000000E+00 -0.26424989963E+03  0.26424989963E+03  0.00000000000E+00 0. -1.
         23    2    1    2    0    0 -0.14165172575E+03  0.47857052869E+02 -0.86918099526E+02  0.19563992235E+03  0.91458811918E+02 0.  0.
          5    1    1    2  502    0  0.15692709838E+03 -0.33209412972E+02 -0.63091500747E+02  0.17242855559E+03  0.47000000000E+01 0.  1.
         -5    1    1    2    0  502 -0.15275372637E+02 -0.14647639897E+02  0.17337256147E+02  0.27758977187E+02  0.47000000000E+01 0.  1.
        -11    1    3    3    0    0 -0.49020869356E+02  0.10351719173E+02  0.15597510045E+02  0.52473669987E+02  0.00000000000E+00 0. -1.
         11    1    3    3    0    0 -0.92630856390E+02  0.37505333696E+02 -0.10251560957E+03  0.14316625237E+03  0.00000000000E+00 0.  1.
<mgrwt>
<rscale>  0 0.18978768E+03</rscale>
<asrwt>0</asrwt>
<pdfrwt beam="2">  1        1 0.40653830E-01 0.19488868E+03</pdfrwt>
<pdfrwt beam="1">  1       -1 0.20242701E-01 0.19488868E+03</pdfrwt>
<totfact> 0.20121100E+03</totfact>
</mgrwt>
</event>
<event>
 7    1  0.5107591E-006  0.1454481E+03  0.7546771E-02  0.1216354E+00
         -1   -1    0    0    0  501 -0.00000000000E+00  0.00000000000E+00  0.45285066094E+02  0.45285066094E+02  0.00000000000E+00 0.  1.
          1   -1    0    0  501    0  0.00000000000E+00 -0.00000000000E+00 -0.38059132201E+03  0.38059132201E+03  0.00000000000E+00 0. -1.
         23    2    1    2    0    0 -0.35472990558E+02  0.65360074202E+02 -0.14734141540E+03  0.18820867723E+03  0.90458505039E+02 0.  0.
          5    1    1    2  502    0 -0.60051790445E+01  0.82560292586E+01 -0.13988476550E+03  0.14033553297E+03  0.47000000000E+01 0. -1.
         -5    1    1    2    0  502  0.41478169603E+02 -0.73616103461E+02 -0.48080075018E+02  0.97332177907E+02  0.47000000000E+01 0. -1.
        -11    1    3    3    0    0 -0.56614268236E+02  0.72712070954E+02 -0.13233750999E+03  0.16126201407E+03  0.00000000000E+00 0.  1.
         11    1    3    3    0    0  0.21141277677E+02 -0.73519967516E+01 -0.15003905403E+02  0.26946663159E+02  0.00000000000E+00 0. -1.
<mgrwt>
<rscale>  0 0.13777573E+03</rscale>
<asrwt>0</asrwt>
<pdfrwt beam="2">  1        1 0.58552514E-01 0.14544813E+03</pdfrwt>
<pdfrwt beam="1">  1       -1 0.69669329E-02 0.14544813E+03</pdfrwt>
<totfact> 0.66016891E+03</totfact>
</mgrwt>
</event>
<event>
 7    1  0.5107591E-006  0.1697232E+03  0.7546771E-02  0.1184917E+00
          2   -1    0    0  501    0  0.00000000000E+00  0.00000000000E+00  0.30430507880E+03  0.30430507880E+03  0.00000000000E+00 0. -1.
         -2   -1    0    0    0  501 -0.00000000000E+00 -0.00000000000E+00 -0.84785282571E+02  0.84785282571E+02  0.00000000000E+00 0.  1.
         23    2    1    2    0    0 -0.73553594260E+02 -0.88158755189E+02  0.13823627729E+03  0.20090701140E+03  0.89845765213E+02 0.  0.
          5    1    1    2  502    0  0.11717563018E+02  0.13904952806E+02  0.89162394678E+02  0.91118997033E+02  0.47000000000E+01 0.  1.
         -5    1    1    2    0  502  0.61836031242E+02  0.74253802383E+02 -0.78788757385E+01  0.97064352937E+02  0.47000000000E+01 0.  1.
        -11    1    3    3    0    0 -0.41565963798E+02 -0.98377598008E+02  0.79097931656E+02  0.13289982667E+03  0.00000000000E+00 0. -1.
         11    1    3    3    0    0 -0.31987630462E+02  0.10218842819E+02  0.59138345636E+02  0.68007184735E+02  0.00000000000E+00 0.  1.
<mgrwt>
<rscale>  0 0.16339430E+03</rscale>
<asrwt>0</asrwt>
<pdfrwt beam="1">  1        2 0.46816165E-01 0.16972319E+03</pdfrwt>
<pdfrwt beam="2">  1       -2 0.13043890E-01 0.16972319E+03</pdfrwt>
<totfact> 0.45157111E+03</totfact>
</mgrwt>
</event>
<event>
 7    1  0.5107591E-006  0.1393917E+03  0.7546771E-02  0.1224832E+00
         -2   -1    0    0    0  501 -0.00000000000E+00  0.00000000000E+00  0.52576800510E+02  0.52576800510E+02  0.00000000000E+00 0.  1.
          2   -1    0    0  501    0  0.00000000000E+00 -0.00000000000E+00 -0.29908070738E+03  0.29908070738E+03  0.00000000000E+00 0. -1.
         23    2    1    2    0    0  0.55938699954E+02  0.25997231093E+02 -0.10634668964E+03  0.15398583283E+03  0.92720138787E+02 0.  0.
          5    1    1    2  502    0 -0.74220712774E+02  0.27536568770E+02 -0.10231216101E+03  0.12944823334E+03  0.47000000000E+01 0. -1.
         -5    1    1    2    0  502  0.18282012820E+02 -0.53533799863E+02 -0.37845056226E+02  0.68223441728E+02  0.47000000000E+01 0. -1.
        -11    1    3    3    0    0  0.37672822427E+02 -0.32229676045E+02 -0.38804570375E+02  0.62958623314E+02  0.00000000000E+00 0.  1.
         11    1    3    3    0    0  0.18265877527E+02  0.58226907138E+02 -0.67542119264E+02  0.91027209511E+02  0.00000000000E+00 0. -1.
<mgrwt>
<rscale>  0 0.13178447E+03</rscale>
<asrwt>0</asrwt>
<pdfrwt beam="2">  1        2 0.46012416E-01 0.13939170E+03</pdfrwt>
<pdfrwt beam="1">  1       -2 0.80887387E-02 0.13939170E+03</pdfrwt>
<totfact> 0.96704615E+03</totfact>
</mgrwt>
</event>
<event>
 7    1  0.5107591E-006  0.1323189E+03  0.7546771E-02  0.1236276E+00
          2   -1    0    0  501    0  0.00000000000E+00  0.00000000000E+00  0.33369256415E+03  0.33369256415E+03  0.00000000000E+00 0. -1.
         -2   -1    0    0    0  501 -0.00000000000E+00 -0.00000000000E+00 -0.43827073588E+02  0.43827073588E+02  0.00000000000E+00 0.  1.
         23    2    1    2    0    0 -0.10400436156E+02  0.42135498126E+02  0.17164054831E+03  0.20007827484E+03  0.93205520027E+02 0.  0.
          5    1    1    2  502    0  0.52320195383E+02  0.17507637466E+02  0.30270061638E+02  0.63105363054E+02  0.47000000000E+01 0. -1.
         -5    1    1    2    0  502 -0.41919759227E+02 -0.59643135592E+02  0.87954880618E+02  0.11433599985E+03  0.47000000000E+01 0. -1.
        -11    1    3    3    0    0  0.11759437058E+02  0.33024704502E+02  0.17257582349E+03  0.17610034163E+03  0.00000000000E+00 0. -1.
         11    1    3    3    0    0 -0.22159873214E+02  0.91107936241E+01 -0.93527518328E+00  0.23977933210E+02  0.00000000000E+00 0.  1.
<mgrwt>
<rscale>  0 0.12423106E+03</rscale>
<asrwt>0</asrwt>
<pdfrwt beam="1">  1        2 0.51337316E-01 0.13231893E+03</pdfrwt>
<pdfrwt beam="2">  1       -2 0.67426269E-02 0.13231893E+03</pdfrwt>
<totfact> 0.11344753E+04</totfact>
</mgrwt>
</event>
<event>
 7    1  0.5107591E-006  0.1547190E+03  0.7546771E-02  0.1202738E+00
          1   -1    0    0  501    0  0.00000000000E+00  0.00000000000E+00  0.38988510144E+03  0.38988510144E+03  0.00000000000E+00 0. -1.
         -1   -1    0    0    0  501 -0.00000000000E+00 -0.00000000000E+00 -0.59225069456E+02  0.59225069456E+02  0.00000000000E+00 0.  1.
         23    2    1    2    0    0  0.76884280509E+01 -0.90853766312E+02  0.23079601172E+03  0.26496133858E+03  0.92866533999E+02 0.  0.
          5    1    1    2  502    0 -0.35519137238E+01  0.12233824536E+03  0.82229545215E+02  0.14752305066E+03  0.47000000000E+01 0.  1.
         -5    1    1    2    0  502 -0.41365143271E+01 -0.31484479052E+02  0.17634475056E+02  0.36625781663E+02  0.47000000000E+01 0.  1.
        -11    1    3    3    0    0 -0.30169377010E+02 -0.68038600381E+02  0.86831558390E+02  0.11436416389E+03  0.00000000000E+00 0.  1.
         11    1    3    3    0    0  0.37857805061E+02 -0.22815165931E+02  0.14396445333E+03  0.15059717468E+03  0.00000000000E+00 0. -1.
<mgrwt>
<rscale>  0 0.14817147E+03</rscale>
<asrwt>0</asrwt>
<pdfrwt beam="1">  1        1 0.59982322E-01 0.15471900E+03</pdfrwt>
<pdfrwt beam="2">  1       -1 0.91115494E-02 0.15471900E+03</pdfrwt>
<totfact> 0.42822825E+03</totfact>
</mgrwt>
</event>
<event>
 7    1  0.5107591E-006  0.2251157E+03  0.7546771E-02  0.1132691E+00
          2   -1    0    0  501    0  0.00000000000E+00  0.00000000000E+00  0.87066027243E+03  0.87066027243E+03  0.00000000000E+00 0. -1.
         -2   -1    0    0    0  501 -0.00000000000E+00 -0.00000000000E+00 -0.55720525129E+02  0.55720525129E+02  0.00000000000E+00 0.  1.
         23    2    1    2    0    0  0.19411308821E+03  0.17083195614E+02  0.45711380091E+03  0.50363204881E+03  0.81978576614E+02 0.  0.
          5    1    1    2  502    0 -0.20035893006E+03 -0.32497888530E+02  0.34792023599E+03  0.40282799583E+03  0.47000000000E+01 0. -1.
         -5    1    1    2    0  502  0.62458418560E+01  0.15414692916E+02  0.99057104037E+01  0.19920752917E+02  0.47000000000E+01 0.  1.
        -11    1    3    3    0    0  0.45612615974E+02  0.34349534476E+02  0.17894139423E+03  0.18783083832E+03  0.00000000000E+00 0. -1.
         11    1    3    3    0    0  0.14850047223E+03 -0.17266338861E+02  0.27817240667E+03  0.31580121049E+03  0.00000000000E+00 0.  1.
<mgrwt>
<rscale>  0 0.22160695E+03</rscale>
<asrwt>0</asrwt>
<pdfrwt beam="1">  1        2 0.13394772E+00 0.22511574E+03</pdfrwt>
<pdfrwt beam="2">  1       -2 0.85723891E-02 0.22511574E+03</pdfrwt>
<totfact> 0.26800550E+03</totfact>
</mgrwt>
</event>
<event>
 7    1  0.5107591E-006  0.1888377E+03  0.7546771E-02  0.1164383E+00
          2   -1    0    0  501    0  0.00000000000E+00  0.00000000000E+00  0.64105294715E+02  0.64105294715E+02  0.00000000000E+00 0.  1.
         -2   -1    0    0    0  501 -0.00000000000E+00 -0.00000000000E+00 -0.13324438134E+04  0.13324438134E+04  0.00000000000E+00 0. -1.
         23    2    1    2    0    0 -0.10741977136E+03 -0.92180602476E+02 -0.68671523702E+02  0.18211072812E+03  0.91718418962E+02 0.  0.
          5    1    1    2  502    0  0.27272583536E+02  0.11084109411E+02 -0.43984164081E+02  0.53135185932E+02  0.47000000000E+01 0.  1.
         -5    1    1    2    0  502  0.80147187820E+02  0.81096493065E+02 -0.11556828309E+04  0.11613031941E+04  0.47000000000E+01 0.  1.
        -11    1    3    3    0    0 -0.32348132563E+02 -0.29181694234E+02 -0.71883692609E+02  0.84054971428E+02  0.00000000000E+00 0. -1.
         11    1    3    3    0    0 -0.75071638794E+02 -0.62998908242E+02  0.32121689073E+01  0.98055756689E+02  0.00000000000E+00 0.  1.
<mgrwt>
<rscale>  0 0.18357944E+03</rscale>
<asrwt>0</asrwt>
<pdfrwt beam="1">  1        2 0.98623530E-02 0.18883771E+03</pdfrwt>
<pdfrwt beam="2">  1       -2 0.20499136E+00 0.18883771E+03</pdfrwt>
<totfact> 0.88070185E+01</totfact>
</mgrwt>
</event>
<event>
 7    1  0.5107591E-006  0.2432722E+03  0.7546771E-02  0.1120295E+00
          2   -1    0    0  501    0  0.00000000000E+00  0.00000000000E+00  0.85096816208E+03  0.85096816208E+03  0.00000000000E+00 0. -1.
         -2   -1    0    0    0  501 -0.00000000000E+00 -0.00000000000E+00 -0.65352021767E+02  0.65352021767E+02  0.00000000000E+00 0.  1.
         23    2    1    2    0    0 -0.14766706663E+03 -0.14748342014E+03  0.35304992827E+03  0.42003911199E+03  0.90728617165E+02 0.  0.
          5    1    1    2  502    0  0.17519718073E+02  0.78446181701E+02  0.77150629459E+02  0.11151257136E+03  0.47000000000E+01 0. -1.
         -5    1    1    2    0  502  0.13014734855E+03  0.69037238443E+02  0.35541558259E+03  0.38476850050E+03  0.47000000000E+01 0. -1.
        -11    1    3    3    0    0 -0.53060334915E+02 -0.61336534336E+02  0.61937037029E+02  0.10204786201E+03  0.00000000000E+00 0.  1.
         11    1    3    3    0    0 -0.94606731711E+02 -0.86146885807E+02  0.29111289124E+03  0.31799124998E+03  0.00000000000E+00 0. -1.
<mgrwt>
<rscale>  0 0.23924819E+03</rscale>
<asrwt>0</asrwt>
<pdfrwt beam="1">  1        2 0.13091817E+00 0.24327222E+03</pdfrwt>
<pdfrwt beam="2">  1       -2 0.10054158E-01 0.24327222E+03</pdfrwt>
<totfact> 0.21484239E+03</totfact>
</mgrwt>
</event>
<event>
 7    1  0.5107591E-006  0.1384445E+03  0.7546771E-02  0.1226837E+00
          2   -1    0    0  501    0  0.00000000000E+00  0.00000000000E+00  0.38502955909E+03  0.38502955909E+03  0.00000000000E+00 0. -1.
         -2   -1    0    0    0  501 -0.00000000000E+00 -0.00000000000E+00 -0.41005156833E+02  0.41005156833E+02  0.00000000000E+00 0.  1.
         23    2    1    2    0    0 -0.17373206945E+02 -0.56922634781E+02  0.18899120726E+03  0.21818341424E+03  0.91347201151E+02 0.  0.
          5    1    1    2  502    0  0.68254145948E+02  0.26326526508E+02  0.11396983201E+03  0.13550987803E+03  0.47000000000E+01 0.  1.
         -5    1    1    2    0  502 -0.50880939002E+02  0.30596108273E+02  0.41063362989E+02  0.72341423646E+02  0.47000000000E+01 0.  1.
        -11    1    3    3    0    0  0.41779663357E+01 -0.38237800029E+02  0.18550136064E+03  0.18944745856E+03  0.00000000000E+00 0. -1.
         11    1    3    3    0    0 -0.21551173281E+02 -0.18684834752E+02  0.34898466156E+01  0.28735955681E+02  0.00000000000E+00 0.  1.
<mgrwt>
<rscale>  0 0.13041804E+03</rscale>
<asrwt>0</asrwt>
<pdfrwt beam="1">  1        2 0.59235314E-01 0.13844447E+03</pdfrwt>
<pdfrwt beam="2">  1       -2 0.63084859E-02 0.13844447E+03</pdfrwt>
<totfact> 0.10819884E+04</totfact>
</mgrwt>
</event>
<event>
 7    1  0.5107591E-006  0.1636535E+03  0.7546771E-02  0.1192109E+00
         -2   -1    0    0    0  501 -0.00000000000E+00  0.00000000000E+00  0.89554453769E+02  0.89554453769E+02  0.00000000000E+00 0.  1.
          2   -1    0    0  501    0  0.00000000000E+00 -0.00000000000E+00 -0.25578634587E+03  0.25578634587E+03  0.00000000000E+00 0. -1.
         23    2    1    2    0    0 -0.57455809973E+02 -0.88641407024E+02 -0.84827835997E+02  0.16255928623E+03  0.89840361986E+02 0.  0.
          5    1    1    2  502    0 -0.18959099058E+02 -0.12951514745E+02 -0.44552708520E+02  0.50341066811E+02  0.47000000000E+01 0.  1.
         -5    1    1    2    0  502  0.76414909031E+02  0.10159292177E+03 -0.36851347585E+02  0.13244044660E+03  0.47000000000E+01 0.  1.
        -11    1    3    3    0    0  0.23961722301E+02 -0.22816342689E+02 -0.12795329498E+02  0.35474921936E+02  0.00000000000E+00 0.  1.
         11    1    3    3    0    0 -0.81417532275E+02 -0.65825064335E+02 -0.72032506499E+02  0.12708436430E+03  0.00000000000E+00 0. -1.
<mgrwt>
<rscale>  0 0.15701483E+03</rscale>
<asrwt>0</asrwt>
<pdfrwt beam="2">  1        2 0.39351746E-01 0.16365348E+03</pdfrwt>
<pdfrwt beam="1">  1       -2 0.13777608E-01 0.16365348E+03</pdfrwt>
<totfact> 0.49644801E+03</totfact>
</mgrwt>
</event>
<event>
 7    1  0.5107591E-006  0.1499883E+03  0.7546771E-02  0.1209857E+00
          1   -1    0    0  501    0  0.00000000000E+00  0.00000000000E+00  0.48757365478E+03  0.48757365478E+03  0.00000000000E+00 0. -1.
         -1   -1    0    0    0  501 -0.00000000000E+00 -0.00000000000E+00 -0.40469459244E+02  0.40469459244E+02  0.00000000000E+00 0.  1.
         23    2    1    2    0    0  0.66382282261E+02 -0.49576760298E+02  0.26603515403E+03  0.29292081977E+03  0.90351762122E+02 0.  0.
          5    1    1    2  502    0  0.22204708544E+02  0.55731390896E+02  0.60749434501E+02  0.85508016028E+02  0.47000000000E+01 0. -1.
         -5    1    1    2    0  502 -0.88586990806E+02 -0.61546305985E+01  0.12031960701E+03  0.14961427823E+03  0.47000000000E+01 0. -1.
        -11    1    3    3    0    0  0.69302263149E+02  0.28640428525E+01  0.16671951694E+03  0.18057243353E+03  0.00000000000E+00 0.  1.
         11    1    3    3    0    0 -0.29199808873E+01 -0.52440803150E+02  0.99315637081E+02  0.11234838625E+03  0.00000000000E+00 0. -1.
<mgrwt>
<rscale>  0 0.14261177E+03</rscale>
<asrwt>0</asrwt>
<pdfrwt beam="1">  1        1 0.75011327E-01 0.14998832E+03</pdfrwt>
<pdfrwt beam="2">  1       -1 0.62260710E-02 0.14998832E+03</pdfrwt>
<totfact> 0.57040823E+03</totfact>
</mgrwt>
</event>
<event>
 7    1  0.5107591E-006  0.2166828E+03  0.7546771E-02  0.1140157E+00
          2   -1    0    0  501    0  0.00000000000E+00  0.00000000000E+00  0.11995089475E+03  0.11995089475E+03  0.00000000000E+00 0. -1.
         -2   -1    0    0    0  501 -0.00000000000E+00 -0.00000000000E+00 -0.38018783376E+03  0.38018783376E+03  0.00000000000E+00 0.  1.
         23    2    1    2    0    0 -0.14629833209E+03 -0.99617023419E+02 -0.64161737582E+02  0.20791123295E+03  0.88224706789E+02 0.  0.
          5    1    1    2  502    0  0.53657089407E+02  0.68877206848E+02 -0.16987188157E+03  0.19105417822E+03  0.47000000000E+01 0.  1.
         -5    1    1    2    0  502  0.92641242684E+02  0.30739816571E+02 -0.26203319857E+02  0.10117331733E+03  0.47000000000E+01 0.  1.
        -11    1    3    3    0    0 -0.20863989644E+02 -0.60707233618E+02 -0.66370416070E+01  0.64534677489E+02  0.00000000000E+00 0.  1.
         11    1    3    3    0    0 -0.12543434245E+03 -0.38909789802E+02 -0.57524695975E+02  0.14337655546E+03  0.00000000000E+00 0. -1.
<mgrwt>
<rscale>  0 0.21178966E+03</rscale>
<asrwt>0</asrwt>
<pdfrwt beam="1">  1        2 0.18453984E-01 0.21668277E+03</pdfrwt>
<pdfrwt beam="2">  1       -2 0.58490437E-01 0.21668277E+03</pdfrwt>
<totfact> 0.84697406E+02</totfact>
</mgrwt>
</event>
<event>
 7    1  0.5107591E-006  0.1397191E+03  0.7546771E-02  0.1224319E+00
         -1   -1    0    0    0  501 -0.00000000000E+00  0.00000000000E+00  0.36484808426E+03  0.36484808426E+03  0.00000000000E+00 0.  1.
          1   -1    0    0  501    0  0.00000000000E+00 -0.00000000000E+00 -0.44889113773E+02  0.44889113773E+02  0.00000000000E+00 0. -1.
         23    2    1    2    0    0 -0.40810939839E+01  0.62323204036E+02  0.10495717051E+03  0.15332504411E+03  0.92691555280E+02 0.  0.
          5    1    1    2  502    0 -0.17163598837E+02  0.11251076789E+02  0.16152208482E+03  0.16288845797E+03  0.47000000000E+01 0.  1.
         -5    1    1    2    0  502  0.21244692821E+02 -0.73574280825E+02  0.53479715157E+02  0.93523695956E+02  0.47000000000E+01 0.  1.
        -11    1    3    3    0    0 -0.25250865216E+02  0.73199190672E+02  0.46775507669E+02  0.90463671310E+02  0.00000000000E+00 0. -1.
         11    1    3    3    0    0  0.21169771232E+02 -0.10875986635E+02  0.58181662840E+02  0.62861372799E+02  0.00000000000E+00 0.  1.
<mgrwt>
<rscale>  0 0.13213662E+03</rscale>
<asrwt>0</asrwt>
<pdfrwt beam="2">  1        1 0.69060178E-02 0.13971907E+03</pdfrwt>
<pdfrwt beam="1">  1       -1 0.56130472E-01 0.13971907E+03</pdfrwt>
<totfact> 0.33860482E+03</totfact>
</mgrwt>
</event>
<event>
 7    1  0.5107591E-006  0.1364485E+03  0.7546771E-02  0.1229547E+00
         -4   -1    0    0    0  501 -0.00000000000E+00  0.00000000000E+00  0.14655584486E+03  0.14655584486E+03  0.00000000000E+00 0.  1.
          4   -1    0    0  501    0  0.00000000000E+00 -0.00000000000E+00 -0.10165780679E+03  0.10165780679E+03  0.00000000000E+00 0. -1.
         23    2    1    2    0    0  0.51539097450E+02 -0.18326237990E+02  0.18802174483E+02  0.10929212839E+03  0.92731429399E+02 0.  0.
          5    1    1    2  502    0  0.40830960571E+02 -0.40037323661E+01  0.72795151445E+01  0.41931832237E+02  0.47000000000E+01 0.  1.
         -5    1    1    2    0  502 -0.92370058021E+02  0.22329970356E+02  0.18816348443E+02  0.96989691018E+02  0.47000000000E+01 0.  1.
        -11    1    3    3    0    0  0.71691783270E+02  0.28572872781E+01 -0.45210338927E+01  0.71890998230E+02  0.00000000000E+00 0. -1.
         11    1    3    3    0    0 -0.20152685820E+02 -0.21183525268E+02  0.23323208375E+02  0.37401130163E+02  0.00000000000E+00 0.  1.
<mgrwt>
<rscale>  0 0.12860056E+03</rscale>
<asrwt>0</asrwt>
<pdfrwt beam="2">  1        4 0.15639663E-01 0.13644851E+03</pdfrwt>
<pdfrwt beam="1">  1       -4 0.22547053E-01 0.13644851E+03</pdfrwt>
<totfact> 0.10489668E+03</totfact>
</mgrwt>
</event>
<event>
 7    1  0.5107591E-006  0.1579967E+03  0.7546771E-02  0.1198837E+00
          4   -1    0    0  501    0  0.00000000000E+00  0.00000000000E+00  0.25410428898E+03  0.25410428898E+03  0.00000000000E+00 0. -1.
         -4   -1    0    0    0  501 -0.00000000000E+00 -0.00000000000E+00 -0.91890990717E+02  0.91890990717E+02  0.00000000000E+00 0.  1.
         23    2    1    2    0    0  0.71612485558E+02 -0.64885318460E+02  0.12747116451E+03  0.18422387852E+03  0.91384281987E+02 0.  0.
          5    1    1    2  502    0  0.29572140560E+02  0.45525492456E+02  0.17366681826E+02  0.57190677547E+02  0.47000000000E+01 0.  1.
         -5    1    1    2    0  502 -0.10118462612E+03  0.19359826004E+02  0.17375451922E+02  0.10458072363E+03  0.47000000000E+01 0.  1.
        -11    1    3    3    0    0  0.32852404992E+02  0.64060200289E+01  0.42481537921E+00  0.33473841645E+02  0.00000000000E+00 0.  1.
         11    1    3    3    0    0  0.38760080567E+02 -0.71291338488E+02  0.12704634913E+03  0.15075003687E+03  0.00000000000E+00 0. -1.
<mgrwt>
<rscale>  0 0.15133893E+03</rscale>
<asrwt>0</asrwt>
<pdfrwt beam="1">  1        4 0.39092967E-01 0.15799674E+03</pdfrwt>
<pdfrwt beam="2">  1       -4 0.14137076E-01 0.15799674E+03</pdfrwt>
<totfact> 0.45467188E+02</totfact>
</mgrwt>
</event>
<event>
 7    1  0.5107591E-006  0.1251913E+03  0.7546771E-02  0.1250447E+00
         -2   -1    0    0    0  501 -0.00000000000E+00  0.00000000000E+00  0.56721057185E+02  0.56721057185E+02  0.00000000000E+00 0.  1.
          2   -1    0    0  501    0  0.00000000000E+00 -0.00000000000E+00 -0.21847678049E+03  0.21847678049E+03  0.00000000000E+00 0. -1.
         23    2    1    2    0    0 -0.66996310584E+01 -0.12304869914E+01 -0.10091676247E+03  0.13600645811E+03  0.90923949235E+02 0.  0.
          5    1    1    2  502    0 -0.32119513774E+02  0.51318960202E+02 -0.38173366485E+02  0.71725830424E+02  0.47000000000E+01 0. -1.
         -5    1    1    2    0  502  0.38819144832E+02 -0.50088473210E+02 -0.22665594347E+02  0.67465549143E+02  0.47000000000E+01 0. -1.
        -11    1    3    3    0    0 -0.44764227090E+02  0.67541355794E+00 -0.82074790375E+02  0.93490980450E+02  0.00000000000E+00 0. -1.
         11    1    3    3    0    0  0.38064596032E+02 -0.19059005494E+01 -0.18841972099E+02  0.42515477658E+02  0.00000000000E+00 0.  1.
<mgrwt>
<rscale>  0 0.11565223E+03</rscale>
<asrwt>0</asrwt>
<pdfrwt beam="2">  1        2 0.33611812E-01 0.12519130E+03</pdfrwt>
<pdfrwt beam="1">  1       -2 0.87263166E-02 0.12519130E+03</pdfrwt>
<totfact> 0.11908461E+04</totfact>
</mgrwt>
</event>
<event>
 7    1  0.5107591E-006  0.1528073E+03  0.7546771E-02  0.1205684E+00
         -2   -1    0    0    0  501 -0.00000000000E+00  0.00000000000E+00  0.72662724083E+02  0.72662724083E+02  0.00000000000E+00 0.  1.
          2   -1    0    0  501    0  0.00000000000E+00 -0.00000000000E+00 -0.35603844982E+03  0.35603844982E+03  0.00000000000E+00 0. -1.
         23    2    1    2    0    0 -0.57786709255E+02 -0.66206122662E+02 -0.23739564857E+03  0.26912597312E+03  0.91375822879E+02 0.  0.
          5    1    1    2  502    0 -0.20659444779E+02  0.68732668246E+02 -0.83506807886E+01  0.72407293917E+02  0.47000000000E+01 0.  1.
         -5    1    1    2    0  502  0.78446154034E+02 -0.25265455839E+01 -0.37629396384E+02  0.87167906866E+02  0.47000000000E+01 0.  1.
        -11    1    3    3    0    0 -0.23054152353E+01 -0.26269586595E+02 -0.49427605451E+01  0.26829778253E+02  0.00000000000E+00 0.  1.
         11    1    3    3    0    0 -0.55481294020E+02 -0.39936536067E+02 -0.23245288802E+03  0.24229619487E+03  0.00000000000E+00 0. -1.
<mgrwt>
<rscale>  0 0.14583682E+03</rscale>
<asrwt>0</asrwt>
<pdfrwt beam="2">  1        2 0.54775145E-01 0.15280732E+03</pdfrwt>
<pdfrwt beam="1">  1       -2 0.11178881E-01 0.15280732E+03</pdfrwt>
<totfact> 0.48656899E+03</totfact>
</mgrwt>
</event>
<event>
 7    1  0.5107591E-006  0.1310724E+03  0.7546771E-02  0.1247441E+00
         -2   -1    0    0    0  501 -0.00000000000E+00  0.00000000000E+00  0.12247725513E+03  0.12247725513E+03  0.00000000000E+00 0. -1.
          2   -1    0    0  501    0  0.00000000000E+00 -0.00000000000E+00 -0.10150004110E+03  0.10150004110E+03  0.00000000000E+00 0.  1.
         23    2    1    2    0    0  0.31589357335E+02  0.23650706244E+02 -0.19879834530E+02  0.86684613584E+02  0.74577282122E+02 0.  0.
          5    1    1    2  502    0  0.22837141156E+02  0.40516126309E+02  0.16484516412E+02  0.49567335904E+02  0.47000000000E+01 0. -1.
         -5    1    1    2    0  502 -0.54426498491E+02 -0.64166832553E+02  0.24372532142E+02  0.87725346742E+02  0.47000000000E+01 0. -1.
        -11    1    3    3    0    0  0.18645572376E+02  0.50297512040E+02 -0.19442859633E+02  0.57057180769E+02  0.00000000000E+00 0.  1.
         11    1    3    3    0    0  0.12943784958E+02 -0.26646805795E+02 -0.43697489639E+00  0.29627432815E+02  0.00000000000E+00 0. -1.
<mgrwt>
<rscale>  0 0.11740484E+03</rscale>
<asrwt>0</asrwt>
<pdfrwt beam="2">  1        2 0.15615391E-01 0.13107243E+03</pdfrwt>
<pdfrwt beam="1">  1       -2 0.18842655E-01 0.13107243E+03</pdfrwt>
<totfact> 0.81394066E+03</totfact>
</mgrwt>
</event>
<event>
 7    1  0.5107591E-006  0.1676762E+03  0.7546771E-02  0.1186896E+00
         -2   -1    0    0    0  501 -0.00000000000E+00  0.00000000000E+00  0.70302742459E+02  0.70302742459E+02  0.00000000000E+00 0.  1.
          2   -1    0    0  501    0  0.00000000000E+00 -0.00000000000E+00 -0.34985603712E+03  0.34985603712E+03  0.00000000000E+00 0. -1.
         23    2    1    2    0    0 -0.85082280823E+02  0.72479844121E+02 -0.11048506817E+03  0.18204244896E+03  0.91870455648E+02 0.  0.
          5    1    1    2  502    0  0.20451057194E+02 -0.96109363824E+02 -0.92008266858E+02  0.13469545919E+03  0.47000000000E+01 0.  1.
         -5    1    1    2    0  502  0.64631223630E+02  0.23629519703E+02 -0.77059959634E+02  0.10342087143E+03  0.47000000000E+01 0.  1.
        -11    1    3    3    0    0 -0.45532929968E+02  0.89052033378E+02 -0.89874208180E+02  0.13446518381E+03  0.00000000000E+00 0. -1.
         11    1    3    3    0    0 -0.39549350856E+02 -0.16572189258E+02 -0.20610859989E+02  0.47577265152E+02  0.00000000000E+00 0.  1.
<mgrwt>
<rscale>  0 0.16160556E+03</rscale>
<asrwt>0</asrwt>
<pdfrwt beam="2">  1        2 0.53824006E-01 0.16767624E+03</pdfrwt>
<pdfrwt beam="1">  1       -2 0.10815807E-01 0.16767624E+03</pdfrwt>
<totfact> 0.52504719E+03</totfact>
</mgrwt>
</event>
<event>
 7    1  0.5107591E-006  0.2628159E+03  0.7546771E-02  0.1107696E+00
          2   -1    0    0  501    0  0.00000000000E+00  0.00000000000E+00  0.11521111644E+04  0.11521111644E+04  0.00000000000E+00 0. -1.
         -2   -1    0    0    0  501 -0.00000000000E+00 -0.00000000000E+00 -0.58957779087E+02  0.58957779087E+02  0.00000000000E+00 0.  1.
         23    2    1    2    0    0 -0.16661214301E+03 -0.16027367575E+03  0.65095266810E+03  0.69666281527E+03  0.90290889532E+02 0.  0.
          5    1    1    2  502    0  0.10885714178E+03  0.12679007047E+03  0.40428822125E+03  0.43748903429E+03  0.47000000000E+01 0. -1.
         -5    1    1    2    0  502  0.57755001226E+02  0.33483605274E+02  0.37912495974E+02  0.76917093937E+02  0.47000000000E+01 0. -1.
        -11    1    3    3    0    0 -0.56011573365E+02 -0.17889028331E+02  0.90496495837E+02  0.10792094071E+03  0.00000000000E+00 0.  1.
         11    1    3    3    0    0 -0.11060056964E+03 -0.14238464741E+03  0.56045617226E+03  0.58874187455E+03  0.00000000000E+00 0. -1.
<mgrwt>
<rscale>  0 0.25908128E+03</rscale>
<asrwt>0</asrwt>
<pdfrwt beam="1">  1        2 0.17724785E+00 0.26281589E+03</pdfrwt>
<pdfrwt beam="2">  1       -2 0.90704284E-02 0.26281589E+03</pdfrwt>
<totfact> 0.16512620E+03</totfact>
</mgrwt>
</event>
<event>
 7    1  0.5107591E-006  0.2156019E+03  0.7546771E-02  0.1140831E+00
          1   -1    0    0  501    0  0.00000000000E+00  0.00000000000E+00  0.28702996223E+03  0.28702996223E+03  0.00000000000E+00 0.  1.
         -1   -1    0    0    0  501 -0.00000000000E+00 -0.00000000000E+00 -0.21199668744E+03  0.21199668744E+03  0.00000000000E+00 0. -1.
         23    2    1    2    0    0 -0.26129739110E+00 -0.17567043247E+03  0.17266681941E+03  0.26234864753E+03  0.90292930028E+02 0.  0.
          5    1    1    2  502    0 -0.13390287262E+02  0.16647412531E+03 -0.33635248397E+02  0.17042990972E+03  0.47000000000E+01 0.  1.
         -5    1    1    2    0  502  0.13651584653E+02  0.91963071578E+01 -0.63998296230E+02  0.66248092420E+02  0.47000000000E+01 0.  1.
        -11    1    3    3    0    0  0.15988583278E+02 -0.29465225913E+02  0.84351229703E+02  0.90768740686E+02  0.00000000000E+00 0.  1.
         11    1    3    3    0    0 -0.16249880669E+02 -0.14620520656E+03  0.88315589711E+02  0.17157990684E+03  0.00000000000E+00 0. -1.
<mgrwt>
<rscale>  0 0.21093106E+03</rscale>
<asrwt>0</asrwt>
<pdfrwt beam="1">  1        1 0.44158456E-01 0.21560187E+03</pdfrwt>
<pdfrwt beam="2">  1       -1 0.32614875E-01 0.21560187E+03</pdfrwt>
<totfact> 0.82082850E+02</totfact>
</mgrwt>
</event>
<event>
 7    1  0.5107591E-006  0.1122029E+03  0.7546771E-02  0.1268556E+00
         -2   -1    0    0    0  501 -0.00000000000E+00  0.00000000000E+00  0.46411591482E+02  0.46411591482E+02  0.00000000000E+00 0.  1.
          2   -1    0    0  501    0  0.00000000000E+00 -0.00000000000E+00 -0.32134074399E+03  0.32134074399E+03  0.00000000000E+00 0. -1.
         23    2    1    2    0    0  0.45168893599E+01 -0.44482674816E+01 -0.23067372161E+03  0.24713710108E+03  0.88465764665E+02 0.  0.
          5    1    1    2  502    0  0.17422093581E+02 -0.38492291845E+02 -0.56438291312E+02  0.70658025747E+02  0.47000000000E+01 0. -1.
         -5    1    1    2    0  502 -0.21938982941E+02  0.42940559326E+02  0.12182860411E+02  0.49957208644E+02  0.47000000000E+01 0.  1.
        -11    1    3    3    0    0 -0.36396374726E+02  0.87419207826E+01 -0.16079991612E+03  0.16509915292E+03  0.00000000000E+00 0.  1.
         11    1    3    3    0    0  0.40913264086E+02 -0.13190188264E+02 -0.69873805490E+02  0.82037948160E+02  0.00000000000E+00 0. -1.
<mgrwt>
<rscale>  0 0.10579739E+03</rscale>
<asrwt>0</asrwt>
<pdfrwt beam="2">  1        2 0.49437040E-01 0.11220290E+03</pdfrwt>
<pdfrwt beam="1">  1       -2 0.71402445E-02 0.11220290E+03</pdfrwt>
<totfact> 0.10677285E+04</totfact>
</mgrwt>
</event>
<event>
 7    1  0.5107591E-006  0.1619431E+03  0.7546771E-02  0.1193895E+00
          3   -1    0    0  501    0  0.00000000000E+00  0.00000000000E+00  0.41229861703E+02  0.41229861703E+02  0.00000000000E+00 0. -1.
         -3   -1    0    0    0  501 -0.00000000000E+00 -0.00000000000E+00 -0.62351275416E+03  0.62351275416E+03  0.00000000000E+00 0.  1.
         23    2    1    2    0    0  0.54557830276E+02 -0.87317032511E+02 -0.15220073156E+03  0.20518170425E+03  0.91288816727E+02 0.  0.
          5    1    1    2  502    0 -0.58563616873E+02  0.82402699418E+02 -0.43730491385E+03  0.44886253995E+03  0.47000000000E+01 0.  1.
         -5    1    1    2    0  502  0.40057865973E+01  0.49143330935E+01  0.72227529548E+01  0.10698371664E+02  0.47000000000E+01 0.  1.
        -11    1    3    3    0    0 -0.17327385203E+02 -0.48398100441E+02 -0.34617769835E+02  0.61975837168E+02  0.00000000000E+00 0. -1.
         11    1    3    3    0    0  0.71885215478E+02 -0.38918932070E+02 -0.11758296173E+03  0.14320586708E+03  0.00000000000E+00 0.  1.
<mgrwt>
<rscale>  0 0.15548141E+03</rscale>
<asrwt>0</asrwt>
<pdfrwt beam="1">  1        3 0.63430561E-02 0.16194310E+03</pdfrwt>
<pdfrwt beam="2">  1       -3 0.95925032E-01 0.16194310E+03</pdfrwt>
<totfact> 0.36871138E+02</totfact>
</mgrwt>
</event>
<event>
 7    1  0.5107591E-006  0.2818783E+03  0.7546771E-02  0.1096510E+00
          2   -1    0    0  501    0  0.00000000000E+00  0.00000000000E+00  0.67519982988E+03  0.67519982988E+03  0.00000000000E+00 0. -1.
         -2   -1    0    0    0  501 -0.00000000000E+00 -0.00000000000E+00 -0.12539691007E+03  0.12539691007E+03  0.00000000000E+00 0.  1.
         23    2    1    2    0    0 -0.22066553362E+01 -0.25263761028E+03  0.39878008068E+03  0.48081042531E+03  0.91227632224E+02 0.  0.
          5    1    1    2  502    0  0.13976538929E+01  0.98312065962E+02  0.13134741444E+03  0.16413850563E+03  0.47000000000E+01 0. -1.
         -5    1    1    2    0  502  0.80900144326E+00  0.15432554432E+03  0.19675424693E+02  0.15564780901E+03  0.47000000000E+01 0. -1.
        -11    1    3    3    0    0 -0.42058171233E+02 -0.85772584948E+02  0.16782039414E+03  0.19310492170E+03  0.00000000000E+00 0.  1.
         11    1    3    3    0    0  0.39851515897E+02 -0.16686502533E+03  0.23095968654E+03  0.28770550361E+03  0.00000000000E+00 0. -1.
<mgrwt>
<rscale>  0 0.27850189E+03</rscale>
<asrwt>0</asrwt>
<pdfrwt beam="1">  1        2 0.10387689E+00 0.28187832E+03</pdfrwt>
<pdfrwt beam="2">  1       -2 0.19291833E-01 0.28187832E+03</pdfrwt>
<totfact> 0.98224076E+02</totfact>
</mgrwt>
</event>
<event>
 7    1  0.5107591E-006  0.1955508E+03  0.7546771E-02  0.1158000E+00
         -1   -1    0    0    0  501 -0.00000000000E+00  0.00000000000E+00  0.96779890994E+02  0.96779890994E+02  0.00000000000E+00 0.  1.
          1   -1    0    0  501    0  0.00000000000E+00 -0.00000000000E+00 -0.37686407368E+03  0.37686407368E+03  0.00000000000E+00 0. -1.
         23    2    1    2    0    0  0.36072902334E+02  0.14599507071E+03 -0.18753339901E+03  0.25729756074E+03  0.91746629706E+02 0.  0.
          5    1    1    2  502    0 -0.24032025163E+02 -0.84007951910E+02  0.17633903361E+02  0.89263199390E+02  0.47000000000E+01 0.  1.
         -5    1    1    2    0  502 -0.12040877171E+02 -0.61987118802E+02 -0.11018468704E+03  0.12708320455E+03  0.47000000000E+01 0.  1.
        -11    1    3    3    0    0 -0.10449838480E+02  0.12376360145E+03 -0.14020881074E+03  0.18731027408E+03  0.00000000000E+00 0.  1.
         11    1    3    3    0    0  0.46522740814E+02  0.22231469264E+02 -0.47324588272E+02  0.69987286657E+02  0.00000000000E+00 0. -1.
<mgrwt>
<rscale>  0 0.19051235E+03</rscale>
<asrwt>0</asrwt>
<pdfrwt beam="2">  1        1 0.57979088E-01 0.19555081E+03</pdfrwt>
<pdfrwt beam="1">  1       -1 0.14889214E-01 0.19555081E+03</pdfrwt>
<totfact> 0.21061880E+03</totfact>
</mgrwt>
</event>
<event>
 7    1  0.5107591E-006  0.1332376E+03  0.7546771E-02  0.1251591E+00
         -2   -1    0    0    0  501 -0.00000000000E+00  0.00000000000E+00  0.29848837531E+03  0.29848837531E+03  0.00000000000E+00 0.  1.
          2   -1    0    0  501    0  0.00000000000E+00 -0.00000000000E+00 -0.40672772137E+02  0.40672772137E+02  0.00000000000E+00 0. -1.
         23    2    1    2    0    0 -0.43593896153E+02 -0.18125052466E+02  0.40619846443E+02  0.84354861204E+02  0.56893104810E+02 0.  0.
          5    1    1    2  502    0  0.82680586189E+02 -0.10585969197E+02  0.12149433353E+03  0.14741473860E+03  0.47000000000E+01 0.  1.
         -5    1    1    2    0  502 -0.39086690036E+02  0.28711021664E+02  0.95701423207E+02  0.10739154765E+03  0.47000000000E+01 0.  1.
        -11    1    3    3    0    0 -0.36085349553E+02 -0.26304832756E+02  0.51940725717E+02  0.68497705558E+02  0.00000000000E+00 0.  1.
         11    1    3    3    0    0 -0.75085466003E+01  0.81797802895E+01 -0.11320879274E+02  0.15857155646E+02  0.00000000000E+00 0. -1.
<mgrwt>
<rscale>  0 0.11499433E+03</rscale>
<asrwt>0</asrwt>
<pdfrwt beam="2">  1        2 0.62573498E-02 0.13323756E+03</pdfrwt>
<pdfrwt beam="1">  1       -2 0.45921287E-01 0.13323756E+03</pdfrwt>
<totfact> 0.50424279E+03</totfact>
</mgrwt>
</event>
<event>
 7    1  0.5107591E-006  0.1216749E+03  0.7546771E-02  0.1253254E+00
          1   -1    0    0  501    0  0.00000000000E+00  0.00000000000E+00  0.66942433209E+02  0.66942433209E+02  0.00000000000E+00 0. -1.
         -1   -1    0    0    0  501 -0.00000000000E+00 -0.00000000000E+00 -0.14241051354E+04  0.14241051354E+04  0.00000000000E+00 0.  1.
         23    2    1    2    0    0  0.36628561857E+01  0.24316094819E+02  0.29976418947E+02  0.98582227174E+02  0.90637634782E+02 0.  0.
          5    1    1    2  502    0 -0.20427807362E+02  0.42917911846E+02 -0.39069316491E+03  0.39360193289E+03  0.47000000000E+01 0. -1.
         -5    1    1    2    0  502  0.16764951176E+02 -0.67234006665E+02 -0.99644595623E+03  0.99886340855E+03  0.47000000000E+01 0.  1.
        -11    1    3    3    0    0  0.31688804641E+02 -0.20422241590E+02  0.25682267760E+02  0.45616084536E+02  0.00000000000E+00 0.  1.
         11    1    3    3    0    0 -0.28025948455E+02  0.44738336409E+02  0.42941511864E+01  0.52966142637E+02  0.00000000000E+00 0. -1.
<mgrwt>
<rscale>  0 0.11404692E+03</rscale>
<asrwt>0</asrwt>
<pdfrwt beam="1">  1        1 0.10298836E-01 0.12167492E+03</pdfrwt>
<pdfrwt beam="2">  1       -1 0.21909309E+00 0.12167492E+03</pdfrwt>
<totfact> 0.79659466E+01</totfact>
</mgrwt>
</event>
<event>
 7    1  0.5107591E-006  0.1287126E+03  0.7546771E-02  0.1242700E+00
          2   -1    0    0  501    0  0.00000000000E+00  0.00000000000E+00  0.30302508746E+02  0.30302508746E+02  0.00000000000E+00 0. -1.
         -2   -1    0    0    0  501 -0.00000000000E+00 -0.00000000000E+00 -0.44152355700E+03  0.44152355700E+03  0.00000000000E+00 0.  1.
         23    2    1    2    0    0  0.45172209922E+01  0.29501658410E+02 -0.13249333350E+03  0.16481455408E+03  0.93373447411E+02 0.  0.
          5    1    1    2  502    0  0.11018706473E+02 -0.42946690696E+01  0.10337673338E+02  0.16395534904E+02  0.47000000000E+01 0. -1.
         -5    1    1    2    0  502 -0.15535927465E+02 -0.25206989340E+02 -0.28906538810E+03  0.29061597677E+03  0.47000000000E+01 0.  1.
        -11    1    3    3    0    0  0.37848998475E+02  0.40636490294E+02 -0.48365207347E+02  0.73641457826E+02  0.00000000000E+00 0.  1.
         11    1    3    3    0    0 -0.33331777483E+02 -0.11134831884E+02 -0.84128126148E+02  0.91173096254E+02  0.00000000000E+00 0. -1.
<mgrwt>
<rscale>  0 0.12024099E+03</rscale>
<asrwt>0</asrwt>
<pdfrwt beam="1">  1        2 0.46619250E-02 0.12871258E+03</pdfrwt>
<pdfrwt beam="2">  1       -2 0.67926692E-01 0.12871258E+03</pdfrwt>
<totfact> 0.33363169E+03</totfact>
</mgrwt>
</event>
<event>
 7    1  0.5107591E-006  0.1350500E+03  0.7546771E-02  0.1231711E+00
          2   -1    0    0  501    0  0.00000000000E+00  0.00000000000E+00  0.41181721907E+02  0.41181721907E+02  0.00000000000E+00 0. -1.
         -2   -1    0    0    0  501 -0.00000000000E+00 -0.00000000000E+00 -0.36861384540E+03  0.36861384540E+03  0.00000000000E+00 0.  1.
         23    2    1    2    0    0 -0.34979085256E+02 -0.37270149812E+02 -0.10348422746E+03  0.14827852640E+03  0.93085635761E+02 0.  0.
          5    1    1    2  502    0 -0.19320119227E+02  0.53634086627E+02 -0.42240044318E+02  0.71106916676E+02  0.47000000000E+01 0.  1.
         -5    1    1    2    0  502  0.54299204482E+02 -0.16363936815E+02 -0.18170785171E+03  0.19041012423E+03  0.47000000000E+01 0.  1.
        -11    1    3    3    0    0  0.39418809789E+01 -0.58234750071E+02 -0.77426297192E+02  0.96962137138E+02  0.00000000000E+00 0.  1.
         11    1    3    3    0    0 -0.38920966235E+02  0.20964600259E+02 -0.26057930267E+02  0.51316389258E+02  0.00000000000E+00 0. -1.
<mgrwt>
<rscale>  0 0.12717382E+03</rscale>
<asrwt>0</asrwt>
<pdfrwt beam="1">  1        2 0.63356494E-02 0.13505000E+03</pdfrwt>
<pdfrwt beam="2">  1       -2 0.56709824E-01 0.13505000E+03</pdfrwt>
<totfact> 0.32669200E+03</totfact>
</mgrwt>
</event>
<event>
 7    1  0.5107591E-006  0.2477141E+03  0.7546771E-02  0.1147059E+00
          2   -1    0    0  501    0  0.00000000000E+00  0.00000000000E+00  0.36203779751E+03  0.36203779751E+03  0.00000000000E+00 0. -1.
         -2   -1    0    0    0  501 -0.00000000000E+00 -0.00000000000E+00 -0.89612007993E+02  0.89612007993E+02  0.00000000000E+00 0.  1.
         23    2    1    2    0    0  0.64908546819E+02 -0.61107310790E+01  0.94114105318E+02  0.14643292873E+03  0.91294453900E+02 0.  0.
          5    1    1    2  502    0 -0.41200171322E+02  0.10641568454E+02  0.23739296580E+03  0.24122231925E+03  0.47000000000E+01 0. -1.
         -5    1    1    2    0  502 -0.23708375498E+02 -0.45308373752E+01 -0.59081281600E+02  0.63994557515E+02  0.47000000000E+01 0.  1.
        -11    1    3    3    0    0  0.82133934904E+02 -0.16639273591E+02  0.49168866883E+02  0.97161855473E+02  0.00000000000E+00 0. -1.
         11    1    3    3    0    0 -0.17225388085E+02  0.10528542512E+02  0.44945238436E+02  0.49271073259E+02  0.00000000000E+00 0.  1.
<mgrwt>
<rscale>  0 0.20321011E+03</rscale>
<asrwt>0</asrwt>
<pdfrwt beam="1">  1        2 0.55698122E-01 0.24771412E+03</pdfrwt>
<pdfrwt beam="2">  1       -2 0.13786463E-01 0.24771412E+03</pdfrwt>
<totfact> 0.34787774E+03</totfact>
</mgrwt>
</event>
<event>
 7    1  0.5107591E-006  0.1337975E+03  0.7546771E-02  0.1233819E+00
         -1   -1    0    0    0  501 -0.00000000000E+00  0.00000000000E+00  0.65895468835E+02  0.65895468835E+02  0.00000000000E+00 0.  1.
          1   -1    0    0  501    0  0.00000000000E+00 -0.00000000000E+00 -0.22514263216E+03  0.22514263216E+03  0.00000000000E+00 0. -1.
         23    2    1    2    0    0 -0.36201547767E+02 -0.31092912004E+02 -0.10006029945E+03  0.14473410129E+03  0.93051465947E+02 0.  0.
          5    1    1    2  502    0  0.78196428914E+02  0.12370110049E+02 -0.11926505449E+02  0.80199954175E+02  0.47000000000E+01 0. -1.
         -5    1    1    2    0  502 -0.41994881147E+02  0.18722801955E+02 -0.47260358428E+02  0.66104045522E+02  0.47000000000E+01 0. -1.
        -11    1    3    3    0    0 -0.18087143601E+02  0.33148366685E+02 -0.33690715935E+02  0.50606554098E+02  0.00000000000E+00 0. -1.
         11    1    3    3    0    0 -0.18114404166E+02 -0.64241278689E+02 -0.66369583510E+02  0.94127547196E+02  0.00000000000E+00 0.  1.
<mgrwt>
<rscale>  0 0.12580353E+03</rscale>
<asrwt>0</asrwt>
<pdfrwt beam="2">  1        1 0.34637329E-01 0.13379752E+03</pdfrwt>
<pdfrwt beam="1">  1       -1 0.10137764E-01 0.13379752E+03</pdfrwt>
<totfact> 0.71425324E+03</totfact>
</mgrwt>
</event>
<event>
 7    1  0.5107591E-006  0.1353040E+03  0.7546771E-02  0.1232797E+00
          2   -1    0    0  501    0  0.00000000000E+00  0.00000000000E+00  0.50791838783E+03  0.50791838783E+03  0.00000000000E+00 0. -1.
         -2   -1    0    0    0  501 -0.00000000000E+00 -0.00000000000E+00 -0.29002456853E+02  0.29002456853E+02  0.00000000000E+00 0.  1.
         23    2    1    2    0    0  0.32912944548E+02 -0.40021014901E+02  0.25752165488E+03  0.27745486479E+03  0.89324440750E+02 0.  0.
          5    1    1    2  502    0 -0.30029854141E+02  0.84032058813E+02  0.16577802140E+03  0.18832849340E+03  0.47000000000E+01 0.  1.
         -5    1    1    2    0  502 -0.28830904072E+01 -0.44011043912E+02  0.55616254698E+02  0.71137486484E+02  0.47000000000E+01 0.  1.
        -11    1    3    3    0    0 -0.21946921474E+02 -0.16714143736E+02  0.16571727175E+03  0.16799775034E+03  0.00000000000E+00 0. -1.
         11    1    3    3    0    0  0.54859866023E+02 -0.23306871164E+02  0.91804383127E+02  0.10945711445E+03  0.00000000000E+00 0.  1.
<mgrwt>
<rscale>  0 0.12646546E+03</rscale>
<asrwt>0</asrwt>
<pdfrwt beam="1">  1        2 0.78141284E-01 0.13530399E+03</pdfrwt>
<pdfrwt beam="2">  1       -2 0.44619168E-02 0.13530399E+03</pdfrwt>
<totfact> 0.13490790E+04</totfact>
</mgrwt>
</event>
<event>
 7    1  0.5107591E-006  0.3567950E+03  0.7546771E-02  0.1060930E+00
          1   -1    0    0  501    0  0.00000000000E+00  0.00000000000E+00  0.97733833257E+03  0.97733833257E+03  0.00000000000E+00 0. -1.
         -1   -1    0    0    0  501 -0.00000000000E+00 -0.00000000000E+00 -0.15025512408E+03  0.15025512408E+03  0.00000000000E+00 0.  1.
         23    2    1    2    0    0 -0.31708680412E+03  0.10552899933E+03  0.63275211180E+03  0.72130878141E+03  0.90723272084E+02 0.  0.
          5    1    1    2  502    0  0.10520050088E+03  0.22957898451E+02  0.74276690758E+02  0.13089433630E+03  0.47000000000E+01 0.  1.
         -5    1    1    2    0  502  0.21188630324E+03 -0.12848689778E+03  0.12005440593E+03  0.27539033895E+03  0.47000000000E+01 0.  1.
        -11    1    3    3    0    0 -0.25833371006E+03  0.46697749774E+02  0.46156537408E+03  0.53099866303E+03  0.00000000000E+00 0. -1.
         11    1    3    3    0    0 -0.58753094063E+02  0.58831249553E+02  0.17118673772E+03  0.19031011838E+03  0.00000000000E+00 0.  1.
<mgrwt>
<rscale>  0 0.35413715E+03</rscale>
<asrwt>0</asrwt>
<pdfrwt beam="1">  1        1 0.15035974E+00 0.35679499E+03</pdfrwt>
<pdfrwt beam="2">  1       -1 0.23116174E-01 0.35679499E+03</pdfrwt>
<totfact> 0.26334086E+02</totfact>
</mgrwt>
</event>
<event>
 7    1  0.5107591E-006  0.1776068E+03  0.7546771E-02  0.1175774E+00
          1   -1    0    0  501    0  0.00000000000E+00  0.00000000000E+00  0.82437390055E+03  0.82437390055E+03  0.00000000000E+00 0. -1.
         -1   -1    0    0    0  501 -0.00000000000E+00 -0.00000000000E+00 -0.50010973147E+02  0.50010973147E+02  0.00000000000E+00 0.  1.
         23    2    1    2    0    0  0.78393895163E+02 -0.98841381926E+02  0.61900971805E+03  0.63842132527E+03  0.92160381637E+02 0.  0.
          5    1    1    2  502    0 -0.96011312552E+02  0.22262824541E+02  0.92182406985E+02  0.13503144690E+03  0.47000000000E+01 0.  1.
         -5    1    1    2    0  502  0.17617417389E+02  0.76578557384E+02  0.63170802372E+02  0.10093210153E+03  0.47000000000E+01 0.  1.
        -11    1    3    3    0    0  0.36288018006E+02 -0.10267240088E+03  0.51007021404E+03  0.52156501551E+03  0.00000000000E+00 0. -1.
         11    1    3    3    0    0  0.42105877157E+02  0.38310189573E+01  0.10893950401E+03  0.11685630976E+03  0.00000000000E+00 0.  1.
<mgrwt>
<rscale>  0 0.17200375E+03</rscale>
<asrwt>0</asrwt>
<pdfrwt beam="1">  1        1 0.12682674E+00 0.17760680E+03</pdfrwt>
<pdfrwt beam="2">  1       -1 0.76939965E-02 0.17760680E+03</pdfrwt>
<totfact> 0.19972547E+03</totfact>
</mgrwt>
</event>
<event>
 7    1  0.5107591E-006  0.1395829E+03  0.7546771E-02  0.1224833E+00
         -3   -1    0    0    0  501 -0.00000000000E+00  0.00000000000E+00  0.60774437981E+02  0.60774437981E+02  0.00000000000E+00 0.  1.
          3   -1    0    0  501    0  0.00000000000E+00 -0.00000000000E+00 -0.26904338282E+03  0.26904338282E+03  0.00000000000E+00 0. -1.
         23    2    1    2    0    0  0.27580651247E+02 -0.55633980589E+02 -0.12574424108E+03  0.16766449195E+03  0.91890889523E+02 0.  0.
          5    1    1    2  502    0 -0.16306715894E+02  0.80941160914E+02 -0.99454342487E+02  0.12934696267E+03  0.47000000000E+01 0. -1.
         -5    1    1    2    0  502 -0.11273935353E+02 -0.25307180325E+02  0.16929638726E+02  0.32806366176E+02  0.47000000000E+01 0. -1.
        -11    1    3    3    0    0  0.52457747907E+02 -0.85458479979E+01 -0.86450542897E+02  0.10148173826E+03  0.00000000000E+00 0. -1.
         11    1    3    3    0    0 -0.24877096660E+02 -0.47088132591E+02 -0.39293698183E+02  0.66182753690E+02  0.00000000000E+00 0.  1.
<mgrwt>
<rscale>  0 0.13178355E+03</rscale>
<asrwt>0</asrwt>
<pdfrwt beam="2">  1        3 0.41391290E-01 0.13958286E+03</pdfrwt>
<pdfrwt beam="1">  1       -3 0.93499135E-02 0.13958286E+03</pdfrwt>
<totfact> 0.11097736E+03</totfact>
</mgrwt>
</event>
<event>
 7    1  0.5107591E-006  0.2210356E+03  0.7546771E-02  0.1133113E+00
         -2   -1    0    0    0  501 -0.00000000000E+00  0.00000000000E+00  0.38421688857E+02  0.38421688857E+02  0.00000000000E+00 0.  1.
          2   -1    0    0  501    0  0.00000000000E+00 -0.00000000000E+00 -0.31789826185E+03  0.31789826185E+03  0.00000000000E+00 0. -1.
         23    2    1    2    0    0  0.21936689657E+02 -0.22550644855E+01 -0.13323235073E+03  0.16267414151E+03  0.90695718562E+02 0.  0.
          5    1    1    2  502    0  0.48127985747E+02  0.10212774165E+02 -0.30638690501E+02  0.58150005364E+02  0.47000000000E+01 0. -1.
         -5    1    1    2    0  502 -0.70064675405E+02 -0.79577096794E+01 -0.11560553176E+03  0.13549580383E+03  0.47000000000E+01 0. -1.
        -11    1    3    3    0    0  0.12832628927E+02  0.43330087842E+02 -0.50427187471E+02  0.67713175333E+02  0.00000000000E+00 0.  1.
         11    1    3    3    0    0  0.91040607306E+01 -0.45585152327E+02 -0.82805163259E+02  0.94960966175E+02  0.00000000000E+00 0. -1.
<mgrwt>
<rscale>  0 0.22103564E+03</rscale>
<asrwt>0</asrwt>
<pdfrwt beam="2">  1        2 0.48907422E-01 0.22103564E+03</pdfrwt>
<pdfrwt beam="1">  1       -2 0.59110294E-02 0.22103564E+03</pdfrwt>
<totfact> 0.15181229E+04</totfact>
</mgrwt>
</event>
<event>
 7    1  0.5107591E-006  0.1543595E+03  0.7546771E-02  0.1204395E+00
          1   -1    0    0  501    0  0.00000000000E+00  0.00000000000E+00  0.24123853839E+03  0.24123853839E+03  0.00000000000E+00 0. -1.
         -1   -1    0    0    0  501 -0.00000000000E+00 -0.00000000000E+00 -0.82966313411E+02  0.82966313411E+02  0.00000000000E+00 0.  1.
         23    2    1    2    0    0  0.71985367717E+02  0.54894424499E+02  0.51607752260E+02  0.13657715643E+03  0.88287420160E+02 0.  0.
          5    1    1    2  502    0 -0.58086767499E+02 -0.86751361565E+02  0.11080083818E+03  0.15231148031E+03  0.47000000000E+01 0. -1.
         -5    1    1    2    0  502 -0.13898600218E+02  0.31856937066E+02 -0.41363654596E+01  0.35316215065E+02  0.47000000000E+01 0. -1.
        -11    1    3    3    0    0  0.33269326690E+02  0.41904703288E+02  0.72974340924E+02  0.90488157730E+02  0.00000000000E+00 0. -1.
         11    1    3    3    0    0  0.38716041027E+02  0.12989721211E+02 -0.21366588664E+02  0.46088998700E+02  0.00000000000E+00 0.  1.
<mgrwt>
<rscale>  0 0.14685233E+03</rscale>
<asrwt>0</asrwt>
<pdfrwt beam="1">  1        1 0.37113621E-01 0.15435946E+03</pdfrwt>
<pdfrwt beam="2">  1       -1 0.12764048E-01 0.15435946E+03</pdfrwt>
<totfact> 0.46386185E+03</totfact>
</mgrwt>
</event>
<event>
 7    1  0.5107591E-006  0.1345413E+03  0.7546771E-02  0.1232813E+00
          2   -1    0    0  501    0  0.00000000000E+00  0.00000000000E+00  0.77774754467E+02  0.77774754467E+02  0.00000000000E+00 0. -1.
         -2   -1    0    0    0  501 -0.00000000000E+00 -0.00000000000E+00 -0.21353217226E+03  0.21353217226E+03  0.00000000000E+00 0.  1.
         23    2    1    2    0    0  0.30660984252E+02 -0.39192262841E+02 -0.72357534827E+01  0.10524464672E+03  0.92455124855E+02 0.  0.
          5    1    1    2  502    0  0.11271354627E+02  0.56823411903E+02 -0.12772253772E+03  0.14032490947E+03  0.47000000000E+01 0.  1.
         -5    1    1    2    0  502 -0.41932338878E+02 -0.17631149062E+02 -0.79912659131E+00  0.45737370545E+02  0.47000000000E+01 0.  1.
        -11    1    3    3    0    0  0.19824300404E+02  0.16743305739E+02 -0.33609405306E+02  0.42460962054E+02  0.00000000000E+00 0.  1.
         11    1    3    3    0    0  0.10836683848E+02 -0.55935568580E+02  0.26373651823E+02  0.62783684661E+02  0.00000000000E+00 0. -1.
<mgrwt>
<rscale>  0 0.12645454E+03</rscale>
<asrwt>0</asrwt>
<pdfrwt beam="1">  1        2 0.11965347E-01 0.13454127E+03</pdfrwt>
<pdfrwt beam="2">  1       -2 0.32851103E-01 0.13454127E+03</pdfrwt>
<totfact> 0.42313939E+03</totfact>
</mgrwt>
</event>
<event>
 7    1  0.5107591E-006  0.1992015E+03  0.7546771E-02  0.1154880E+00
         -1   -1    0    0    0  501 -0.00000000000E+00  0.00000000000E+00  0.15571475305E+03  0.15571475305E+03  0.00000000000E+00 0.  1.
          1   -1    0    0  501    0  0.00000000000E+00 -0.00000000000E+00 -0.23122692783E+03  0.23122692783E+03  0.00000000000E+00 0. -1.
         23    2    1    2    0    0  0.11121414619E+03  0.10810927167E+03 -0.49861384989E+02  0.18609544718E+03  0.89939739902E+02 0.  0.
          5    1    1    2  502    0  0.21892957487E+02 -0.46699550977E+02 -0.14373439124E+02  0.53747887411E+02  0.47000000000E+01 0. -1.
         -5    1    1    2    0  502 -0.13310710368E+03 -0.61409720694E+02 -0.11277350667E+02  0.14709834629E+03  0.47000000000E+01 0. -1.
        -11    1    3    3    0    0  0.79749917988E+01  0.58205448762E+02  0.50343955591E+01  0.58964564769E+02  0.00000000000E+00 0.  1.
         11    1    3    3    0    0  0.10323915439E+03  0.49903822909E+02 -0.54895780548E+02  0.12713088241E+03  0.00000000000E+00 0. -1.
<mgrwt>
<rscale>  0 0.19402571E+03</rscale>
<asrwt>0</asrwt>
<pdfrwt beam="2">  1        1 0.35573374E-01 0.19920152E+03</pdfrwt>
<pdfrwt beam="1">  1       -1 0.23956116E-01 0.19920152E+03</pdfrwt>
<totfact> 0.18061706E+03</totfact>
</mgrwt>
</event>
<event>
 7    1  0.5107591E-006  0.1300695E+03  0.7546771E-02  0.1247541E+00
          3   -1    0    0  501    0  0.00000000000E+00  0.00000000000E+00  0.34627887765E+03  0.34627887765E+03  0.00000000000E+00 0. -1.
         -3   -1    0    0    0  501 -0.00000000000E+00 -0.00000000000E+00 -0.33797127233E+02  0.33797127233E+02  0.00000000000E+00 0.  1.
         23    2    1    2    0    0  0.13098697447E+02  0.33510546041E+02  0.13092297365E+03  0.15673395533E+03  0.78295435077E+02 0.  0.
          5    1    1    2  502    0  0.55538008128E+02 -0.63352413791E+01  0.79166607431E+02  0.97026013843E+02  0.47000000000E+01 0.  1.
         -5    1    1    2    0  502 -0.68636705576E+02 -0.27175304662E+02  0.10239216934E+03  0.12631603571E+03  0.47000000000E+01 0.  1.
        -11    1    3    3    0    0  0.45772505927E+02  0.19253409731E+02  0.65094308367E+02  0.81872370595E+02  0.00000000000E+00 0. -1.
         11    1    3    3    0    0 -0.32673808480E+02  0.14257136310E+02  0.65828665283E+02  0.74861584737E+02  0.00000000000E+00 0.  1.
<mgrwt>
<rscale>  0 0.11734554E+03</rscale>
<asrwt>0</asrwt>
<pdfrwt beam="1">  1        3 0.53273671E-01 0.13006953E+03</pdfrwt>
<pdfrwt beam="2">  1       -3 0.51995583E-02 0.13006953E+03</pdfrwt>
<totfact> 0.17169157E+03</totfact>
</mgrwt>
</event>
<event>
 7    1  0.5107591E-006  0.1379494E+03  0.7546771E-02  0.1227717E+00
         -2   -1    0    0    0  501 -0.00000000000E+00  0.00000000000E+00  0.30738016925E+03  0.30738016925E+03  0.00000000000E+00 0.  1.
          2   -1    0    0  501    0  0.00000000000E+00 -0.00000000000E+00 -0.50903736650E+02  0.50903736650E+02  0.00000000000E+00 0. -1.
         23    2    1    2    0    0 -0.42939001421E+02 -0.69158661775E+02  0.81490894082E+02  0.13546116334E+03  0.71290129841E+02 0.  0.
          5    1    1    2  502    0 -0.13461137949E+02  0.25188319104E+02 -0.47446533201E+01  0.29330110626E+02  0.47000000000E+01 0. -1.
         -5    1    1    2    0  502  0.56400139370E+02  0.43970342671E+02  0.17973019184E+03  0.19349263193E+03  0.47000000000E+01 0.  1.
        -11    1    3    3    0    0 -0.50426821302E+02 -0.17798115116E+02  0.56706111512E+02  0.77943699495E+02  0.00000000000E+00 0. -1.
         11    1    3    3    0    0  0.74878198807E+01 -0.51360546660E+02  0.24784782571E+02  0.57517463842E+02  0.00000000000E+00 0.  1.
<mgrwt>
<rscale>  0 0.12982390E+03</rscale>
<asrwt>0</asrwt>
<pdfrwt beam="2">  1        2 0.78313443E-02 0.13794940E+03</pdfrwt>
<pdfrwt beam="1">  1       -2 0.47289256E-01 0.13794940E+03</pdfrwt>
<totfact> 0.35892968E+03</totfact>
</mgrwt>
</event>
<event>
 7    1  0.5107591E-006  0.1628758E+03  0.7546771E-02  0.1193061E+00
          4   -1    0    0  501    0  0.00000000000E+00  0.00000000000E+00  0.81688597035E+03  0.81688597035E+03  0.00000000000E+00 0. -1.
         -4   -1    0    0    0  501 -0.00000000000E+00 -0.00000000000E+00 -0.30156758693E+02  0.30156758693E+02  0.00000000000E+00 0.  1.
         23    2    1    2    0    0  0.10201784970E+03 -0.22307868995E+02  0.48470818360E+03  0.50390247593E+03  0.89835401274E+02 0.  0.
          5    1    1    2  502    0 -0.13078258708E+03  0.10201402754E+02  0.24682546569E+03  0.27955867758E+03  0.47000000000E+01 0. -1.
         -5    1    1    2    0  502  0.28764737380E+02  0.12106466240E+02  0.55195562368E+02  0.63581575527E+02  0.47000000000E+01 0. -1.
        -11    1    3    3    0    0  0.16915660386E+02 -0.16242151032E+02  0.18275991761E+02  0.29731446505E+02  0.00000000000E+00 0.  1.
         11    1    3    3    0    0  0.85102189314E+02 -0.60657179624E+01  0.46643219184E+03  0.47417102943E+03  0.00000000000E+00 0. -1.
<mgrwt>
<rscale>  0 0.15619500E+03</rscale>
<asrwt>0</asrwt>
<pdfrwt beam="1">  1        4 0.12567475E+00 0.16287582E+03</pdfrwt>
<pdfrwt beam="2">  1       -4 0.46395020E-02 0.16287582E+03</pdfrwt>
<totfact> 0.23026500E+02</totfact>
</mgrwt>
</event>
<event>
 7    1  0.5107591E-006  0.1178484E+03  0.7546771E-02  0.1253629E+00
          2   -1    0    0  501    0  0.00000000000E+00  0.00000000000E+00  0.25542533204E+03  0.25542533204E+03  0.00000000000E+00 0. -1.
         -2   -1    0    0    0  501 -0.00000000000E+00 -0.00000000000E+00 -0.53548755536E+02  0.53548755536E+02  0.00000000000E+00 0.  1.
         23    2    1    2    0    0  0.50523195115E+01  0.30130753226E+02  0.14627563917E+03  0.17866790405E+03  0.97940130181E+02 0.  0.
          5    1    1    2  502    0  0.42076298221E+02  0.63628535818E+01  0.56028258909E+02  0.70513520505E+02  0.47000000000E+01 0. -1.
         -5    1    1    2    0  502 -0.47128617733E+02 -0.36493606808E+02 -0.42732157700E+00  0.59792663020E+02  0.47000000000E+01 0.  1.
        -11    1    3    3    0    0  0.40647745752E+02 -0.14203882493E+02  0.43454786939E+02  0.61174406581E+02  0.00000000000E+00 0.  1.
         11    1    3    3    0    0 -0.35595426240E+02  0.44334635720E+02  0.10282085223E+03  0.11749349747E+03  0.00000000000E+00 0. -1.
<mgrwt>
<rscale>  0 0.11383448E+03</rscale>
<asrwt>0</asrwt>
<pdfrwt beam="1">  1        2 0.39296204E-01 0.11784837E+03</pdfrwt>
<pdfrwt beam="2">  1       -2 0.82382702E-02 0.11784837E+03</pdfrwt>
<totfact> 0.10965894E+04</totfact>
</mgrwt>
</event>
<event>
 7    1  0.5107591E-006  0.5704393E+03  0.7546771E-02  0.9968707E-01
          1   -1    0    0  501    0  0.00000000000E+00  0.00000000000E+00  0.55949971521E+03  0.55949971521E+03  0.00000000000E+00 0. -1.
         -1   -1    0    0    0  501 -0.00000000000E+00 -0.00000000000E+00 -0.14539820802E+03  0.14539820802E+03  0.00000000000E+00 0.  1.
         23    2    1    2    0    0 -0.11384177268E+03  0.78066378113E+02  0.37013242915E+03  0.40514443583E+03  0.89942704992E+02 0.  0.
          5    1    1    2  502    0 -0.47951832125E+02  0.38032836874E+02  0.76327535927E+02  0.97948239522E+02  0.47000000000E+01 0. -1.
         -5    1    1    2    0  502  0.16179360480E+03 -0.11609921499E+03 -0.32358457880E+02  0.20180524788E+03  0.47000000000E+01 0.  1.
        -11    1    3    3    0    0 -0.11725870508E+03  0.36852064195E+02  0.28990905459E+03  0.31488877161E+03  0.00000000000E+00 0.  1.
         11    1    3    3    0    0  0.34169324042E+01  0.41214313918E+02  0.80223374552E+02  0.90255664217E+02  0.00000000000E+00 0. -1.
<mgrwt>
<rscale>  0 0.57043933E+03</rscale>
<asrwt>0</asrwt>
<pdfrwt beam="1">  1        1 0.86076878E-01 0.57043933E+03</pdfrwt>
<pdfrwt beam="2">  1       -1 0.22368955E-01 0.57043933E+03</pdfrwt>
<totfact> 0.64662764E+02</totfact>
</mgrwt>
</event>
<event>
 7    1  0.5107591E-006  0.1673028E+03  0.7546771E-02  0.1187294E+00
          2   -1    0    0  501    0  0.00000000000E+00  0.00000000000E+00  0.71760260744E+03  0.71760260744E+03  0.00000000000E+00 0. -1.
         -2   -1    0    0    0  501 -0.00000000000E+00 -0.00000000000E+00 -0.36623024628E+02  0.36623024628E+02  0.00000000000E+00 0.  1.
         23    2    1    2    0    0 -0.10999618890E+03  0.16438417079E+02  0.42100291500E+03  0.44506857551E+03  0.92049982839E+02 0.  0.
          5    1    1    2  502    0  0.79042810720E+02 -0.67410426990E+02  0.13328426490E+03  0.16905240863E+03  0.47000000000E+01 0. -1.
         -5    1    1    2    0  502  0.30953378185E+02  0.50972009911E+02  0.12669240292E+03  0.14010464793E+03  0.47000000000E+01 0. -1.
        -11    1    3    3    0    0 -0.29180791922E+02 -0.37237643517E+02  0.14318402581E+03  0.15079730090E+03  0.00000000000E+00 0.  1.
         11    1    3    3    0    0 -0.80815396983E+02  0.53676060596E+02  0.27781888918E+03  0.29427127461E+03  0.00000000000E+00 0. -1.
<mgrwt>
<rscale>  0 0.16124873E+03</rscale>
<asrwt>0</asrwt>
<pdfrwt beam="1">  1        2 0.11040039E+00 0.16730277E+03</pdfrwt>
<pdfrwt beam="2">  1       -2 0.56343120E-02 0.16730277E+03</pdfrwt>
<totfact> 0.64706811E+03</totfact>
</mgrwt>
</event>
<event>
 7    1  0.5107591E-006  0.1672399E+03  0.7546771E-02  0.1192450E+00
          2   -1    0    0  501    0  0.00000000000E+00  0.00000000000E+00  0.49215313615E+03  0.49215313615E+03  0.00000000000E+00 0. -1.
         -2   -1    0    0    0  501 -0.00000000000E+00 -0.00000000000E+00 -0.48415051264E+02  0.48415051264E+02  0.00000000000E+00 0.  1.
         23    2    1    2    0    0  0.90200148939E+02  0.64874781630E+02  0.27107319583E+03  0.30018862554E+03  0.65480754790E+02 0.  0.
          5    1    1    2  502    0 -0.24558882713E+02  0.34152809339E+02  0.76616020400E+02  0.87530895619E+02  0.47000000000E+01 0.  1.
         -5    1    1    2    0  502 -0.65641266226E+02 -0.99027590969E+02  0.96048868655E+02  0.15284866625E+03  0.47000000000E+01 0.  1.
        -11    1    3    3    0    0  0.28029909421E+02  0.89621733857E+01  0.15118556595E+03  0.15402295844E+03  0.00000000000E+00 0. -1.
         11    1    3    3    0    0  0.62170239518E+02  0.55912608244E+02  0.11988762988E+03  0.14616566711E+03  0.00000000000E+00 0.  1.
<mgrwt>
<rscale>  0 0.15672008E+03</rscale>
<asrwt>0</asrwt>
<pdfrwt beam="1">  1        2 0.75715864E-01 0.16723986E+03</pdfrwt>
<pdfrwt beam="2">  1       -2 0.74484698E-02 0.16723986E+03</pdfrwt>
<totfact> 0.65071141E+03</totfact>
</mgrwt>
</event>
<event>
 7    1  0.5107591E-006  0.1462031E+03  0.7546771E-02  0.1215223E+00
          2   -1    0    0  501    0  0.00000000000E+00  0.00000000000E+00  0.65924420770E+03  0.65924420770E+03  0.00000000000E+00 0. -1.
         -2   -1    0    0    0  501 -0.00000000000E+00 -0.00000000000E+00 -0.26600089185E+02  0.26600089185E+02  0.00000000000E+00 0.  1.
         23    2    1    2    0    0 -0.73277458790E+02  0.19490111385E+02  0.30488903079E+03  0.32695886702E+03  0.90528057628E+02 0.  0.
          5    1    1    2  502    0  0.32640156346E+02  0.49609705586E+02  0.19335591597E+03  0.20232425197E+03  0.47000000000E+01 0.  1.
         -5    1    1    2    0  502  0.40637302444E+02 -0.69099816971E+02  0.13439917175E+03  0.15656117789E+03  0.47000000000E+01 0.  1.
        -11    1    3    3    0    0  0.21224510135E+02  0.74825046066E+01  0.49281513316E+02  0.54176888618E+02  0.00000000000E+00 0.  1.
         11    1    3    3    0    0 -0.94501968924E+02  0.12007606779E+02  0.25560751747E+03  0.27278197840E+03  0.00000000000E+00 0. -1.
<mgrwt>
<rscale>  0 0.13860183E+03</rscale>
<asrwt>0</asrwt>
<pdfrwt beam="1">  1        2 0.10142217E+00 0.14620313E+03</pdfrwt>
<pdfrwt beam="2">  1       -2 0.40923219E-02 0.14620313E+03</pdfrwt>
<totfact> 0.11488333E+04</totfact>
</mgrwt>
</event>
<event>
 6    1  0.5107591E-006  0.2575964E+03  0.7546771E-02  0.1108596E+00
         -2   -1    0    0    0  501 -0.00000000000E+00  0.00000000000E+00  0.36682698018E+03  0.36682698018E+03  0.00000000000E+00 0.  1.
          2   -1    0    0  501    0  0.00000000000E+00 -0.00000000000E+00 -0.45222903145E+02  0.45222903145E+02  0.00000000000E+00 0. -1.
          5    1    1    2  502    0  0.54473272043E+02  0.57226446854E+01  0.21300760516E+02  0.58956750485E+02  0.47000000000E+01 0.  1.
         -5    1    1    2    0  502 -0.37172509169E+02 -0.16591672054E+02  0.14152228563E+03  0.14733542123E+03  0.47000000000E+01 0.  1.
        -11    1    1    2    0    0 -0.13097226641E+02 -0.58063736876E+02  0.92768062908E+02  0.11022181445E+03  0.00000000000E+00 0.  1.
         11    1    1    2    0    0 -0.42035362324E+01  0.68932764244E+02  0.66012967974E+02  0.95535897148E+02  0.00000000000E+00 0. -1.
<mgrwt>
<rscale>  0 0.25759644E+03</rscale>
<asrwt>0</asrwt>
<pdfrwt beam="2">  1        2 0.69573700E-02 0.25759644E+03</pdfrwt>
<pdfrwt beam="1">  1       -2 0.56434918E-01 0.25759644E+03</pdfrwt>
<totfact> 0.30368139E+03</totfact>
</mgrwt>
</event>
<event>
 7    1  0.5107591E-006  0.2261558E+03  0.7546771E-02  0.1132390E+00
          2   -1    0    0  501    0  0.00000000000E+00  0.00000000000E+00  0.96532554332E+03  0.96532554332E+03  0.00000000000E+00 0. -1.
         -2   -1    0    0    0  501 -0.00000000000E+00 -0.00000000000E+00 -0.49303563187E+02  0.49303563187E+02  0.00000000000E+00 0.  1.
         23    2    1    2    0    0 -0.17100447853E+03  0.79243246996E+02  0.45310882782E+03  0.49942524108E+03  0.92714279937E+02 0.  0.
          5    1    1    2  502    0  0.16377508139E+03 -0.20420088914E+02  0.36582203575E+03  0.40135658604E+03  0.47000000000E+01 0. -1.
         -5    1    1    2    0  502  0.72293971425E+01 -0.58823158083E+02  0.97091116558E+02  0.11384727939E+03  0.47000000000E+01 0. -1.
        -11    1    3    3    0    0 -0.68411988297E+02  0.63518319717E+02  0.12993317260E+03  0.15999189487E+03  0.00000000000E+00 0.  1.
         11    1    3    3    0    0 -0.10259249023E+03  0.15724927280E+02  0.32317565522E+03  0.33943334620E+03  0.00000000000E+00 0. -1.
<mgrwt>
<rscale>  0 0.22201519E+03</rscale>
<asrwt>0</asrwt>
<pdfrwt beam="1">  1        2 0.14851161E+00 0.22615578E+03</pdfrwt>
<pdfrwt beam="2">  1       -2 0.75851643E-02 0.22615578E+03</pdfrwt>
<totfact> 0.28242743E+03</totfact>
</mgrwt>
</event>
<event>
 6    1  0.5107591E-006  0.3796630E+03  0.7546771E-02  0.1051058E+00
          2   -1    0    0  501    0  0.00000000000E+00  0.00000000000E+00  0.26839756418E+03  0.26839756418E+03  0.00000000000E+00 0. -1.
         -2   -1    0    0    0  501 -0.00000000000E+00 -0.00000000000E+00 -0.13426350874E+03  0.13426350874E+03  0.00000000000E+00 0.  1.
          5    1    1    2  502    0 -0.54231078339E+02  0.44184287681E+01 -0.44654053023E+02  0.70545069437E+02  0.47000000000E+01 0. -1.
         -5    1    1    2    0  502 -0.40642289894E+02  0.52232729037E+02  0.73072181908E+02  0.98699987230E+02  0.47000000000E+01 0. -1.
        -11    1    1    2    0    0  0.33640008179E+02 -0.16622138611E+02 -0.49329261889E+02  0.61978397211E+02  0.00000000000E+00 0.  1.
         11    1    1    2    0    0  0.61233360053E+02 -0.40029019194E+02  0.15504518844E+03  0.17143761904E+03  0.00000000000E+00 0. -1.
<mgrwt>
<rscale>  0 0.37966300E+03</rscale>
<asrwt>0</asrwt>
<pdfrwt beam="1">  1        2 0.41291933E-01 0.37966300E+03</pdfrwt>
<pdfrwt beam="2">  1       -2 0.20655924E-01 0.37966300E+03</pdfrwt>
<totfact> 0.24674544E+03</totfact>
</mgrwt>
</event>
<event>
 7    1  0.5107591E-006  0.1399064E+03  0.7546771E-02  0.1224321E+00
         -1   -1    0    0    0  501 -0.00000000000E+00  0.00000000000E+00  0.79807309152E+02  0.79807309152E+02  0.00000000000E+00 0.  1.
          1   -1    0    0  501    0  0.00000000000E+00 -0.00000000000E+00 -0.19800444309E+03  0.19800444309E+03  0.00000000000E+00 0. -1.
         23    2    1    2    0    0 -0.61384959796E+02  0.13501592506E+02 -0.57741995917E+02  0.12540231365E+03  0.91875981006E+02 0.  0.
          5    1    1    2  502    0  0.61601936046E+02  0.35517237851E+01 -0.95127656756E+02  0.11348468772E+03  0.47000000000E+01 0. -1.
         -5    1    1    2    0  502 -0.21697624965E+00 -0.17053316291E+02  0.34672518737E+02  0.38924750877E+02  0.47000000000E+01 0. -1.
        -11    1    3    3    0    0 -0.44137977180E+02 -0.22915039932E+02 -0.67597091746E+02  0.83920360445E+02  0.00000000000E+00 0. -1.
         11    1    3    3    0    0 -0.17246982616E+02  0.36416632438E+02  0.98550958296E+01  0.41481953200E+02  0.00000000000E+00 0.  1.
<mgrwt>
<rscale>  0 0.13213541E+03</rscale>
<asrwt>0</asrwt>
<pdfrwt beam="2">  1        1 0.30462222E-01 0.13990644E+03</pdfrwt>
<pdfrwt beam="1">  1       -1 0.12278048E-01 0.13990644E+03</pdfrwt>
<totfact> 0.62596580E+03</totfact>
</mgrwt>
</event>
<event>
 7    1  0.5107591E-006  0.1576022E+03  0.7546771E-02  0.1199467E+00
         -2   -1    0    0    0  501 -0.00000000000E+00  0.00000000000E+00  0.72300005073E+02  0.72300005073E+02  0.00000000000E+00 0.  1.
          2   -1    0    0  501    0  0.00000000000E+00 -0.00000000000E+00 -0.29118871227E+03  0.29118871227E+03  0.00000000000E+00 0. -1.
         23    2    1    2    0    0 -0.95943540784E+02 -0.32424680417E+01 -0.10947295173E+03  0.17162874063E+03  0.90864849267E+02 0.  0.
          5    1    1    2  502    0  0.26417787198E+02  0.12210958379E+02  0.25996634706E+02  0.39305495812E+02  0.47000000000E+01 0.  1.
         -5    1    1    2    0  502  0.69525753585E+02 -0.89684903377E+01 -0.13541239017E+03  0.15255448090E+03  0.47000000000E+01 0.  1.
        -11    1    3    3    0    0 -0.43077287154E+02  0.10924765121E+02  0.50227903501E+01  0.44723948667E+02  0.00000000000E+00 0.  1.
         11    1    3    3    0    0 -0.52866253630E+02 -0.14167233163E+02 -0.11449574208E+03  0.12690479196E+03  0.00000000000E+00 0. -1.
<mgrwt>
<rscale>  0 0.15082203E+03</rscale>
<asrwt>0</asrwt>
<pdfrwt beam="2">  1        2 0.44798263E-01 0.15760217E+03</pdfrwt>
<pdfrwt beam="1">  1       -2 0.11123078E-01 0.15760217E+03</pdfrwt>
<totfact> 0.60866644E+03</totfact>
</mgrwt>
</event>
<event>
 7    1  0.5107591E-006  0.1485185E+03  0.7546771E-02  0.1211136E+00
          2   -1    0    0  501    0  0.00000000000E+00  0.00000000000E+00  0.15714925640E+03  0.15714925640E+03  0.00000000000E+00 0.  1.
         -2   -1    0    0    0  501 -0.00000000000E+00 -0.00000000000E+00 -0.13250917611E+03  0.13250917611E+03  0.00000000000E+00 0. -1.
         23    2    1    2    0    0 -0.26064557941E+02  0.75870315900E+02  0.60380930329E+02  0.13689995485E+03  0.93059523284E+02 0.  0.
          5    1    1    2  502    0 -0.25447034150E+01 -0.97414048488E+02 -0.54820945224E+02  0.11190799075E+03  0.47000000000E+01 0. -1.
         -5    1    1    2    0  502  0.28609261356E+02  0.21543732587E+02  0.19080095187E+02  0.40850486919E+02  0.47000000000E+01 0. -1.
        -11    1    3    3    0    0 -0.46162235507E+02  0.72595638261E+02  0.73099096478E+02  0.11289179150E+03  0.00000000000E+00 0.  1.
         11    1    3    3    0    0  0.20097677566E+02  0.32746776392E+01 -0.12718166149E+02  0.24008163348E+02  0.00000000000E+00 0. -1.
<mgrwt>
<rscale>  0 0.14164205E+03</rscale>
<asrwt>0</asrwt>
<pdfrwt beam="1">  1        2 0.24176809E-01 0.14851850E+03</pdfrwt>
<pdfrwt beam="2">  1       -2 0.20386027E-01 0.14851850E+03</pdfrwt>
<totfact> 0.43735765E+03</totfact>
</mgrwt>
</event>
<event>
 7    1  0.5107591E-006  0.1353331E+03  0.7546771E-02  0.1231859E+00
         -1   -1    0    0    0  501 -0.00000000000E+00  0.00000000000E+00  0.19250785885E+02  0.19250785885E+02  0.00000000000E+00 0.  1.
          1   -1    0    0  501    0  0.00000000000E+00 -0.00000000000E+00 -0.79498641921E+03  0.79498641921E+03  0.00000000000E+00 0. -1.
         23    2    1    2    0    0  0.51750282311E+02 -0.35393357208E+01 -0.43656872023E+03  0.44906703589E+03  0.91533254239E+02 0.  0.
          5    1    1    2  502    0  0.32666048975E+02  0.31332944265E+02 -0.96327239354E+02  0.10653568038E+03  0.47000000000E+01 0.  1.
         -5    1    1    2    0  502 -0.84416331287E+02 -0.27793608544E+02 -0.24283967374E+03  0.25863448882E+03  0.47000000000E+01 0.  1.
        -11    1    3    3    0    0  0.74252537973E+02 -0.14670202451E+02 -0.37527148969E+03  0.38282808832E+03  0.00000000000E+00 0. -1.
         11    1    3    3    0    0 -0.22502255662E+02  0.11130866730E+02 -0.61297230536E+02  0.66238947572E+02  0.00000000000E+00 0.  1.
<mgrwt>
<rscale>  0 0.12707685E+03</rscale>
<asrwt>0</asrwt>
<pdfrwt beam="2">  1        1 0.12230564E+00 0.13533314E+03</pdfrwt>
<pdfrwt beam="1">  1       -1 0.29616586E-02 0.13533314E+03</pdfrwt>
<totfact> 0.86105850E+03</totfact>
</mgrwt>
</event>
<event>
 7    1  0.5107591E-006  0.1445644E+03  0.7546771E-02  0.1217769E+00
          4   -1    0    0  501    0  0.00000000000E+00  0.00000000000E+00  0.21473747949E+03  0.21473747949E+03  0.00000000000E+00 0.  1.
         -4   -1    0    0    0  501 -0.00000000000E+00 -0.00000000000E+00 -0.84318678845E+02  0.84318678845E+02  0.00000000000E+00 0. -1.
         23    2    1    2    0    0  0.41883247858E+02 -0.59325878619E+02  0.96166612755E+02  0.15048945886E+03  0.90140409888E+02 0.  0.
          5    1    1    2  502    0 -0.22252765166E+01 -0.19748994737E+02 -0.31989055290E+02  0.37952131785E+02  0.47000000000E+01 0. -1.
         -5    1    1    2    0  502 -0.39657971341E+02  0.79074873356E+02  0.66241243181E+02  0.11061456769E+03  0.47000000000E+01 0. -1.
        -11    1    3    3    0    0  0.67218736395E+02 -0.53760985440E+02  0.56040079324E+02  0.10270877552E+03  0.00000000000E+00 0.  1.
         11    1    3    3    0    0 -0.25335488537E+02 -0.55648931784E+01  0.40126533431E+02  0.47780683343E+02  0.00000000000E+00 0. -1.
<mgrwt>
<rscale>  0 0.13675090E+03</rscale>
<asrwt>0</asrwt>
<pdfrwt beam="1">  1        4 0.33036535E-01 0.14456435E+03</pdfrwt>
<pdfrwt beam="2">  1       -4 0.12972105E-01 0.14456435E+03</pdfrwt>
<totfact> 0.71945828E+02</totfact>
</mgrwt>
</event>
<event>
 7    1  0.5107591E-006  0.1469145E+03  0.7546771E-02  0.1213797E+00
         -1   -1    0    0    0  501 -0.00000000000E+00  0.00000000000E+00  0.67783964277E+02  0.67783964277E+02  0.00000000000E+00 0.  1.
          1   -1    0    0  501    0  0.00000000000E+00 -0.00000000000E+00 -0.26375063729E+03  0.26375063729E+03  0.00000000000E+00 0. -1.
         23    2    1    2    0    0 -0.49490252985E+02  0.59236992887E+02 -0.98719998474E+02  0.15535064791E+03  0.91814373829E+02 0.  0.
          5    1    1    2  502    0 -0.15290835335E+02 -0.63488566167E+02 -0.83471440238E+01  0.66002821853E+02  0.47000000000E+01 0. -1.
         -5    1    1    2    0  502  0.64781088319E+02  0.42515732802E+01 -0.88899530520E+02  0.11018113181E+03  0.47000000000E+01 0. -1.
        -11    1    3    3    0    0 -0.66195048198E+02  0.58789404444E+02 -0.45442327260E+02  0.99513735673E+02  0.00000000000E+00 0.  1.
         11    1    3    3    0    0  0.16704795213E+02  0.44758844312E+00 -0.53277671215E+02  0.55836912241E+02  0.00000000000E+00 0. -1.
<mgrwt>
<rscale>  0 0.13965267E+03</rscale>
<asrwt>0</asrwt>
<pdfrwt beam="2">  1        1 0.40577021E-01 0.14691450E+03</pdfrwt>
<pdfrwt beam="1">  1       -1 0.10428302E-01 0.14691450E+03</pdfrwt>
<totfact> 0.56565203E+03</totfact>
</mgrwt>
</event>
<event>
 7    1  0.5107591E-006  0.1428873E+03  0.7546771E-02  0.1219442E+00
         -2   -1    0    0    0  501 -0.00000000000E+00  0.00000000000E+00  0.38694432869E+02  0.38694432869E+02  0.00000000000E+00 0.  1.
          2   -1    0    0  501    0  0.00000000000E+00 -0.00000000000E+00 -0.45971714375E+03  0.45971714375E+03  0.00000000000E+00 0. -1.
         23    2    1    2    0    0  0.37608066385E+02  0.58113469263E+02 -0.25046700677E+03  0.27591208688E+03  0.92748133335E+02 0.  0.
          5    1    1    2  502    0 -0.45131949095E+02 -0.88927081981E+02 -0.16027676235E+03  0.18882703537E+03  0.47000000000E+01 0. -1.
         -5    1    1    2    0  502  0.75238827099E+01  0.30813612718E+02 -0.10278941768E+02  0.33672454375E+02  0.47000000000E+01 0. -1.
        -11    1    3    3    0    0 -0.17849957122E+02  0.56835140573E+02 -0.11464995061E+03  0.12920319403E+03  0.00000000000E+00 0.  1.
         11    1    3    3    0    0  0.55458023507E+02  0.12783286899E+01 -0.13581705617E+03  0.14670889285E+03  0.00000000000E+00 0. -1.
<mgrwt>
<rscale>  0 0.13555264E+03</rscale>
<asrwt>0</asrwt>
<pdfrwt beam="2">  1        2 0.70725715E-01 0.14288728E+03</pdfrwt>
<pdfrwt beam="1">  1       -2 0.59529896E-02 0.14288728E+03</pdfrwt>
<totfact> 0.97869386E+03</totfact>
</mgrwt>
</event>
<event>
 7    1  0.5107591E-006  0.1477157E+03  0.7546771E-02  0.1212678E+00
         -2   -1    0    0    0  501 -0.00000000000E+00  0.00000000000E+00  0.15859220053E+02  0.15859220053E+02  0.00000000000E+00 0.  1.
          2   -1    0    0  501    0  0.00000000000E+00 -0.00000000000E+00 -0.11882115820E+04  0.11882115820E+04  0.00000000000E+00 0. -1.
         23    2    1    2    0    0  0.78289749062E+02 -0.81500684622E+01 -0.65447301655E+03  0.66553672116E+03  0.91697815612E+02 0.  0.
          5    1    1    2  502    0  0.21188636671E+02  0.31854884277E+02 -0.22502527700E+03  0.22830277542E+03  0.47000000000E+01 0.  1.
         -5    1    1    2    0  502 -0.99478385733E+02 -0.23704815815E+02 -0.29285406837E+03  0.31023130545E+03  0.47000000000E+01 0.  1.
        -11    1    3    3    0    0 -0.19787673784E+02  0.12528420566E+01 -0.67493483748E+02  0.70345518659E+02  0.00000000000E+00 0. -1.
         11    1    3    3    0    0  0.98077422846E+02 -0.94029105188E+01 -0.58697953280E+03  0.59519120250E+03  0.00000000000E+00 0.  1.
<mgrwt>
<rscale>  0 0.14048495E+03</rscale>
<asrwt>0</asrwt>
<pdfrwt beam="2">  1        2 0.18280180E+00 0.14771574E+03</pdfrwt>
<pdfrwt beam="1">  1       -2 0.24398798E-02 0.14771574E+03</pdfrwt>
<totfact> 0.11354013E+04</totfact>
</mgrwt>
</event>
<event>
 7    1  0.5107591E-006  0.1493427E+03  0.7546771E-02  0.1210773E+00
          4   -1    0    0  501    0  0.00000000000E+00  0.00000000000E+00  0.69826016617E+02  0.69826016617E+02  0.00000000000E+00 0. -1.
         -4   -1    0    0    0  501 -0.00000000000E+00 -0.00000000000E+00 -0.26351158443E+03  0.26351158443E+03  0.00000000000E+00 0.  1.
         23    2    1    2    0    0 -0.68042552900E+02  0.45256991497E+02 -0.81162442338E+02  0.14634911529E+03  0.90292509185E+02 0.  0.
          5    1    1    2  502    0 -0.24273114066E+02  0.11043617511E+02 -0.61777149883E+02  0.67451106750E+02  0.47000000000E+01 0.  1.
         -5    1    1    2    0  502  0.92315666965E+02 -0.56300609008E+02 -0.50745975594E+02  0.11953737901E+03  0.47000000000E+01 0.  1.
        -11    1    3    3    0    0 -0.10149603723E+02  0.28673342256E+02  0.14196361185E+02  0.33566526224E+02  0.00000000000E+00 0. -1.
         11    1    3    3    0    0 -0.57892949177E+02  0.16583649241E+02 -0.95358803523E+02  0.11278258906E+03  0.00000000000E+00 0.  1.
<mgrwt>
<rscale>  0 0.14191662E+03</rscale>
<asrwt>0</asrwt>
<pdfrwt beam="1">  1        4 0.10742464E-01 0.14934269E+03</pdfrwt>
<pdfrwt beam="2">  1       -4 0.40540244E-01 0.14934269E+03</pdfrwt>
<totfact> 0.67135461E+02</totfact>
</mgrwt>
</event>
<event>
 7    1  0.5107591E-006  0.1462452E+03  0.7546771E-02  0.1215230E+00
         -1   -1    0    0    0  501 -0.00000000000E+00  0.00000000000E+00  0.19973368659E+03  0.19973368659E+03  0.00000000000E+00 0.  1.
          1   -1    0    0  501    0  0.00000000000E+00 -0.00000000000E+00 -0.88987102347E+02  0.88987102347E+02  0.00000000000E+00 0. -1.
         23    2    1    2    0    0  0.66003669093E+02  0.37507888916E+02  0.30251148077E+02  0.12178618807E+03  0.90296276661E+02 0.  0.
          5    1    1    2  502    0 -0.16840364977E+02  0.26821886339E+02  0.79633199973E+02  0.85828596734E+02  0.47000000000E+01 0. -1.
         -5    1    1    2    0  502 -0.49163304117E+02 -0.64329775255E+02  0.86223619382E+00  0.81106004139E+02  0.47000000000E+01 0. -1.
        -11    1    3    3    0    0  0.22986604693E+02  0.17621257273E+02  0.59444175092E+02  0.66124901932E+02  0.00000000000E+00 0.  1.
         11    1    3    3    0    0  0.43017064401E+02  0.19886631643E+02 -0.29193027015E+02  0.55661286134E+02  0.00000000000E+00 0. -1.
<mgrwt>
<rscale>  0 0.13859684E+03</rscale>
<asrwt>0</asrwt>
<pdfrwt beam="2">  1        1 0.13690323E-01 0.14624516E+03</pdfrwt>
<pdfrwt beam="1">  1       -1 0.30728259E-01 0.14624516E+03</pdfrwt>
<totfact> 0.39730025E+03</totfact>
</mgrwt>
</event>
<event>
 7    1  0.5107591E-006  0.1584601E+03  0.7546771E-02  0.1195137E+00
          2   -1    0    0  501    0  0.00000000000E+00  0.00000000000E+00  0.21295908508E+03  0.21295908508E+03  0.00000000000E+00 0. -1.
         -2   -1    0    0    0  501 -0.00000000000E+00 -0.00000000000E+00 -0.10976413514E+03  0.10976413514E+03  0.00000000000E+00 0.  1.
         23    2    1    2    0    0 -0.51010738134E+02  0.93448161900E+02  0.76219004890E+02  0.16198339735E+03  0.95365769234E+02 0.  0.
          5    1    1    2  502    0 -0.18957638716E+02  0.27965838158E+00  0.38443496454E+02  0.43121487615E+02  0.47000000000E+01 0. -1.
         -5    1    1    2    0  502  0.69968376850E+02 -0.93727820282E+02 -0.11467551406E+02  0.11761833526E+03  0.47000000000E+01 0.  1.
        -11    1    3    3    0    0 -0.68949205515E+02  0.81464104415E+02  0.29818661881E+02  0.11081311225E+03  0.00000000000E+00 0. -1.
         11    1    3    3    0    0  0.17938467381E+02  0.11984057485E+02  0.46400343009E+02  0.51170285099E+02  0.00000000000E+00 0.  1.
<mgrwt>
<rscale>  0 0.15442638E+03</rscale>
<asrwt>0</asrwt>
<pdfrwt beam="1">  1        2 0.32762936E-01 0.15846006E+03</pdfrwt>
<pdfrwt beam="2">  1       -2 0.16886790E-01 0.15846006E+03</pdfrwt>
<totfact> 0.43197038E+03</totfact>
</mgrwt>
</event>
<event>
 7    1  0.5107591E-006  0.3641500E+03  0.7546771E-02  0.1057962E+00
         -1   -1    0    0    0  501 -0.00000000000E+00  0.00000000000E+00  0.44236260288E+03  0.44236260288E+03  0.00000000000E+00 0.  1.
          1   -1    0    0  501    0  0.00000000000E+00 -0.00000000000E+00 -0.31924759960E+03  0.31924759960E+03  0.00000000000E+00 0. -1.
         23    2    1    2    0    0 -0.45584153581E+02 -0.33897170986E+03 -0.51636245622E+02  0.35770024900E+03  0.91123164612E+02 0.  0.
          5    1    1    2  502    0 -0.12861528833E+02  0.27849521639E+03  0.12076644439E+03  0.30386119951E+03  0.47000000000E+01 0. -1.
         -5    1    1    2    0  502  0.58445682413E+02  0.60476493463E+02  0.53984804508E+02  0.10004875398E+03  0.47000000000E+01 0. -1.
        -11    1    3    3    0    0 -0.25774759093E+01 -0.27517561830E+03 -0.55241034534E+02  0.28067745935E+03  0.00000000000E+00 0. -1.
         11    1    3    3    0    0 -0.43006677672E+02 -0.63796091556E+02  0.36047889118E+01  0.77022789649E+02  0.00000000000E+00 0.  1.
<mgrwt>
<rscale>  0 0.36157372E+03</rscale>
<asrwt>0</asrwt>
<pdfrwt beam="2">  1        1 0.49115015E-01 0.36415004E+03</pdfrwt>
<pdfrwt beam="1">  1       -1 0.68055785E-01 0.36415004E+03</pdfrwt>
<totfact> 0.18352589E+02</totfact>
</mgrwt>
</event>
<event>
 7    1  0.5107591E-006  0.4286375E+03  0.7546771E-02  0.1035005E+00
          2   -1    0    0  501    0  0.00000000000E+00  0.00000000000E+00  0.14809798577E+04  0.14809798577E+04  0.00000000000E+00 0. -1.
         -2   -1    0    0    0  501 -0.00000000000E+00 -0.00000000000E+00 -0.17365184425E+03  0.17365184425E+03  0.00000000000E+00 0.  1.
         23    2    1    2    0    0  0.33900801170E+03 -0.23060666378E+03  0.11022426918E+04  0.11794579170E+04  0.89867462790E+02 0.  0.
          5    1    1    2  502    0 -0.13354299320E+03  0.54968049733E+02  0.13057251385E+03  0.19474724362E+03  0.47000000000E+01 0. -1.
         -5    1    1    2    0  502 -0.20546501850E+03  0.17563861404E+03  0.74512807781E+02  0.28042654135E+03  0.47000000000E+01 0. -1.
        -11    1    3    3    0    0  0.14269988731E+03 -0.15131032651E+03  0.53849490409E+03  0.57726496038E+03  0.00000000000E+00 0. -1.
         11    1    3    3    0    0  0.19630812440E+03 -0.79296337264E+02  0.56374778773E+03  0.60219295660E+03  0.00000000000E+00 0.  1.
<mgrwt>
<rscale>  0 0.42639573E+03</rscale>
<asrwt>0</asrwt>
<pdfrwt beam="1">  1        2 0.22784305E+00 0.42863754E+03</pdfrwt>
<pdfrwt beam="2">  1       -2 0.26715669E-01 0.42863754E+03</pdfrwt>
<totfact> 0.17339442E+02</totfact>
</mgrwt>
</event>
<event>
 7    1  0.5107591E-006  0.3132928E+03  0.7546771E-02  0.1103130E+00
         -1   -1    0    0    0  501 -0.00000000000E+00  0.00000000000E+00  0.21147218899E+03  0.21147218899E+03  0.00000000000E+00 0.  1.
          1   -1    0    0  501    0  0.00000000000E+00 -0.00000000000E+00 -0.38900300178E+03  0.38900300178E+03  0.00000000000E+00 0. -1.
         23    2    1    2    0    0  0.78197812239E+02  0.11020287800E+03 -0.22989527441E+03  0.28283638173E+03  0.94260328218E+02 0.  0.
          5    1    1    2  502    0 -0.11671795750E+03 -0.16982760958E+03 -0.30564668099E+02  0.20837655222E+03  0.47000000000E+01 0. -1.
         -5    1    1    2    0  502  0.38520145261E+02  0.59624731585E+02  0.82929129727E+02  0.10926225682E+03  0.47000000000E+01 0.  1.
        -11    1    3    3    0    0  0.84677944426E+02  0.12329024011E+03 -0.20195696978E+03  0.25131147053E+03  0.00000000000E+00 0.  1.
         11    1    3    3    0    0 -0.64801321869E+01 -0.13087362115E+02 -0.27938304632E+02  0.31524911197E+02  0.00000000000E+00 0. -1.
<mgrwt>
<rscale>  0 0.26679224E+03</rscale>
<asrwt>0</asrwt>
<pdfrwt beam="2">  1        1 0.59846615E-01 0.31329280E+03</pdfrwt>
<pdfrwt beam="1">  1       -1 0.32534183E-01 0.31329280E+03</pdfrwt>
<totfact> 0.55990565E+02</totfact>
</mgrwt>
</event>
<event>
 7    1  0.5107591E-006  0.1424692E+03  0.7546771E-02  0.1220982E+00
         -2   -1    0    0    0  501 -0.00000000000E+00  0.00000000000E+00  0.86998150073E+02  0.86998150073E+02  0.00000000000E+00 0.  1.
          2   -1    0    0  501    0  0.00000000000E+00 -0.00000000000E+00 -0.25000834889E+03  0.25000834889E+03  0.00000000000E+00 0. -1.
         23    2    1    2    0    0 -0.56726986606E+02  0.38136795127E+02 -0.15822737235E+03  0.19445705317E+03  0.90029317531E+02 0.  0.
          5    1    1    2  502    0  0.14241978557E+02 -0.22502546401E+02  0.58588050263E+02  0.64527886850E+02  0.47000000000E+01 0.  1.
         -5    1    1    2    0  502  0.42485008049E+02 -0.15634248726E+02 -0.63370876734E+02  0.78021558945E+02  0.47000000000E+01 0.  1.
        -11    1    3    3    0    0  0.62671896230E+01 -0.10247344769E+02  0.49359466171E+01  0.12986504903E+02  0.00000000000E+00 0.  1.
         11    1    3    3    0    0 -0.62994176229E+02  0.48384139896E+02 -0.16316331897E+03  0.18147054827E+03  0.00000000000E+00 0. -1.
<mgrwt>
<rscale>  0 0.13446122E+03</rscale>
<asrwt>0</asrwt>
<pdfrwt beam="2">  1        2 0.38462822E-01 0.14246919E+03</pdfrwt>
<pdfrwt beam="1">  1       -2 0.13384331E-01 0.14246919E+03</pdfrwt>
<totfact> 0.52895984E+03</totfact>
</mgrwt>
</event>
<event>
 7    1  0.5107591E-006  0.1711177E+03  0.7546771E-02  0.1183008E+00
          3   -1    0    0  501    0  0.00000000000E+00  0.00000000000E+00  0.19989323697E+03  0.19989323697E+03  0.00000000000E+00 0.  1.
         -3   -1    0    0    0  501 -0.00000000000E+00 -0.00000000000E+00 -0.15582067745E+03  0.15582067745E+03  0.00000000000E+00 0. -1.
         23    2    1    2    0    0  0.11035706454E+03  0.38434849958E+02  0.96128567823E+02  0.17685331982E+03  0.91544938673E+02 0.  0.
          5    1    1    2  502    0 -0.98170380046E+01  0.39425542236E+02 -0.27437151351E+02  0.49250734919E+02  0.47000000000E+01 0. -1.
         -5    1    1    2    0  502 -0.10054002653E+03 -0.77860392194E+02 -0.24618856954E+02  0.12960985968E+03  0.47000000000E+01 0. -1.
        -11    1    3    3    0    0  0.10673258987E+03  0.45511351542E+01  0.94676758234E+02  0.14274539264E+03  0.00000000000E+00 0.  1.
         11    1    3    3    0    0  0.36244746697E+01  0.33883714804E+02  0.14518095890E+01  0.34107927181E+02  0.00000000000E+00 0. -1.
<mgrwt>
<rscale>  0 0.16514440E+03</rscale>
<asrwt>0</asrwt>
<pdfrwt beam="1">  1        3 0.30752806E-01 0.17111775E+03</pdfrwt>
<pdfrwt beam="2">  1       -3 0.23972412E-01 0.17111775E+03</pdfrwt>
<totfact> 0.39822418E+02</totfact>
</mgrwt>
</event>
<event>
 7    1  0.5107591E-006  0.1540028E+03  0.7546771E-02  0.1204655E+00
         -4   -1    0    0    0  501 -0.00000000000E+00  0.00000000000E+00  0.28119188532E+03  0.28119188532E+03  0.00000000000E+00 0.  1.
          4   -1    0    0  501    0  0.00000000000E+00 -0.00000000000E+00 -0.70556811873E+02  0.70556811873E+02  0.00000000000E+00 0. -1.
         23    2    1    2    0    0  0.69742022966E+02  0.56826941082E+02  0.11047718270E+03  0.16804111538E+03  0.89103072675E+02 0.  0.
          5    1    1    2  502    0 -0.75515614993E+02 -0.83475702765E+02  0.10681457397E+03  0.15524897511E+03  0.47000000000E+01 0.  1.
         -5    1    1    2    0  502  0.57735920266E+01  0.26648761683E+02 -0.66566832226E+01  0.28458606706E+02  0.47000000000E+01 0.  1.
        -11    1    3    3    0    0  0.65527758669E+02  0.17234659403E+02  0.10882069728E+03  0.12819073601E+03  0.00000000000E+00 0.  1.
         11    1    3    3    0    0  0.42142642977E+01  0.39592281679E+02  0.16564854166E+01  0.39850379372E+02  0.00000000000E+00 0. -1.
<mgrwt>
<rscale>  0 0.14664662E+03</rscale>
<asrwt>0</asrwt>
<pdfrwt beam="2">  1        4 0.10854894E-01 0.15400283E+03</pdfrwt>
<pdfrwt beam="1">  1       -4 0.43260290E-01 0.15400283E+03</pdfrwt>
<totfact> 0.58321884E+02</totfact>
</mgrwt>
</event>
<event>
 7    1  0.5107591E-006  0.1306583E+03  0.7546771E-02  0.1240511E+00
          1   -1    0    0  501    0  0.00000000000E+00  0.00000000000E+00  0.20546933732E+03  0.20546933732E+03  0.00000000000E+00 0. -1.
         -1   -1    0    0    0  501 -0.00000000000E+00 -0.00000000000E+00 -0.64160922378E+02  0.64160922378E+02  0.00000000000E+00 0.  1.
         23    2    1    2    0    0  0.37964852823E+02  0.13662350438E+01  0.73170790382E+02  0.12227239497E+03  0.90296053941E+02 0.  0.
          5    1    1    2  502    0 -0.60512868758E+02 -0.24332326305E+02 -0.67239029377E+01  0.65735608763E+02  0.47000000000E+01 0. -1.
         -5    1    1    2    0  502  0.22548015935E+02  0.22966091261E+02  0.74861527497E+02  0.81622255969E+02  0.47000000000E+01 0. -1.
        -11    1    3    3    0    0  0.28518079464E+01  0.36207129379E+02  0.30322040238E+01  0.36445620967E+02  0.00000000000E+00 0.  1.
         11    1    3    3    0    0  0.35113044877E+02 -0.34840894335E+02  0.70138586359E+02  0.85826773998E+02  0.00000000000E+00 0. -1.
<mgrwt>
<rscale>  0 0.12158147E+03</rscale>
<asrwt>0</asrwt>
<pdfrwt beam="1">  1        1 0.31610667E-01 0.13065835E+03</pdfrwt>
<pdfrwt beam="2">  1       -1 0.98709112E-02 0.13065835E+03</pdfrwt>
<totfact> 0.83172462E+03</totfact>
</mgrwt>
</event>
<event>
 7    1  0.5107591E-006  0.1395680E+03  0.7546771E-02  0.1224490E+00
         -1   -1    0    0    0  501 -0.00000000000E+00  0.00000000000E+00  0.59724841058E+03  0.59724841058E+03  0.00000000000E+00 0.  1.
          1   -1    0    0  501    0  0.00000000000E+00 -0.00000000000E+00 -0.40641390929E+02  0.40641390929E+02  0.00000000000E+00 0. -1.
         23    2    1    2    0    0 -0.57131426164E+02 -0.24268596879E+02  0.70438495399E+02  0.13208443076E+03  0.92907214823E+02 0.  0.
          5    1    1    2  502    0 -0.15555198642E+02  0.47078797537E+02  0.95038844112E+02  0.10729794626E+03  0.47000000000E+01 0. -1.
         -5    1    1    2    0  502  0.72686624806E+02 -0.22810200658E+02  0.39112968014E+03  0.39850742448E+03  0.47000000000E+01 0. -1.
        -11    1    3    3    0    0 -0.25005621698E+02  0.35108098963E+02  0.18494195008E+02  0.46903038049E+02  0.00000000000E+00 0. -1.
         11    1    3    3    0    0 -0.32125804466E+02 -0.59376695841E+02  0.51944300391E+02  0.85181392714E+02  0.00000000000E+00 0.  1.
<mgrwt>
<rscale>  0 0.13201912E+03</rscale>
<asrwt>0</asrwt>
<pdfrwt beam="2">  1        1 0.62525221E-02 0.13956804E+03</pdfrwt>
<pdfrwt beam="1">  1       -1 0.91884364E-01 0.13956804E+03</pdfrwt>
<totfact> 0.14503525E+03</totfact>
</mgrwt>
</event>
<event>
 7    1  0.5107591E-006  0.1720402E+03  0.7546771E-02  0.1192130E+00
         -3   -1    0    0    0  501 -0.00000000000E+00  0.00000000000E+00  0.10123764766E+03  0.10123764766E+03  0.00000000000E+00 0.  1.
          3   -1    0    0  501    0  0.00000000000E+00 -0.00000000000E+00 -0.21310594830E+03  0.21310594830E+03  0.00000000000E+00 0. -1.
         23    2    1    2    0    0  0.75373296882E+02 -0.91456598887E+01 -0.26192289237E+02  0.12215040108E+03  0.92032100325E+02 0.  0.
          5    1    1    2  502    0 -0.84094387496E+01  0.40258839872E+02 -0.10738359853E+03  0.11508614200E+03  0.47000000000E+01 0. -1.
         -5    1    1    2    0  502 -0.66963858133E+02 -0.31113179984E+02  0.21707587124E+02  0.77107052878E+02  0.47000000000E+01 0.  1.
        -11    1    3    3    0    0  0.30353226632E+01 -0.40395573429E+02 -0.90399592067E+01  0.41505859812E+02  0.00000000000E+00 0.  1.
         11    1    3    3    0    0  0.72337974219E+02  0.31249913540E+02 -0.17152330030E+02  0.80644541265E+02  0.00000000000E+00 0. -1.
<mgrwt>
<rscale>  0 0.15699688E+03</rscale>
<asrwt>0</asrwt>
<pdfrwt beam="2">  1        3 0.32785530E-01 0.17204024E+03</pdfrwt>
<pdfrwt beam="1">  1       -3 0.15575023E-01 0.17204024E+03</pdfrwt>
<totfact> 0.75642552E+02</totfact>
</mgrwt>
</event>
<event>
 7    1  0.5107591E-006  0.1641240E+03  0.7546771E-02  0.1191184E+00
         -1   -1    0    0    0  501 -0.00000000000E+00  0.00000000000E+00  0.11773682869E+03  0.11773682869E+03  0.00000000000E+00 0.  1.
          1   -1    0    0  501    0  0.00000000000E+00 -0.00000000000E+00 -0.24221836111E+03  0.24221836111E+03  0.00000000000E+00 0. -1.
         23    2    1    2    0    0 -0.58094994679E+02  0.89086262684E+02 -0.13602826279E+03  0.19542553287E+03  0.91520817373E+02 0.  0.
          5    1    1    2  502    0  0.55970708081E+02  0.16387423213E+02  0.51750547652E+01  0.58737883810E+02  0.47000000000E+01 0. -1.
         -5    1    1    2    0  502  0.21242865975E+01 -0.10547368590E+03  0.63716756127E+01  0.10579177312E+03  0.47000000000E+01 0. -1.
        -11    1    3    3    0    0 -0.51900802070E+02  0.65385895306E+02 -0.33400003915E+02  0.89914230364E+02  0.00000000000E+00 0.  1.
         11    1    3    3    0    0 -0.61941926090E+01  0.23700367378E+02 -0.10262825888E+03  0.10551130250E+03  0.00000000000E+00 0. -1.
<mgrwt>
<rscale>  0 0.15781661E+03</rscale>
<asrwt>0</asrwt>
<pdfrwt beam="2">  1        1 0.37264362E-01 0.16412398E+03</pdfrwt>
<pdfrwt beam="1">  1       -1 0.18113359E-01 0.16412398E+03</pdfrwt>
<totfact> 0.26666525E+03</totfact>
</mgrwt>
</event>
<event>
 7    1  0.5107591E-006  0.1262675E+03  0.7546771E-02  0.1247515E+00
         -1   -1    0    0    0  501 -0.00000000000E+00  0.00000000000E+00  0.60065321467E+02  0.60065321467E+02  0.00000000000E+00 0.  1.
          1   -1    0    0  501    0  0.00000000000E+00 -0.00000000000E+00 -0.20397342471E+03  0.20397342471E+03  0.00000000000E+00 0. -1.
         23    2    1    2    0    0  0.83005155619E+01 -0.15803375264E+02 -0.73154793107E+02  0.11929926344E+03  0.92531320500E+02 0.  0.
          5    1    1    2  502    0  0.27626500325E+01  0.24315655301E+02 -0.10475846250E+03  0.10768151556E+03  0.47000000000E+01 0.  1.
         -5    1    1    2    0  502 -0.11063165594E+02 -0.85122800371E+01  0.34005152363E+02  0.37057967182E+02  0.47000000000E+01 0.  1.
        -11    1    3    3    0    0 -0.50457477444E+01 -0.50596051269E+02 -0.62440847599E+02  0.80525023584E+02  0.00000000000E+00 0. -1.
         11    1    3    3    0    0  0.13346263306E+02  0.34792676004E+02 -0.10713945508E+02  0.38774239852E+02  0.00000000000E+00 0.  1.
<mgrwt>
<rscale>  0 0.11736121E+03</rscale>
<asrwt>0</asrwt>
<pdfrwt beam="2">  1        1 0.31380527E-01 0.12626752E+03</pdfrwt>
<pdfrwt beam="1">  1       -1 0.92408188E-02 0.12626752E+03</pdfrwt>
<totfact> 0.92536572E+03</totfact>
</mgrwt>
</event>
<event>
 7    1  0.5107591E-006  0.1758490E+03  0.7546771E-02  0.1177864E+00
          2   -1    0    0  501    0  0.00000000000E+00  0.00000000000E+00  0.46044008569E+03  0.46044008569E+03  0.00000000000E+00 0. -1.
         -2   -1    0    0    0  501 -0.00000000000E+00 -0.00000000000E+00 -0.61035051378E+02  0.61035051378E+02  0.00000000000E+00 0.  1.
         23    2    1    2    0    0  0.30589773340E+02  0.11983928076E+03  0.23520364042E+03  0.28088220226E+03  0.90977313831E+02 0.  0.
          5    1    1    2  502    0  0.19756202209E+02 -0.10165655283E+02  0.10247991729E+03  0.10496604937E+03  0.47000000000E+01 0.  1.
         -5    1    1    2    0  502 -0.50345975549E+02 -0.10967362548E+03  0.61721476601E+02  0.13562688544E+03  0.47000000000E+01 0.  1.
        -11    1    3    3    0    0  0.23531894673E+02  0.62812335646E+02  0.41593897013E+02  0.78925229457E+02  0.00000000000E+00 0.  1.
         11    1    3    3    0    0  0.70578786669E+01  0.57026945116E+02  0.19360974341E+03  0.20195697280E+03  0.00000000000E+00 0. -1.
<mgrwt>
<rscale>  0 0.16998444E+03</rscale>
<asrwt>0</asrwt>
<pdfrwt beam="1">  1        2 0.70836934E-01 0.17584898E+03</pdfrwt>
<pdfrwt beam="2">  1       -2 0.93900082E-02 0.17584898E+03</pdfrwt>
<totfact> 0.48923269E+03</totfact>
</mgrwt>
</event>
<event>
 7    1  0.5107591E-006  0.1812742E+03  0.7546771E-02  0.1172088E+00
         -2   -1    0    0    0  501 -0.00000000000E+00  0.00000000000E+00  0.23743881010E+03  0.23743881010E+03  0.00000000000E+00 0.  1.
          2   -1    0    0  501    0  0.00000000000E+00 -0.00000000000E+00 -0.12975424525E+03  0.12975424525E+03  0.00000000000E+00 0. -1.
         23    2    1    2    0    0 -0.75845363418E+02 -0.10716111007E+03  0.72140320692E+01  0.15993796677E+03  0.91060904311E+02 0.  0.
          5    1    1    2  502    0  0.32076138829E+02 -0.21293368326E+02  0.47927770102E+02  0.61655878582E+02  0.47000000000E+01 0.  1.
         -5    1    1    2    0  502  0.43769224589E+02  0.12845447839E+03  0.52542762676E+02  0.14559920999E+03  0.47000000000E+01 0.  1.
        -11    1    3    3    0    0 -0.66858510689E+02 -0.11386181965E+03  0.29226093354E+02  0.13523586417E+03  0.00000000000E+00 0.  1.
         11    1    3    3    0    0 -0.89868527293E+01  0.67007095834E+01 -0.22012061284E+02  0.24702102601E+02  0.00000000000E+00 0. -1.
<mgrwt>
<rscale>  0 0.17564240E+03</rscale>
<asrwt>0</asrwt>
<pdfrwt beam="2">  1        2 0.19962192E-01 0.18127422E+03</pdfrwt>
<pdfrwt beam="1">  1       -2 0.36529048E-01 0.18127422E+03</pdfrwt>
<totfact> 0.19390485E+03</totfact>
</mgrwt>
</event>
<event>
 7    1  0.5107591E-006  0.1466044E+03  0.7546771E-02  0.1214201E+00
          2   -1    0    0  501    0  0.00000000000E+00  0.00000000000E+00  0.83400305224E+03  0.83400305224E+03  0.00000000000E+00 0. -1.
         -2   -1    0    0    0  501 -0.00000000000E+00 -0.00000000000E+00 -0.26838259098E+02  0.26838259098E+02  0.00000000000E+00 0.  1.
         23    2    1    2    0    0 -0.76497786313E+02  0.40424166442E+01  0.56677539615E+03  0.57927442170E+03  0.91957889906E+02 0.  0.
          5    1    1    2  502    0  0.10562689800E+03 -0.46835182651E+01  0.22415387444E+03  0.24788309009E+03  0.47000000000E+01 0. -1.
         -5    1    1    2    0  502 -0.29129111692E+02  0.64110162088E+00  0.16235522551E+02  0.33683799545E+02  0.47000000000E+01 0. -1.
        -11    1    3    3    0    0  0.19969082191E+02 -0.97563297891E+01  0.10219960436E+03  0.10458828493E+03  0.00000000000E+00 0. -1.
         11    1    3    3    0    0 -0.96466868504E+02  0.13798746433E+02  0.46457579179E+03  0.47468613677E+03  0.00000000000E+00 0.  1.
<mgrwt>
<rscale>  0 0.13935425E+03</rscale>
<asrwt>0</asrwt>
<pdfrwt beam="1">  1        2 0.12830814E+00 0.14660440E+03</pdfrwt>
<pdfrwt beam="2">  1       -2 0.41289636E-02 0.14660440E+03</pdfrwt>
<totfact> 0.85199241E+03</totfact>
</mgrwt>
</event>
<event>
 7    1  0.5107591E-006  0.1613458E+03  0.7546771E-02  0.1194553E+00
         -2   -1    0    0    0  501 -0.00000000000E+00  0.00000000000E+00  0.11205761828E+03  0.11205761828E+03  0.00000000000E+00 0.  1.
          2   -1    0    0  501    0  0.00000000000E+00 -0.00000000000E+00 -0.27226944896E+03  0.27226944896E+03  0.00000000000E+00 0. -1.
         23    2    1    2    0    0  0.38607558309E+02  0.94422753412E+02 -0.17496464646E+03  0.22230816478E+03  0.91662929794E+02 0.  0.
          5    1    1    2  502    0 -0.71987470423E+02 -0.49025068957E+02 -0.27474183870E+02  0.91447110744E+02  0.47000000000E+01 0. -1.
         -5    1    1    2    0  502  0.33379912115E+02 -0.45397684455E+02  0.42226999643E+02  0.70571791712E+02  0.47000000000E+01 0. -1.
        -11    1    3    3    0    0 -0.23114973457E+02  0.61638504716E+02 -0.68949886076E+02  0.95329397625E+02  0.00000000000E+00 0.  1.
         11    1    3    3    0    0  0.61722531766E+02  0.32784248696E+02 -0.10601476038E+03  0.12697876716E+03  0.00000000000E+00 0. -1.
<mgrwt>
<rscale>  0 0.15492161E+03</rscale>
<asrwt>0</asrwt>
<pdfrwt beam="2">  1        2 0.41887607E-01 0.16134584E+03</pdfrwt>
<pdfrwt beam="1">  1       -2 0.17239634E-01 0.16134584E+03</pdfrwt>
<totfact> 0.32090411E+03</totfact>
</mgrwt>
</event>
<event>
 7    1  0.5107591E-006  0.1265569E+03  0.7546771E-02  0.1239799E+00
         -1   -1    0    0    0  501 -0.00000000000E+00  0.00000000000E+00  0.23081457156E+03  0.23081457156E+03  0.00000000000E+00 0.  1.
          1   -1    0    0  501    0  0.00000000000E+00 -0.00000000000E+00 -0.69515729705E+02  0.69515729705E+02  0.00000000000E+00 0. -1.
         23    2    1    2    0    0  0.52308215458E+02 -0.29970087479E+02  0.20965926541E+02  0.11135946631E+03  0.91252425241E+02 0.  0.
          5    1    1    2  502    0 -0.80552399684E+02 -0.42480782077E+01  0.77930374834E+02  0.11225849004E+03  0.47000000000E+01 0. -1.
         -5    1    1    2    0  502  0.28244184226E+02  0.34218165686E+02  0.62402540481E+02  0.76712344926E+02  0.47000000000E+01 0.  1.
        -11    1    3    3    0    0  0.69008483820E+01  0.19967473818E+02  0.36432714985E+02  0.42114895705E+02  0.00000000000E+00 0.  1.
         11    1    3    3    0    0  0.45407367076E+02 -0.49937561296E+02 -0.15466788443E+02  0.69244570601E+02  0.00000000000E+00 0. -1.
<mgrwt>
<rscale>  0 0.12202167E+03</rscale>
<asrwt>0</asrwt>
<pdfrwt beam="2">  1        1 0.10694728E-01 0.12655690E+03</pdfrwt>
<pdfrwt beam="1">  1       -1 0.35509934E-01 0.12655690E+03</pdfrwt>
<totfact> 0.42570442E+03</totfact>
</mgrwt>
</event>
<event>
 7    1  0.5107591E-006  0.4173259E+03  0.7546771E-02  0.1037940E+00
          2   -1    0    0  501    0  0.00000000000E+00  0.00000000000E+00  0.47421020307E+02  0.47421020307E+02  0.00000000000E+00 0. -1.
         -2   -1    0    0    0  501 -0.00000000000E+00 -0.00000000000E+00 -0.91816282184E+03  0.91816282184E+03  0.00000000000E+00 0.  1.
         23    2    1    2    0    0 -0.12807308292E+03 -0.32731649755E+02 -0.24893836216E+03  0.29578919444E+03  0.89704313875E+02 0.  0.
          5    1    1    2  502    0  0.33927052776E+02  0.11028118742E+02  0.43220943081E+01  0.36241341204E+02  0.47000000000E+01 0. -1.
         -5    1    1    2    0  502  0.94146030148E+02  0.21703531013E+02 -0.62612553368E+03  0.63355330650E+03  0.47000000000E+01 0.  1.
        -11    1    3    3    0    0 -0.13555342775E+03 -0.15200535666E+02 -0.19034063192E+03  0.23416947755E+03  0.00000000000E+00 0. -1.
         11    1    3    3    0    0  0.74803448223E+01 -0.17531114089E+02 -0.58597730244E+02  0.61619716890E+02  0.00000000000E+00 0.  1.
<mgrwt>
<rscale>  0 0.41732586E+03</rscale>
<asrwt>0</asrwt>
<pdfrwt beam="1">  1        2 0.72955418E-02 0.41732586E+03</pdfrwt>
<pdfrwt beam="2">  1       -2 0.14125582E+00 0.41732586E+03</pdfrwt>
<totfact> 0.35549453E+02</totfact>
</mgrwt>
</event>
<event>
 7    1  0.5107591E-006  0.2458502E+03  0.7546771E-02  0.1118512E+00
          2   -1    0    0  501    0  0.00000000000E+00  0.00000000000E+00  0.95253852638E+02  0.95253852638E+02  0.00000000000E+00 0. -1.
         -2   -1    0    0    0  501 -0.00000000000E+00 -0.00000000000E+00 -0.66307047751E+03  0.66307047751E+03  0.00000000000E+00 0.  1.
         23    2    1    2    0    0  0.99818171611E+02 -0.18667542374E+03 -0.15489085334E+03  0.27775175401E+03  0.91342647204E+02 0.  0.
          5    1    1    2  502    0  0.18405177780E+02 -0.10646886430E+00 -0.70126925632E+02  0.72654233210E+02  0.47000000000E+01 0.  1.
         -5    1    1    2    0  502 -0.11822334939E+03  0.18678189260E+03 -0.34279884589E+03  0.40791834292E+03  0.47000000000E+01 0.  1.
        -11    1    3    3    0    0 -0.28327041846E+01 -0.63697146903E+02 -0.75955278646E+02  0.99169325352E+02  0.00000000000E+00 0.  1.
         11    1    3    3    0    0  0.10265087580E+03 -0.12297827683E+03 -0.78935574697E+02  0.17858242866E+03  0.00000000000E+00 0. -1.
<mgrwt>
<rscale>  0 0.24193336E+03</rscale>
<asrwt>0</asrwt>
<pdfrwt beam="1">  1        2 0.14654439E-01 0.24585017E+03</pdfrwt>
<pdfrwt beam="2">  1       -2 0.10201084E+00 0.24585017E+03</pdfrwt>
<totfact> 0.32852511E+02</totfact>
</mgrwt>
</event>
<event>
 7    1  0.5107591E-006  0.1712992E+03  0.7546771E-02  0.1182899E+00
         -1   -1    0    0    0  501 -0.00000000000E+00  0.00000000000E+00  0.88553296412E+03  0.88553296412E+03  0.00000000000E+00 0.  1.
          1   -1    0    0  501    0  0.00000000000E+00 -0.00000000000E+00 -0.30994063618E+02  0.30994063618E+02  0.00000000000E+00 0. -1.
         23    2    1    2    0    0 -0.11134244357E+03 -0.36354400896E+02  0.27828045171E+03  0.31534716185E+03  0.91022197703E+02 0.  0.
          5    1    1    2  502    0  0.10654789407E+03 -0.22154805575E+02  0.42821514485E+03  0.44185245209E+03  0.47000000000E+01 0. -1.
         -5    1    1    2    0  502  0.47945494972E+01  0.58509206471E+02  0.14804330395E+03  0.15932741381E+03  0.47000000000E+01 0. -1.
        -11    1    3    3    0    0 -0.37735238856E+02 -0.43318806127E+02  0.19818356143E+03  0.20634241259E+03  0.00000000000E+00 0.  1.
         11    1    3    3    0    0 -0.73607204713E+02  0.69644052309E+01  0.80096890287E+02  0.10900474925E+03  0.00000000000E+00 0. -1.
<mgrwt>
<rscale>  0 0.16524520E+03</rscale>
<asrwt>0</asrwt>
<pdfrwt beam="2">  1        1 0.47683182E-02 0.17129925E+03</pdfrwt>
<pdfrwt beam="1">  1       -1 0.13623582E+00 0.17129925E+03</pdfrwt>
<totfact> 0.85385579E+02</totfact>
</mgrwt>
</event>
<event>
 7    1  0.5107591E-006  0.1937043E+03  0.7546771E-02  0.1161285E+00
         -2   -1    0    0    0  501 -0.00000000000E+00  0.00000000000E+00  0.47626894184E+02  0.47626894184E+02  0.00000000000E+00 0.  1.
          2   -1    0    0  501    0  0.00000000000E+00 -0.00000000000E+00 -0.71323689893E+03  0.71323689893E+03  0.00000000000E+00 0. -1.
         23    2    1    2    0    0  0.12327249531E+03  0.81855979583E+02 -0.38362585625E+03  0.41875794025E+03  0.79327835272E+02 0.  0.
          5    1    1    2  502    0 -0.14363257591E+03 -0.91328156908E+02 -0.25583903355E+03  0.30732206266E+03  0.47000000000E+01 0. -1.
         -5    1    1    2    0  502  0.20360080605E+02  0.94721773250E+01 -0.26145114944E+02  0.34783790204E+02  0.47000000000E+01 0. -1.
        -11    1    3    3    0    0  0.43605167549E+02  0.70519737508E+02 -0.14630380978E+03  0.16816435048E+03  0.00000000000E+00 0.  1.
         11    1    3    3    0    0  0.79667327757E+02  0.11336242075E+02 -0.23732204647E+03  0.25059358978E+03  0.00000000000E+00 0. -1.
<mgrwt>
<rscale>  0 0.18690254E+03</rscale>
<asrwt>0</asrwt>
<pdfrwt beam="2">  1        2 0.10972875E+00 0.19370430E+03</pdfrwt>
<pdfrwt beam="1">  1       -2 0.73272150E-02 0.19370430E+03</pdfrwt>
<totfact> 0.43839783E+03</totfact>
</mgrwt>
</event>
<event>
 7    1  0.5107591E-006  0.1990091E+03  0.7546771E-02  0.1154894E+00
          2   -1    0    0  501    0  0.00000000000E+00  0.00000000000E+00  0.14664995867E+03  0.14664995867E+03  0.00000000000E+00 0. -1.
         -2   -1    0    0    0  501 -0.00000000000E+00 -0.00000000000E+00 -0.38436168414E+03  0.38436168414E+03  0.00000000000E+00 0.  1.
         23    2    1    2    0    0 -0.15431930834E+03 -0.12869590962E+02  0.44983960906E+02  0.18529284698E+03  0.91267776926E+02 0.  0.
          5    1    1    2  502    0  0.52509222404E+02 -0.31508838150E+02 -0.19405673507E+03  0.20354393075E+03  0.47000000000E+01 0.  1.
         -5    1    1    2    0  502  0.10181008594E+03  0.44378429112E+02 -0.88638951308E+02  0.14217486507E+03  0.47000000000E+01 0.  1.
        -11    1    3    3    0    0 -0.11349860087E+03  0.96163013414E+01 -0.86578240071E+01  0.11423381096E+03  0.00000000000E+00 0.  1.
         11    1    3    3    0    0 -0.40820707475E+02 -0.22485892303E+02  0.53641784913E+02  0.71059036020E+02  0.00000000000E+00 0. -1.
<mgrwt>
<rscale>  0 0.19400891E+03</rscale>
<asrwt>0</asrwt>
<pdfrwt beam="1">  1        2 0.22561532E-01 0.19900913E+03</pdfrwt>
<pdfrwt beam="2">  1       -2 0.59132567E-01 0.19900913E+03</pdfrwt>
<totfact> 0.65735040E+02</totfact>
</mgrwt>
</event>
<event>
 7    1  0.5107591E-006  0.3157124E+03  0.7546771E-02  0.1079114E+00
         -1   -1    0    0    0  501 -0.00000000000E+00  0.00000000000E+00  0.20529636192E+03  0.20529636192E+03  0.00000000000E+00 0.  1.
          1   -1    0    0  501    0  0.00000000000E+00 -0.00000000000E+00 -0.47200772853E+03  0.47200772853E+03  0.00000000000E+00 0. -1.
         23    2    1    2    0    0  0.86938521920E+02  0.27658851318E+03 -0.16649988685E+03  0.34606902358E+03  0.89342288674E+02 0.  0.
          5    1    1    2  502    0 -0.75113228263E+02 -0.63662715017E+02 -0.81521915528E+01  0.98911508787E+02  0.47000000000E+01 0. -1.
         -5    1    1    2    0  502 -0.11825293657E+02 -0.21292579816E+03 -0.92059288208E+02  0.23232355808E+03  0.47000000000E+01 0. -1.
        -11    1    3    3    0    0  0.78402522119E+02  0.12415026706E+03 -0.10922017079E+03  0.18300079233E+03  0.00000000000E+00 0. -1.
         11    1    3    3    0    0  0.85359998011E+01  0.15243824612E+03 -0.57279716063E+02  0.16306823125E+03  0.00000000000E+00 0.  1.
<mgrwt>
<rscale>  0 0.31258400E+03</rscale>
<asrwt>0</asrwt>
<pdfrwt beam="2">  1        1 0.72616573E-01 0.31571241E+03</pdfrwt>
<pdfrwt beam="1">  1       -1 0.31584056E-01 0.31571241E+03</pdfrwt>
<totfact> 0.45765131E+02</totfact>
</mgrwt>
</event>
<event>
 7    1  0.5107591E-006  0.1425682E+03  0.7546771E-02  0.1220661E+00
         -3   -1    0    0    0  501 -0.00000000000E+00  0.00000000000E+00  0.90752406289E+02  0.90752406289E+02  0.00000000000E+00 0.  1.
          3   -1    0    0  501    0  0.00000000000E+00 -0.00000000000E+00 -0.23609813484E+03  0.23609813484E+03  0.00000000000E+00 0. -1.
         23    2    1    2    0    0  0.66756428544E+02  0.15625103240E+02 -0.14512995348E+03  0.18428215698E+03  0.90535326698E+02 0.  0.
          5    1    1    2  502    0 -0.99316762121E+02  0.58721328085E+01 -0.14710667445E+02  0.10068165135E+03  0.47000000000E+01 0.  1.
         -5    1    1    2    0  502  0.32560333577E+02 -0.21497236048E+02  0.14494892368E+02  0.41886732805E+02  0.47000000000E+01 0.  1.
        -11    1    3    3    0    0  0.66845053121E+02 -0.10409676948E+02 -0.14295783303E+03  0.15815677198E+03  0.00000000000E+00 0. -1.
         11    1    3    3    0    0 -0.88624576639E-01  0.26034780188E+02 -0.21721204521E+01  0.26125384993E+02  0.00000000000E+00 0.  1.
<mgrwt>
<rscale>  0 0.13468804E+03</rscale>
<asrwt>0</asrwt>
<pdfrwt beam="2">  1        3 0.36322790E-01 0.14256822E+03</pdfrwt>
<pdfrwt beam="1">  1       -3 0.13961909E-01 0.14256822E+03</pdfrwt>
<totfact> 0.73166505E+02</totfact>
</mgrwt>
</event>
<event>
 7    1  0.5107591E-006  0.1940046E+03  0.7546771E-02  0.1159572E+00
          2   -1    0    0  501    0  0.00000000000E+00  0.00000000000E+00  0.24365204138E+03  0.24365204138E+03  0.00000000000E+00 0. -1.
         -2   -1    0    0    0  501 -0.00000000000E+00 -0.00000000000E+00 -0.19004421013E+03  0.19004421013E+03  0.00000000000E+00 0.  1.
         23    2    1    2    0    0 -0.10359578543E+03  0.10620972935E+03  0.13811765232E+03  0.22208413866E+03  0.90731942529E+02 0.  0.
          5    1    1    2  502    0  0.10554772220E+03 -0.28801259988E+02 -0.76589265198E+02  0.13363322859E+03  0.47000000000E+01 0. -1.
         -5    1    1    2    0  502 -0.19519367746E+01 -0.77408469364E+02 -0.79205558729E+01  0.77978884269E+02  0.47000000000E+01 0. -1.
        -11    1    3    3    0    0 -0.84462711801E+02  0.21938536803E+02  0.75095329308E+02  0.11512843943E+03  0.00000000000E+00 0.  1.
         11    1    3    3    0    0 -0.19133073627E+02  0.84271192549E+02  0.63022323010E+02  0.10695569923E+03  0.00000000000E+00 0. -1.
<mgrwt>
<rscale>  0 0.18877326E+03</rscale>
<asrwt>0</asrwt>
<pdfrwt beam="1">  1        2 0.37484930E-01 0.19400458E+03</pdfrwt>
<pdfrwt beam="2">  1       -2 0.29237571E-01 0.19400458E+03</pdfrwt>
<totfact> 0.14579321E+03</totfact>
</mgrwt>
</event>
<event>
 7    1  0.5107591E-006  0.1260114E+03  0.7546771E-02  0.1249489E+00
         -2   -1    0    0    0  501 -0.00000000000E+00  0.00000000000E+00  0.65880744367E+02  0.65880744367E+02  0.00000000000E+00 0.  1.
          2   -1    0    0  501    0  0.00000000000E+00 -0.00000000000E+00 -0.19279622916E+03  0.19279622916E+03  0.00000000000E+00 0. -1.
         23    2    1    2    0    0 -0.15487999396E+02  0.38011455403E+01 -0.88260650286E+02  0.12687007263E+03  0.89731522376E+02 0.  0.
          5    1    1    2  502    0  0.41340942613E+02 -0.53508828760E+02 -0.32729203949E+02  0.75269908214E+02  0.47000000000E+01 0.  1.
         -5    1    1    2    0  502 -0.25852943217E+02  0.49707683220E+02 -0.59256305586E+01  0.56536992682E+02  0.47000000000E+01 0.  1.
        -11    1    3    3    0    0  0.60588524371E+01  0.44214387684E+02 -0.35656698277E+02  0.57122866727E+02  0.00000000000E+00 0.  1.
         11    1    3    3    0    0 -0.21546851833E+02 -0.40413242144E+02 -0.52603952009E+02  0.69747205905E+02  0.00000000000E+00 0. -1.
<mgrwt>
<rscale>  0 0.11620685E+03</rscale>
<asrwt>0</asrwt>
<pdfrwt beam="2">  1        2 0.29660958E-01 0.12601136E+03</pdfrwt>
<pdfrwt beam="1">  1       -2 0.10135499E-01 0.12601136E+03</pdfrwt>
<totfact> 0.10791463E+04</totfact>
</mgrwt>
</event>
<event>
 7    1  0.5107591E-006  0.1793689E+03  0.7546771E-02  0.1174168E+00
          2   -1    0    0  501    0  0.00000000000E+00  0.00000000000E+00  0.81199564663E+03  0.81199564663E+03  0.00000000000E+00 0. -1.
         -2   -1    0    0    0  501 -0.00000000000E+00 -0.00000000000E+00 -0.35802119896E+02  0.35802119896E+02  0.00000000000E+00 0.  1.
         23    2    1    2    0    0  0.12860306018E+03 -0.31804299687E+01  0.43054944076E+03  0.45838407004E+03  0.90522221067E+02 0.  0.
          5    1    1    2  502    0 -0.64904279155E+02  0.58904897678E+02  0.22882551491E+03  0.24508275887E+03  0.47000000000E+01 0. -1.
         -5    1    1    2    0  502 -0.63698781029E+02 -0.55724467710E+02  0.11681857106E+03  0.14433093761E+03  0.47000000000E+01 0. -1.
        -11    1    3    3    0    0  0.36261719899E+02 -0.41135077203E+02  0.11475449794E+03  0.12718333894E+03  0.00000000000E+00 0.  1.
         11    1    3    3    0    0  0.92341340284E+02  0.37954647234E+02  0.31579494282E+03  0.33120073111E+03  0.00000000000E+00 0. -1.
<mgrwt>
<rscale>  0 0.17357699E+03</rscale>
<asrwt>0</asrwt>
<pdfrwt beam="1">  1        2 0.12492239E+00 0.17936887E+03</pdfrwt>
<pdfrwt beam="2">  1       -2 0.55080190E-02 0.17936887E+03</pdfrwt>
<totfact> 0.57668548E+03</totfact>
</mgrwt>
</event>
<event>
 7    1  0.5107591E-006  0.1286115E+03  0.7546771E-02  0.1242488E+00
          1   -1    0    0  501    0  0.00000000000E+00  0.00000000000E+00  0.58758011425E+02  0.58758011425E+02  0.00000000000E+00 0. -1.
         -1   -1    0    0    0  501 -0.00000000000E+00 -0.00000000000E+00 -0.43262145910E+03  0.43262145910E+03  0.00000000000E+00 0.  1.
         23    2    1    2    0    0 -0.39682310892E+02  0.16723101860E+00 -0.28660229596E+01  0.98721843643E+02  0.90349734702E+02 0.  0.
          5    1    1    2  502    0  0.68914228388E+02 -0.38384591040E+02 -0.25577663759E+03  0.26770567054E+03  0.47000000000E+01 0. -1.
         -5    1    1    2    0  502 -0.29231917495E+02  0.38217360021E+02 -0.11522078712E+03  0.12495195634E+03  0.47000000000E+01 0.  1.
        -11    1    3    3    0    0  0.10003703960E+02  0.35054462422E+02  0.72666297104E+01  0.37171135791E+02  0.00000000000E+00 0.  1.
         11    1    3    3    0    0 -0.49686014853E+02 -0.34887231404E+02 -0.10132652670E+02  0.61550707852E+02  0.00000000000E+00 0. -1.
<mgrwt>
<rscale>  0 0.12036977E+03</rscale>
<asrwt>0</asrwt>
<pdfrwt beam="1">  1        1 0.90396938E-02 0.12861152E+03</pdfrwt>
<pdfrwt beam="2">  1       -1 0.66557150E-01 0.12861152E+03</pdfrwt>
<totfact> 0.16981144E+03</totfact>
</mgrwt>
</event>
<event>
 7    1  0.5107591E-006  0.1270019E+03  0.7546771E-02  0.1246554E+00
          2   -1    0    0  501    0  0.00000000000E+00  0.00000000000E+00  0.56000238457E+02  0.56000238457E+02  0.00000000000E+00 0. -1.
         -2   -1    0    0    0  501 -0.00000000000E+00 -0.00000000000E+00 -0.30853194944E+03  0.30853194944E+03  0.00000000000E+00 0.  1.
         23    2    1    2    0    0 -0.11394584963E+02  0.19340935186E+02 -0.15582051255E+02  0.95692772215E+02  0.91708222055E+02 0.  0.
          5    1    1    2  502    0 -0.17696277723E+02  0.49145146771E+02 -0.97790229602E+02  0.11096586278E+03  0.47000000000E+01 0.  1.
         -5    1    1    2    0  502  0.29090862686E+02 -0.68486081957E+02 -0.13915943012E+03  0.15787355290E+03  0.47000000000E+01 0.  1.
        -11    1    3    3    0    0  0.12073638381E+02  0.17762982555E+02 -0.49763386758E+02  0.54200470059E+02  0.00000000000E+00 0.  1.
         11    1    3    3    0    0 -0.23468223344E+02  0.15779526310E+01  0.34181335503E+02  0.41492302155E+02  0.00000000000E+00 0. -1.
<mgrwt>
<rscale>  0 0.11792848E+03</rscale>
<asrwt>0</asrwt>
<pdfrwt beam="1">  1        2 0.86154213E-02 0.12700193E+03</pdfrwt>
<pdfrwt beam="2">  1       -2 0.47466454E-01 0.12700193E+03</pdfrwt>
<totfact> 0.31452183E+03</totfact>
</mgrwt>
</event>
<event>
 7    1  0.5107591E-006  0.1719739E+03  0.7546771E-02  0.1181527E+00
         -2   -1    0    0    0  501 -0.00000000000E+00  0.00000000000E+00  0.11469220529E+03  0.11469220529E+03  0.00000000000E+00 0.  1.
          2   -1    0    0  501    0  0.00000000000E+00 -0.00000000000E+00 -0.25935451454E+03  0.25935451454E+03  0.00000000000E+00 0. -1.
         23    2    1    2    0    0 -0.11613380957E+03 -0.21501330372E+02 -0.13355027198E+03  0.20171416031E+03  0.94358668863E+02 0.  0.
          5    1    1    2  502    0  0.16111763102E+02 -0.28918408422E+02 -0.44218308218E+02  0.55436558674E+02  0.47000000000E+01 0.  1.
         -5    1    1    2    0  502  0.10002204647E+03  0.50419738794E+02  0.33106270947E+02  0.11689600085E+03  0.47000000000E+01 0.  1.
        -11    1    3    3    0    0 -0.58334460946E+02  0.35487046354E+02 -0.46022276526E+02  0.82342514714E+02  0.00000000000E+00 0.  1.
         11    1    3    3    0    0 -0.57799348621E+02 -0.56988376727E+02 -0.87527995458E+02  0.11937164559E+03  0.00000000000E+00 0. -1.
<mgrwt>
<rscale>  0 0.16651935E+03</rscale>
<asrwt>0</asrwt>
<pdfrwt beam="2">  1        2 0.39900694E-01 0.17197393E+03</pdfrwt>
<pdfrwt beam="1">  1       -2 0.17644955E-01 0.17197393E+03</pdfrwt>
<totfact> 0.32603907E+03</totfact>
</mgrwt>
</event>
<event>
 7    1  0.5107591E-006  0.1253961E+03  0.7546771E-02  0.1244603E+00
          1   -1    0    0  501    0  0.00000000000E+00  0.00000000000E+00  0.29604938479E+03  0.29604938479E+03  0.00000000000E+00 0. -1.
         -1   -1    0    0    0  501 -0.00000000000E+00 -0.00000000000E+00 -0.55493238247E+02  0.55493238247E+02  0.00000000000E+00 0.  1.
         23    2    1    2    0    0  0.76497720224E+01  0.63911658513E+01  0.19133362159E+03  0.21683166056E+03  0.10152855882E+03 0.  0.
          5    1    1    2  502    0 -0.49151916961E+02  0.23376894153E+02 -0.10875009862E+02  0.55702297625E+02  0.47000000000E+01 0.  1.
         -5    1    1    2    0  502  0.41502144938E+02 -0.29768060005E+02  0.60097534812E+02  0.79008664850E+02  0.47000000000E+01 0.  1.
        -11    1    3    3    0    0 -0.25668758312E+02 -0.66198734533E+01  0.48499985109E+01  0.26948661625E+02  0.00000000000E+00 0.  1.
         11    1    3    3    0    0  0.33318530334E+02  0.13011039305E+02  0.18648362308E+03  0.18988299894E+03  0.00000000000E+00 0. -1.
<mgrwt>
<rscale>  0 0.11909154E+03</rscale>
<asrwt>0</asrwt>
<pdfrwt beam="1">  1        1 0.45546058E-01 0.12539612E+03</pdfrwt>
<pdfrwt beam="2">  1       -1 0.85374215E-02 0.12539612E+03</pdfrwt>
<totfact> 0.65825845E+03</totfact>
</mgrwt>
</event>
<event>
 7    1  0.5107591E-006  0.1466835E+03  0.7546771E-02  0.1214218E+00
          1   -1    0    0  501    0  0.00000000000E+00  0.00000000000E+00  0.15576991941E+03  0.15576991941E+03  0.00000000000E+00 0. -1.
         -1   -1    0    0    0  501 -0.00000000000E+00 -0.00000000000E+00 -0.18003139544E+03  0.18003139544E+03  0.00000000000E+00 0.  1.
         23    2    1    2    0    0 -0.22318569098E+02 -0.73424406263E+02  0.90254182850E+02  0.14971024318E+03  0.91531838334E+02 0.  0.
          5    1    1    2  502    0 -0.49059890443E+01  0.10428826100E+03 -0.73265842853E+02  0.12763261276E+03  0.47000000000E+01 0.  1.
         -5    1    1    2    0  502  0.27224558143E+02 -0.30863854741E+02 -0.41249816032E+02  0.58458458910E+02  0.47000000000E+01 0.  1.
        -11    1    3    3    0    0  0.11835216947E+02 -0.85514253816E+01 -0.15328367717E+02  0.21169744758E+02  0.00000000000E+00 0.  1.
         11    1    3    3    0    0 -0.34153786046E+02 -0.64872980882E+02  0.10558255057E+03  0.12854049842E+03  0.00000000000E+00 0. -1.
<mgrwt>
<rscale>  0 0.13934097E+03</rscale>
<asrwt>0</asrwt>
<pdfrwt beam="1">  1        1 0.23964603E-01 0.14668351E+03</pdfrwt>
<pdfrwt beam="2">  1       -1 0.27697138E-01 0.14668351E+03</pdfrwt>
<totfact> 0.23071289E+03</totfact>
</mgrwt>
</event>
<event>
 7    1  0.5107591E-006  0.1441867E+03  0.7546771E-02  0.1223336E+00
         -2   -1    0    0    0  501 -0.00000000000E+00  0.00000000000E+00  0.10300572212E+03  0.10300572212E+03  0.00000000000E+00 0.  1.
          2   -1    0    0  501    0  0.00000000000E+00 -0.00000000000E+00 -0.18300622946E+03  0.18300622946E+03  0.00000000000E+00 0. -1.
         23    2    1    2    0    0  0.58052654297E+02  0.42338282789E+02 -0.95424804116E+02  0.14100260919E+03  0.74921303367E+02 0.  0.
          5    1    1    2  502    0 -0.15596722590E+01  0.27638410065E+00  0.60678893057E+02  0.60881253506E+02  0.47000000000E+01 0.  1.
         -5    1    1    2    0  502 -0.56492982038E+02 -0.42614666890E+02 -0.45254596286E+02  0.84128088881E+02  0.47000000000E+01 0.  1.
        -11    1    3    3    0    0  0.14444711672E+02 -0.64384561666E+01  0.86834951883E+01  0.18041798740E+02  0.00000000000E+00 0.  1.
         11    1    3    3    0    0  0.43607942625E+02  0.48776738956E+02 -0.10410829930E+03  0.12296081045E+03  0.00000000000E+00 0. -1.
<mgrwt>
<rscale>  0 0.13281596E+03</rscale>
<asrwt>0</asrwt>
<pdfrwt beam="2">  1        2 0.28154805E-01 0.14418669E+03</pdfrwt>
<pdfrwt beam="1">  1       -2 0.15847034E-01 0.14418669E+03</pdfrwt>
<totfact> 0.56253674E+03</totfact>
</mgrwt>
</event>
<event>
 7    1  0.5107591E-006  0.1337528E+03  0.7546771E-02  0.1234766E+00
          1   -1    0    0  501    0  0.00000000000E+00  0.00000000000E+00  0.23352087715E+03  0.23352087715E+03  0.00000000000E+00 0. -1.
         -1   -1    0    0    0  501 -0.00000000000E+00 -0.00000000000E+00 -0.60188030865E+02  0.60188030865E+02  0.00000000000E+00 0.  1.
         23    2    1    2    0    0  0.40676144123E+02  0.24403372340E+02  0.86437002141E+02  0.13420750087E+03  0.91050670888E+02 0.  0.
          5    1    1    2  502    0 -0.85058596283E+02 -0.12911821653E+02  0.67701934538E+02  0.10957792606E+03  0.47000000000E+01 0.  1.
         -5    1    1    2    0  502  0.44382452160E+02 -0.11491550687E+02  0.19193909604E+02  0.49923481077E+02  0.47000000000E+01 0.  1.
        -11    1    3    3    0    0  0.24486296908E+01  0.45617169332E+02  0.76922400482E+02  0.89464951915E+02  0.00000000000E+00 0. -1.
         11    1    3    3    0    0  0.38227514432E+02 -0.21213796992E+02  0.95146016586E+01  0.44742548958E+02  0.00000000000E+00 0.  1.
<mgrwt>
<rscale>  0 0.12519407E+03</rscale>
<asrwt>0</asrwt>
<pdfrwt beam="1">  1        1 0.35926288E-01 0.13375280E+03</pdfrwt>
<pdfrwt beam="2">  1       -1 0.92596972E-02 0.13375280E+03</pdfrwt>
<totfact> 0.78365893E+03</totfact>
</mgrwt>
</event>
<event>
 7    1  0.5107591E-006  0.1421419E+03  0.7546771E-02  0.1220979E+00
         -1   -1    0    0    0  501 -0.00000000000E+00  0.00000000000E+00  0.14250375375E+03  0.14250375375E+03  0.00000000000E+00 0.  1.
          1   -1    0    0  501    0  0.00000000000E+00 -0.00000000000E+00 -0.12131062792E+03  0.12131062792E+03  0.00000000000E+00 0. -1.
         23    2    1    2    0    0  0.32490361906E+02 -0.59367301882E+02  0.39522234495E+02  0.12049555281E+03  0.91526340895E+02 0.  0.
          5    1    1    2  502    0  0.31665490861E+02  0.40521519251E+02  0.30874873147E+02  0.60166806677E+02  0.47000000000E+01 0. -1.
         -5    1    1    2    0  502 -0.64155852767E+02  0.18845782631E+02 -0.49203981812E+02  0.83152022184E+02  0.47000000000E+01 0. -1.
        -11    1    3    3    0    0  0.14174329537E+02 -0.14868253571E+02 -0.29747772368E+02  0.36151162401E+02  0.00000000000E+00 0. -1.
         11    1    3    3    0    0  0.18316032369E+02 -0.44499048311E+02  0.69270006863E+02  0.84344390407E+02  0.00000000000E+00 0.  1.
<mgrwt>
<rscale>  0 0.13446382E+03</rscale>
<asrwt>0</asrwt>
<pdfrwt beam="2">  1        1 0.18663173E-01 0.14214194E+03</pdfrwt>
<pdfrwt beam="1">  1       -1 0.21923655E-01 0.14214194E+03</pdfrwt>
<totfact> 0.46452628E+03</totfact>
</mgrwt>
</event>
<event>
 7    1  0.5107591E-006  0.1265847E+03  0.7546771E-02  0.1245230E+00
         -1   -1    0    0    0  501 -0.00000000000E+00  0.00000000000E+00  0.12223190194E+03  0.12223190194E+03  0.00000000000E+00 0.  1.
          1   -1    0    0  501    0  0.00000000000E+00 -0.00000000000E+00 -0.20486474448E+03  0.20486474448E+03  0.00000000000E+00 0. -1.
         23    2    1    2    0    0 -0.22293451141E+01 -0.19855137195E+02 -0.15346172252E+03  0.18204345386E+03  0.95865125884E+02 0.  0.
          5    1    1    2  502    0 -0.49419963831E+02  0.29938222441E+01 -0.67868603718E+01  0.50194095971E+02  0.47000000000E+01 0.  1.
         -5    1    1    2    0  502  0.51649308945E+02  0.16861314951E+02  0.77615740348E+02  0.94859096591E+02  0.47000000000E+01 0.  1.
        -11    1    3    3    0    0  0.62923958021E+01 -0.46461067559E+02 -0.30464753431E+02  0.55913560478E+02  0.00000000000E+00 0.  1.
         11    1    3    3    0    0 -0.85217409162E+01  0.26605930364E+02 -0.12299696909E+03  0.12612989338E+03  0.00000000000E+00 0. -1.
<mgrwt>
<rscale>  0 0.11871607E+03</rscale>
<asrwt>0</asrwt>
<pdfrwt beam="2">  1        1 0.31517653E-01 0.12658475E+03</pdfrwt>
<pdfrwt beam="1">  1       -1 0.18804908E-01 0.12658475E+03</pdfrwt>
<totfact> 0.30571335E+03</totfact>
</mgrwt>
</event>
<event>
 7    1  0.5107591E-006  0.1642950E+03  0.7546771E-02  0.1191242E+00
          2   -1    0    0  501    0  0.00000000000E+00  0.00000000000E+00  0.27065515562E+03  0.27065515562E+03  0.00000000000E+00 0. -1.
         -2   -1    0    0    0  501 -0.00000000000E+00 -0.00000000000E+00 -0.87039344577E+02  0.87039344577E+02  0.00000000000E+00 0.  1.
         23    2    1    2    0    0 -0.86468922028E+02  0.62382044726E+02  0.59749418580E+02  0.15193804575E+03  0.90259529933E+02 0.  0.
          5    1    1    2  502    0  0.81493891129E+02  0.17873854710E+02  0.67942343772E+02  0.10769856569E+03  0.47000000000E+01 0.  1.
         -5    1    1    2    0  502  0.49750308986E+01 -0.80255899436E+02  0.55924048688E+02  0.98057888762E+02  0.47000000000E+01 0.  1.
        -11    1    3    3    0    0 -0.56418622456E+02  0.66309348895E+02  0.77718566821E+02  0.11670546834E+03  0.00000000000E+00 0. -1.
         11    1    3    3    0    0 -0.30050299572E+02 -0.39273041697E+01 -0.17969148242E+02  0.35232577410E+02  0.00000000000E+00 0.  1.
<mgrwt>
<rscale>  0 0.15776649E+03</rscale>
<asrwt>0</asrwt>
<pdfrwt beam="1">  1        2 0.41639254E-01 0.16429496E+03</pdfrwt>
<pdfrwt beam="2">  1       -2 0.13390669E-01 0.16429496E+03</pdfrwt>
<totfact> 0.48959889E+03</totfact>
</mgrwt>
</event>
<event>
 7    1  0.5107591E-006  0.2530143E+03  0.7546771E-02  0.1111415E+00
         -2   -1    0    0    0  501 -0.00000000000E+00  0.00000000000E+00  0.71763039376E+02  0.71763039376E+02  0.00000000000E+00 0.  1.
          2   -1    0    0  501    0  0.00000000000E+00 -0.00000000000E+00 -0.22301264368E+03  0.22301264368E+03  0.00000000000E+00 0. -1.
         23    2    1    2    0    0 -0.23500677992E+01  0.29110260745E+02 -0.80816567696E+02  0.12597874625E+03  0.92121641279E+02 0.  0.
          5    1    1    2  502    0  0.23704609861E+02  0.57259330227E+02 -0.42997756270E+02  0.75574046279E+02  0.47000000000E+01 0. -1.
         -5    1    1    2    0  502 -0.21354542062E+02 -0.86369590972E+02 -0.27435280334E+02  0.93222890528E+02  0.47000000000E+01 0.  1.
        -11    1    3    3    0    0 -0.17208687358E+02 -0.18950815367E+02 -0.69985987334E+02  0.74520539093E+02  0.00000000000E+00 0.  1.
         11    1    3    3    0    0  0.14858619559E+02  0.48061076112E+02 -0.10830580363E+02  0.51458207152E+02  0.00000000000E+00 0. -1.
<mgrwt>
<rscale>  0 0.25301435E+03</rscale>
<asrwt>0</asrwt>
<pdfrwt beam="2">  1        2 0.34309637E-01 0.25301435E+03</pdfrwt>
<pdfrwt beam="1">  1       -2 0.11040468E-01 0.25301435E+03</pdfrwt>
<totfact> 0.84416507E+03</totfact>
</mgrwt>
</event>
<event>
 7    1  0.5107591E-006  0.1372404E+03  0.7546771E-02  0.1228691E+00
         -2   -1    0    0    0  501 -0.00000000000E+00  0.00000000000E+00  0.13033656041E+03  0.13033656041E+03  0.00000000000E+00 0.  1.
          2   -1    0    0  501    0  0.00000000000E+00 -0.00000000000E+00 -0.12744221064E+03  0.12744221064E+03  0.00000000000E+00 0. -1.
         23    2    1    2    0    0 -0.55511808834E+02  0.12053788177E+02 -0.38591295986E+02  0.11440514390E+03  0.91500787399E+02 0.  0.
          5    1    1    2  502    0  0.63489879471E+02  0.45397638083E+02  0.31653356744E+02  0.84356003532E+02  0.47000000000E+01 0. -1.
         -5    1    1    2    0  502 -0.79780706370E+01 -0.57451426261E+02  0.98322890063E+01  0.59017623618E+02  0.47000000000E+01 0. -1.
        -11    1    3    3    0    0 -0.38714022925E+02  0.51449613606E+02 -0.17833242852E+02  0.66812146065E+02  0.00000000000E+00 0. -1.
         11    1    3    3    0    0 -0.16797785909E+02 -0.39395825429E+02 -0.20758053134E+02  0.47592997831E+02  0.00000000000E+00 0.  1.
<mgrwt>
<rscale>  0 0.12917109E+03</rscale>
<asrwt>0</asrwt>
<pdfrwt beam="2">  1        2 0.19606494E-01 0.13724044E+03</pdfrwt>
<pdfrwt beam="1">  1       -2 0.20051779E-01 0.13724044E+03</pdfrwt>
<totfact> 0.56616617E+03</totfact>
</mgrwt>
</event>
<event>
 7    1  0.5107591E-006  0.1463074E+03  0.7546771E-02  0.1215205E+00
         -1   -1    0    0    0  501 -0.00000000000E+00  0.00000000000E+00  0.23948973809E+03  0.23948973809E+03  0.00000000000E+00 0.  1.
          1   -1    0    0  501    0  0.00000000000E+00 -0.00000000000E+00 -0.85197871109E+02  0.85197871109E+02  0.00000000000E+00 0. -1.
         23    2    1    2    0    0  0.34162773523E+02 -0.67923917807E+02  0.85682934099E+01  0.11819014638E+03  0.90081859134E+02 0.  0.
          5    1    1    2  502    0 -0.46792541645E+02  0.10009475038E+03  0.10092002649E+03  0.14971787720E+03  0.47000000000E+01 0. -1.
         -5    1    1    2    0  502  0.12629768121E+02 -0.32170832574E+02  0.44803547078E+02  0.56779585611E+02  0.47000000000E+01 0. -1.
        -11    1    3    3    0    0 -0.17244040736E+02  0.13068077758E+02 -0.17545655690E+01  0.21707374266E+02  0.00000000000E+00 0. -1.
         11    1    3    3    0    0  0.51406814260E+02 -0.80991995564E+02  0.10322858979E+02  0.96482772117E+02  0.00000000000E+00 0.  1.
<mgrwt>
<rscale>  0 0.13861457E+03</rscale>
<asrwt>0</asrwt>
<pdfrwt beam="2">  1        1 0.13107365E-01 0.14630736E+03</pdfrwt>
<pdfrwt beam="1">  1       -1 0.36844575E-01 0.14630736E+03</pdfrwt>
<totfact> 0.30833665E+03</totfact>
</mgrwt>
</event>
<event>
 7    1  0.5107591E-006  0.1666360E+03  0.7546771E-02  0.1187977E+00
         -4   -1    0    0    0  501 -0.00000000000E+00  0.00000000000E+00  0.87634390703E+02  0.87634390703E+02  0.00000000000E+00 0.  1.
          4   -1    0    0  501    0  0.00000000000E+00 -0.00000000000E+00 -0.27948659098E+03  0.27948659098E+03  0.00000000000E+00 0. -1.
         23    2    1    2    0    0 -0.93514051889E+02 -0.58284874498E+02 -0.11189962923E+03  0.18229685920E+03  0.92566804825E+02 0.  0.
          5    1    1    2  502    0  0.44475060969E+02 -0.30780383335E+02 -0.60341039337E+02  0.81170155073E+02  0.47000000000E+01 0.  1.
         -5    1    1    2    0  502  0.49038990920E+02  0.89065257832E+02 -0.19611531701E+02  0.10365396741E+03  0.47000000000E+01 0.  1.
        -11    1    3    3    0    0 -0.26845002350E+02 -0.26801371679E+02  0.10541321416E+02  0.39371145936E+02  0.00000000000E+00 0.  1.
         11    1    3    3    0    0 -0.66669049539E+02 -0.31483502818E+02 -0.12244095065E+03  0.14292571326E+03  0.00000000000E+00 0. -1.
<mgrwt>
<rscale>  0 0.16063888E+03</rscale>
<asrwt>0</asrwt>
<pdfrwt beam="2">  1        4 0.42997937E-01 0.16663596E+03</pdfrwt>
<pdfrwt beam="1">  1       -4 0.13482214E-01 0.16663596E+03</pdfrwt>
<totfact> 0.41269078E+02</totfact>
</mgrwt>
</event>
<event>
 7    1  0.5107591E-006  0.1374142E+03  0.7546771E-02  0.1223468E+00
         -2   -1    0    0    0  501 -0.00000000000E+00  0.00000000000E+00  0.43457301993E+02  0.43457301993E+02  0.00000000000E+00 0.  1.
          2   -1    0    0  501    0  0.00000000000E+00 -0.00000000000E+00 -0.39009733160E+03  0.39009733160E+03  0.00000000000E+00 0. -1.
         23    2    1    2    0    0 -0.10949823889E+02  0.56042237935E+02 -0.19642648556E+03  0.22996984799E+03  0.10508156679E+03 0.  0.
          5    1    1    2  502    0 -0.54640292127E+02 -0.29697746779E+02 -0.45666656943E+02  0.77298455636E+02  0.47000000000E+01 0.  1.
         -5    1    1    2    0  502  0.65590116016E+02 -0.26344491156E+02 -0.10454688710E+03  0.12628632997E+03  0.47000000000E+01 0.  1.
        -11    1    3    3    0    0  0.12050802778E+02  0.81080688349E+02 -0.16214638940E+03  0.18168861127E+03  0.00000000000E+00 0. -1.
         11    1    3    3    0    0 -0.23000626668E+02 -0.25038450413E+02 -0.34280096164E+02  0.48281236721E+02  0.00000000000E+00 0.  1.
<mgrwt>
<rscale>  0 0.13272452E+03</rscale>
<asrwt>0</asrwt>
<pdfrwt beam="2">  1        2 0.60014974E-01 0.13741418E+03</pdfrwt>
<pdfrwt beam="1">  1       -2 0.66857388E-02 0.13741418E+03</pdfrwt>
<totfact> 0.97608754E+03</totfact>
</mgrwt>
</event>
<event>
 7    1  0.5107591E-006  0.4442590E+03  0.7546771E-02  0.1030249E+00
          2   -1    0    0  501    0  0.00000000000E+00  0.00000000000E+00  0.98549824706E+03  0.98549824706E+03  0.00000000000E+00 0. -1.
         -2   -1    0    0    0  501 -0.00000000000E+00 -0.00000000000E+00 -0.20154217207E+03  0.20154217207E+03  0.00000000000E+00 0.  1.
         23    2    1    2    0    0  0.42110975331E+03  0.66384636865E+02  0.48942324160E+03  0.65401544575E+03  0.80378787723E+02 0.  0.
          5    1    1    2  502    0 -0.30111605521E+03 -0.23930841176E+02  0.26595449199E+03  0.40248906280E+03  0.47000000000E+01 0. -1.
         -5    1    1    2    0  502 -0.11999369810E+03 -0.42453795689E+02  0.28578341405E+02  0.13053591057E+03  0.47000000000E+01 0. -1.
        -11    1    3    3    0    0  0.28903550214E+03  0.32842013272E+02  0.38392300677E+03  0.48168142424E+03  0.00000000000E+00 0. -1.
         11    1    3    3    0    0  0.13207425117E+03  0.33542623593E+02  0.10550023483E+03  0.17233402151E+03  0.00000000000E+00 0.  1.
<mgrwt>
<rscale>  0 0.44162629E+03</rscale>
<asrwt>0</asrwt>
<pdfrwt beam="1">  1        2 0.15161511E+00 0.44425897E+03</pdfrwt>
<pdfrwt beam="2">  1       -2 0.31006489E-01 0.44425897E+03</pdfrwt>
<totfact> 0.25546133E+02</totfact>
</mgrwt>
</event>
<event>
 7    1  0.5107591E-006  0.1409180E+03  0.7546771E-02  0.1223194E+00
         -1   -1    0    0    0  501 -0.00000000000E+00  0.00000000000E+00  0.20335859908E+03  0.20335859908E+03  0.00000000000E+00 0.  1.
          1   -1    0    0  501    0  0.00000000000E+00 -0.00000000000E+00 -0.81256924239E+02  0.81256924239E+02  0.00000000000E+00 0. -1.
         23    2    1    2    0    0 -0.60932712528E+02  0.11928528030E+02  0.27441017993E+02  0.11485532391E+03  0.92647993633E+02 0.  0.
          5    1    1    2  502    0  0.75616576492E+02  0.39840348944E+02  0.46617307222E+02  0.97469910110E+02  0.47000000000E+01 0. -1.
         -5    1    1    2    0  502 -0.14683863964E+02 -0.51768876974E+02  0.48043349623E+02  0.72290289300E+02  0.47000000000E+01 0. -1.
        -11    1    3    3    0    0  0.79447357988E+01  0.33412925047E+02 -0.67694023264E+01  0.35005245249E+02  0.00000000000E+00 0. -1.
         11    1    3    3    0    0 -0.68877448326E+02 -0.21484397017E+02  0.34210420319E+02  0.79850078657E+02  0.00000000000E+00 0.  1.
<mgrwt>
<rscale>  0 0.13291436E+03</rscale>
<asrwt>0</asrwt>
<pdfrwt beam="2">  1        1 0.12501065E-01 0.14091801E+03</pdfrwt>
<pdfrwt beam="1">  1       -1 0.31285938E-01 0.14091801E+03</pdfrwt>
<totfact> 0.43309505E+03</totfact>
</mgrwt>
</event>
<event>
 7    1  0.5107591E-006  0.2302628E+03  0.7546771E-02  0.1129683E+00
         -2   -1    0    0    0  501 -0.00000000000E+00  0.00000000000E+00  0.11520890449E+03  0.11520890449E+03  0.00000000000E+00 0. -1.
          2   -1    0    0  501    0  0.00000000000E+00 -0.00000000000E+00 -0.55474540474E+03  0.55474540474E+03  0.00000000000E+00 0.  1.
         23    2    1    2    0    0  0.14077969731E+03  0.13259217548E+03 -0.37453008990E+03  0.43069133315E+03  0.88445621941E+02 0.  0.
          5    1    1    2  502    0 -0.11602449083E+03 -0.24714860191E+02 -0.43333294369E+02  0.12638184675E+03  0.47000000000E+01 0.  1.
         -5    1    1    2    0  502 -0.24755206480E+02 -0.10787731528E+03 -0.21673115977E+02  0.11288112932E+03  0.47000000000E+01 0.  1.
        -11    1    3    3    0    0  0.64783157295E+02  0.36359262023E+02 -0.22704169156E+03  0.23888654861E+03  0.00000000000E+00 0.  1.
         11    1    3    3    0    0  0.75996540017E+02  0.96232913453E+02 -0.14748839834E+03  0.19180478454E+03  0.00000000000E+00 0. -1.
<mgrwt>
<rscale>  0 0.22572870E+03</rscale>
<asrwt>0</asrwt>
<pdfrwt beam="2">  1        2 0.85345445E-01 0.23026276E+03</pdfrwt>
<pdfrwt beam="1">  1       -2 0.17724447E-01 0.23026276E+03</pdfrwt>
<totfact> 0.14264845E+03</totfact>
</mgrwt>
</event>
<event>
 7    1  0.5107591E-006  0.1406711E+03  0.7546771E-02  0.1223426E+00
         -1   -1    0    0    0  501 -0.00000000000E+00  0.00000000000E+00  0.75291006724E+02  0.75291006724E+02  0.00000000000E+00 0.  1.
          1   -1    0    0  501    0  0.00000000000E+00 -0.00000000000E+00 -0.24471290418E+03  0.24471290418E+03  0.00000000000E+00 0. -1.
         23    2    1    2    0    0 -0.64046649682E+02 -0.78354093971E+01 -0.13507962922E+03  0.17520144216E+03  0.91025667425E+02 0.  0.
          5    1    1    2  502    0  0.45582655456E+01  0.37212424408E+02  0.32988827103E+02  0.50158698435E+02  0.47000000000E+01 0. -1.
         -5    1    1    2    0  502  0.59488384137E+02 -0.29377015011E+02 -0.67331095342E+02  0.94643770308E+02  0.47000000000E+01 0. -1.
        -11    1    3    3    0    0 -0.36943727983E+02  0.11627697027E+02 -0.13641582848E+03  0.14180733633E+03  0.00000000000E+00 0. -1.
         11    1    3    3    0    0 -0.27102921699E+02 -0.19463106424E+02  0.13361992612E+01  0.33394105839E+02  0.00000000000E+00 0.  1.
<mgrwt>
<rscale>  0 0.13275341E+03</rscale>
<asrwt>0</asrwt>
<pdfrwt beam="2">  1        1 0.37648139E-01 0.14067112E+03</pdfrwt>
<pdfrwt beam="1">  1       -1 0.11583232E-01 0.14067112E+03</pdfrwt>
<totfact> 0.52677043E+03</totfact>
</mgrwt>
</event>
<event>
 7    1  0.5107591E-006  0.1267631E+03  0.7546771E-02  0.1243386E+00
          2   -1    0    0  501    0  0.00000000000E+00  0.00000000000E+00  0.13970535808E+02  0.13970535808E+02  0.00000000000E+00 0. -1.
         -2   -1    0    0    0  501 -0.00000000000E+00 -0.00000000000E+00 -0.96743499302E+03  0.96743499302E+03  0.00000000000E+00 0.  1.
         23    2    1    2    0    0  0.38917967973E+01 -0.20688320243E+02 -0.32941065186E+03  0.34460726425E+03  0.98993112582E+02 0.  0.
          5    1    1    2  502    0 -0.38510372982E+02  0.60405638676E+02 -0.30103277888E+03  0.30947490039E+03  0.47000000000E+01 0.  1.
         -5    1    1    2    0  502  0.34618576185E+02 -0.39717318433E+02 -0.32302102647E+03  0.32732336419E+03  0.47000000000E+01 0.  1.
        -11    1    3    3    0    0  0.30314215193E+02  0.28255908359E+02 -0.94249624701E+02  0.10295795140E+03  0.00000000000E+00 0. -1.
         11    1    3    3    0    0 -0.26422418396E+02 -0.48944228602E+02 -0.23516102716E+03  0.24164931285E+03  0.00000000000E+00 0.  1.
<mgrwt>
<rscale>  0 0.11982484E+03</rscale>
<asrwt>0</asrwt>
<pdfrwt beam="1">  1        2 0.21493128E-02 0.12676308E+03</pdfrwt>
<pdfrwt beam="2">  1       -2 0.14883618E+00 0.12676308E+03</pdfrwt>
<totfact> 0.15340250E+03</totfact>
</mgrwt>
</event>
<event>
 7    1  0.5107591E-006  0.2688612E+03  0.7546771E-02  0.1103973E+00
          1   -1    0    0  501    0  0.00000000000E+00  0.00000000000E+00  0.11095675001E+04  0.11095675001E+04  0.00000000000E+00 0. -1.
         -1   -1    0    0    0  501 -0.00000000000E+00 -0.00000000000E+00 -0.65340852878E+02  0.65340852878E+02  0.00000000000E+00 0.  1.
         23    2    1    2    0    0  0.19352170675E+03 -0.13862800505E+03  0.64484472281E+03  0.69346023765E+03  0.91618829405E+02 0.  0.
          5    1    1    2  502    0 -0.20963765890E+03  0.11781832406E+03  0.37344019862E+03  0.44419452660E+03  0.47000000000E+01 0.  1.
         -5    1    1    2    0  502  0.16115952157E+02  0.20809680988E+02  0.25941725830E+02  0.37253588764E+02  0.47000000000E+01 0.  1.
        -11    1    3    3    0    0  0.10216213103E+03 -0.96781834018E+02  0.25919445480E+03  0.29493319550E+03  0.00000000000E+00 0.  1.
         11    1    3    3    0    0  0.91359575719E+02 -0.41846171035E+02  0.38565026801E+03  0.39852704215E+03  0.00000000000E+00 0. -1.
<mgrwt>
<rscale>  0 0.26534591E+03</rscale>
<asrwt>0</asrwt>
<pdfrwt beam="1">  1        1 0.17070268E+00 0.26886124E+03</pdfrwt>
<pdfrwt beam="2">  1       -1 0.10052440E-01 0.26886124E+03</pdfrwt>
<totfact> 0.80464543E+02</totfact>
</mgrwt>
</event>
<event>
 7    1  0.5107591E-006  0.1250168E+03  0.7546771E-02  0.1250227E+00
         -1   -1    0    0    0  501 -0.00000000000E+00  0.00000000000E+00  0.15357313804E+03  0.15357313804E+03  0.00000000000E+00 0.  1.
          1   -1    0    0  501    0  0.00000000000E+00 -0.00000000000E+00 -0.14894850238E+03  0.14894850238E+03  0.00000000000E+00 0. -1.
         23    2    1    2    0    0 -0.13564411995E+01  0.13944993687E+01 -0.10262720932E+03  0.13780318322E+03  0.91943399174E+02 0.  0.
          5    1    1    2  502    0  0.26344390235E+01  0.50382272374E+02  0.61710063565E+01  0.51043951238E+02  0.47000000000E+01 0. -1.
         -5    1    1    2    0  502 -0.12779978240E+01 -0.51776771743E+02  0.10108083862E+03  0.11367450597E+03  0.47000000000E+01 0. -1.
        -11    1    3    3    0    0 -0.41045998680E+02 -0.13394034810E+02 -0.77054990612E+02  0.88326925421E+02  0.00000000000E+00 0. -1.
         11    1    3    3    0    0  0.39689557481E+02  0.14788534179E+02 -0.25572218709E+02  0.49476257800E+02  0.00000000000E+00 0.  1.
<mgrwt>
<rscale>  0 0.11577928E+03</rscale>
<asrwt>0</asrwt>
<pdfrwt beam="2">  1        1 0.22915154E-01 0.12501685E+03</pdfrwt>
<pdfrwt beam="1">  1       -1 0.23626637E-01 0.12501685E+03</pdfrwt>
<totfact> 0.31482896E+03</totfact>
</mgrwt>
</event>
<event>
 7    1  0.5107591E-006  0.1454459E+03  0.7546771E-02  0.1215999E+00
         -1   -1    0    0    0  501 -0.00000000000E+00  0.00000000000E+00  0.17001416417E+03  0.17001416417E+03  0.00000000000E+00 0.  1.
          1   -1    0    0  501    0  0.00000000000E+00 -0.00000000000E+00 -0.12981706066E+03  0.12981706066E+03  0.00000000000E+00 0. -1.
         23    2    1    2    0    0 -0.23554923786E+02  0.70562681550E+02 -0.50588931078E+02  0.12837678050E+03  0.91582920682E+02 0.  0.
          5    1    1    2  502    0  0.64373833115E+02 -0.33096778599E+01  0.26911949409E+02  0.70009194956E+02  0.47000000000E+01 0. -1.
         -5    1    1    2    0  502 -0.40818909329E+02 -0.67253003690E+02  0.63874085175E+02  0.10144524938E+03  0.47000000000E+01 0. -1.
        -11    1    3    3    0    0  0.28463817626E+02  0.57768589400E+02 -0.26454148267E+02  0.69621985002E+02  0.00000000000E+00 0.  1.
         11    1    3    3    0    0 -0.52018741413E+02  0.12794092150E+02 -0.24134782811E+02  0.58754795493E+02  0.00000000000E+00 0. -1.
<mgrwt>
<rscale>  0 0.13803411E+03</rscale>
<asrwt>0</asrwt>
<pdfrwt beam="2">  1        1 0.19971855E-01 0.14544594E+03</pdfrwt>
<pdfrwt beam="1">  1       -1 0.26156025E-01 0.14544594E+03</pdfrwt>
<totfact> 0.31950008E+03</totfact>
</mgrwt>
</event>
<event>
 7    1  0.5107591E-006  0.1441665E+03  0.7546771E-02  0.1219111E+00
          1   -1    0    0  501    0  0.00000000000E+00  0.00000000000E+00  0.75791383026E+03  0.75791383026E+03  0.00000000000E+00 0. -1.
         -1   -1    0    0    0  501 -0.00000000000E+00 -0.00000000000E+00 -0.22098016215E+02  0.22098016215E+02  0.00000000000E+00 0.  1.
         23    2    1    2    0    0 -0.36694067430E+02  0.61551730935E+02  0.36172725949E+03  0.37910508636E+03  0.87971507193E+02 0.  0.
          5    1    1    2  502    0 -0.32190752742E+02  0.12058682442E+02  0.45816643218E+02  0.57470959450E+02  0.47000000000E+01 0.  1.
         -5    1    1    2    0  502  0.68884820172E+02 -0.73610413377E+02  0.32827191134E+03  0.34343580067E+03  0.47000000000E+01 0.  1.
        -11    1    3    3    0    0  0.15536591850E+02  0.12763782353E+02  0.14994365286E+02  0.25082480273E+02  0.00000000000E+00 0.  1.
         11    1    3    3    0    0 -0.52230659281E+02  0.48787948582E+02  0.34673289421E+03  0.35402260609E+03  0.00000000000E+00 0. -1.
<mgrwt>
<rscale>  0 0.13578842E+03</rscale>
<asrwt>0</asrwt>
<pdfrwt beam="1">  1        1 0.11660211E+00 0.14416651E+03</pdfrwt>
<pdfrwt beam="2">  1       -1 0.33996954E-02 0.14416651E+03</pdfrwt>
<totfact> 0.75863459E+03</totfact>
</mgrwt>
</event>
<event>
 7    1  0.5107591E-006  0.1311862E+03  0.7546771E-02  0.1236302E+00
         -2   -1    0    0    0  501 -0.00000000000E+00  0.00000000000E+00  0.95961725258E+02  0.95961725258E+02  0.00000000000E+00 0.  1.
          2   -1    0    0  501    0  0.00000000000E+00 -0.00000000000E+00 -0.14603850517E+03  0.14603850517E+03  0.00000000000E+00 0. -1.
         23    2    1    2    0    0  0.43990351895E+02  0.30443502925E+02 -0.18321206737E+02  0.10702532913E+03  0.90866916583E+02 0.  0.
          5    1    1    2  502    0  0.30721585253E+01  0.24342275934E+02  0.30557227785E+02  0.39469212376E+02  0.47000000000E+01 0. -1.
         -5    1    1    2    0  502 -0.47062510420E+02 -0.54785778859E+02 -0.62312800955E+02  0.95505688915E+02  0.47000000000E+01 0.  1.
        -11    1    3    3    0    0  0.30551911723E+02 -0.30409547614E+02 -0.85140875654E+01  0.43939157742E+02  0.00000000000E+00 0.  1.
         11    1    3    3    0    0  0.13438440172E+02  0.60853050539E+02 -0.98071191720E+01  0.63086171390E+02  0.00000000000E+00 0. -1.
<mgrwt>
<rscale>  0 0.12421471E+03</rscale>
<asrwt>0</asrwt>
<pdfrwt beam="2">  1        2 0.22467462E-01 0.13118616E+03</pdfrwt>
<pdfrwt beam="1">  1       -2 0.14763342E-01 0.13118616E+03</pdfrwt>
<totfact> 0.80502991E+03</totfact>
</mgrwt>
</event>
<event>
 7    1  0.5107591E-006  0.1611034E+03  0.7546771E-02  0.1195160E+00
         -3   -1    0    0    0  501 -0.00000000000E+00  0.00000000000E+00  0.35403754263E+03  0.35403754263E+03  0.00000000000E+00 0.  1.
          3   -1    0    0  501    0  0.00000000000E+00 -0.00000000000E+00 -0.63404815634E+02  0.63404815634E+02  0.00000000000E+00 0. -1.
         23    2    1    2    0    0  0.60753468853E+01  0.10145029213E+03  0.10585627797E+03  0.17229617646E+03  0.90284822779E+02 0.  0.
          5    1    1    2  502    0 -0.31422979912E+01 -0.71624670891E+02  0.15924836181E+02  0.73591153845E+02  0.47000000000E+01 0.  1.
         -5    1    1    2    0  502 -0.29330488941E+01 -0.29825621236E+02  0.16885161285E+03  0.17155502796E+03  0.47000000000E+01 0.  1.
        -11    1    3    3    0    0  0.34184691184E+02  0.27620582720E+02  0.50729030547E+01  0.44240524935E+02  0.00000000000E+00 0.  1.
         11    1    3    3    0    0 -0.28109344299E+02  0.73829709407E+02  0.10078337491E+03  0.12805565152E+03  0.00000000000E+00 0. -1.
<mgrwt>
<rscale>  0 0.15440721E+03</rscale>
<asrwt>0</asrwt>
<pdfrwt beam="2">  1        3 0.97545872E-02 0.16110343E+03</pdfrwt>
<pdfrwt beam="1">  1       -3 0.54467313E-01 0.16110343E+03</pdfrwt>
<totfact> 0.61300624E+02</totfact>
</mgrwt>
</event>
<event>
 7    1  0.5107591E-006  0.2347864E+03  0.7546771E-02  0.1126236E+00
         -3   -1    0    0    0  501 -0.00000000000E+00  0.00000000000E+00  0.30332209605E+03  0.30332209605E+03  0.00000000000E+00 0.  1.
          3   -1    0    0  501    0  0.00000000000E+00 -0.00000000000E+00 -0.17073109639E+03  0.17073109639E+03  0.00000000000E+00 0. -1.
         23    2    1    2    0    0  0.14680067101E+03  0.13397524848E+03  0.41962437877E+02  0.22238241706E+03  0.90516788572E+02 0.  0.
          5    1    1    2  502    0 -0.28695849042E+02 -0.71494791419E+02  0.89214422276E+02  0.11796719923E+03  0.47000000000E+01 0. -1.
         -5    1    1    2    0  502 -0.11810482196E+03 -0.62480457058E+02  0.14141395113E+01  0.13370357615E+03  0.47000000000E+01 0. -1.
        -11    1    3    3    0    0  0.14612875473E+03  0.88680779358E+02  0.20184886454E+02  0.17212008375E+03  0.00000000000E+00 0.  1.
         11    1    3    3    0    0  0.67191627065E+00  0.45294469119E+02  0.21777551423E+02  0.50262333314E+02  0.00000000000E+00 0. -1.
<mgrwt>
<rscale>  0 0.23057468E+03</rscale>
<asrwt>0</asrwt>
<pdfrwt beam="2">  1        3 0.26266323E-01 0.23478638E+03</pdfrwt>
<pdfrwt beam="1">  1       -3 0.46664938E-01 0.23478638E+03</pdfrwt>
<totfact> 0.15613383E+02</totfact>
</mgrwt>
</event>
<event>
 7    1  0.5107591E-006  0.2096201E+03  0.7546771E-02  0.1150253E+00
         -2   -1    0    0    0  501 -0.00000000000E+00  0.00000000000E+00  0.49862488389E+02  0.49862488389E+02  0.00000000000E+00 0.  1.
          2   -1    0    0  501    0  0.00000000000E+00 -0.00000000000E+00 -0.73149581067E+03  0.73149581067E+03  0.00000000000E+00 0. -1.
         23    2    1    2    0    0 -0.12814498371E+03 -0.37574726870E+02 -0.28277318660E+03  0.33076981110E+03  0.10777289050E+03 0.  0.
          5    1    1    2  502    0 -0.26412758632E+02 -0.13257286789E+02 -0.15185238783E+03  0.15477282436E+03  0.47000000000E+01 0. -1.
         -5    1    1    2    0  502  0.15455774234E+03  0.50832013659E+02 -0.24700774785E+03  0.29581566360E+03  0.47000000000E+01 0.  1.
        -11    1    3    3    0    0 -0.48349309138E+02 -0.67154204423E+02 -0.10509060164E+03  0.13375865362E+03  0.00000000000E+00 0.  1.
         11    1    3    3    0    0 -0.79795674571E+02  0.29579477553E+02 -0.17768258496E+03  0.19701115748E+03  0.00000000000E+00 0. -1.
<mgrwt>
<rscale>  0 0.19939149E+03</rscale>
<asrwt>0</asrwt>
<pdfrwt beam="2">  1        2 0.11253781E+00 0.20962008E+03</pdfrwt>
<pdfrwt beam="1">  1       -2 0.76711529E-02 0.20962008E+03</pdfrwt>
<totfact> 0.39690802E+03</totfact>
</mgrwt>
</event>
<event>
 7    1  0.5107591E-006  0.1713099E+03  0.7546771E-02  0.1183197E+00
          2   -1    0    0  501    0  0.00000000000E+00  0.00000000000E+00  0.52942659775E+03  0.52942659775E+03  0.00000000000E+00 0. -1.
         -2   -1    0    0    0  501 -0.00000000000E+00 -0.00000000000E+00 -0.49345182242E+02  0.49345182242E+02  0.00000000000E+00 0.  1.
         23    2    1    2    0    0 -0.73717914276E+02  0.91042618913E+02  0.27114815160E+03  0.30858629002E+03  0.89336940425E+02 0.  0.
          5    1    1    2  502    0  0.67155729848E+01  0.15854095198E+01  0.13210146674E+03  0.13236502544E+03  0.47000000000E+01 0.  1.
         -5    1    1    2    0  502  0.67002341292E+02 -0.92628028433E+02  0.76831797165E+02  0.13782046454E+03  0.47000000000E+01 0.  1.
        -11    1    3    3    0    0 -0.25445245002E+02  0.48538828202E+01  0.73929785766E+01  0.26938389036E+02  0.00000000000E+00 0.  1.
         11    1    3    3    0    0 -0.48272669274E+02  0.86188736093E+02  0.26375517303E+03  0.28164790098E+03  0.00000000000E+00 0. -1.
<mgrwt>
<rscale>  0 0.16496994E+03</rscale>
<asrwt>0</asrwt>
<pdfrwt beam="1">  1        2 0.81450242E-01 0.17130992E+03</pdfrwt>
<pdfrwt beam="2">  1       -2 0.75915669E-02 0.17130992E+03</pdfrwt>
<totfact> 0.58333312E+03</totfact>
</mgrwt>
</event>
<event>
 7    1  0.5107591E-006  0.1536411E+03  0.7546771E-02  0.1205478E+00
         -2   -1    0    0    0  501 -0.00000000000E+00  0.00000000000E+00  0.70691640413E+02  0.70691640413E+02  0.00000000000E+00 0. -1.
          2   -1    0    0  501    0  0.00000000000E+00 -0.00000000000E+00 -0.27586046132E+03  0.27586046132E+03  0.00000000000E+00 0.  1.
         23    2    1    2    0    0  0.76443367817E+02  0.46224880811E+02 -0.10110567967E+03  0.16098610714E+03  0.87828469993E+02 0.  0.
          5    1    1    2  502    0  0.26738322170E+02  0.16530883340E+02 -0.30661354529E+02  0.44163521576E+02  0.47000000000E+01 0.  1.
         -5    1    1    2    0  502 -0.10318168999E+03 -0.62755764150E+02 -0.73401786702E+02  0.14140247301E+03  0.47000000000E+01 0.  1.
        -11    1    3    3    0    0  0.75356747684E+02  0.41827051184E+01 -0.90061224405E+02  0.11750386626E+03  0.00000000000E+00 0.  1.
         11    1    3    3    0    0  0.10866201328E+01  0.42042175692E+02 -0.11044455267E+02  0.43482240885E+02  0.00000000000E+00 0. -1.
<mgrwt>
<rscale>  0 0.14599835E+03</rscale>
<asrwt>0</asrwt>
<pdfrwt beam="2">  1        2 0.42440071E-01 0.15364114E+03</pdfrwt>
<pdfrwt beam="1">  1       -2 0.10875637E-01 0.15364114E+03</pdfrwt>
<totfact> 0.66715005E+03</totfact>
</mgrwt>
</event>
<event>
 7    1  0.5107591E-006  0.1932579E+03  0.7546771E-02  0.1160169E+00
         -2   -1    0    0    0  501 -0.00000000000E+00  0.00000000000E+00  0.19898204423E+02  0.19898204423E+02  0.00000000000E+00 0.  1.
          2   -1    0    0  501    0  0.00000000000E+00 -0.00000000000E+00 -0.16950150918E+04  0.16950150918E+04  0.00000000000E+00 0. -1.
         23    2    1    2    0    0  0.43601397822E+02 -0.14079244832E+03 -0.83892225430E+03  0.85667668765E+03  0.91546725781E+02 0.  0.
          5    1    1    2  502    0  0.22628593968E+02 -0.89876923367E+01 -0.59692050402E+02  0.64637935917E+02  0.47000000000E+01 0. -1.
         -5    1    1    2    0  502 -0.66229991789E+02  0.14978014065E+03 -0.77650258267E+03  0.79359867266E+03  0.47000000000E+01 0. -1.
        -11    1    3    3    0    0  0.67061969914E+02 -0.12147328850E+03 -0.74937281132E+03  0.76211067305E+03  0.00000000000E+00 0. -1.
         11    1    3    3    0    0 -0.23460572093E+02 -0.19319159820E+02 -0.89549442982E+02  0.94566014601E+02  0.00000000000E+00 0.  1.
<mgrwt>
<rscale>  0 0.18811857E+03</rscale>
<asrwt>0</asrwt>
<pdfrwt beam="2">  1        2 0.26077152E+00 0.19325789E+03</pdfrwt>
<pdfrwt beam="1">  1       -2 0.30612626E-02 0.19325789E+03</pdfrwt>
<totfact> 0.44002520E+03</totfact>
</mgrwt>
</event>
<event>
 7    1  0.5107591E-006  0.1384532E+03  0.7546771E-02  0.1226927E+00
         -2   -1    0    0    0  501 -0.00000000000E+00  0.00000000000E+00  0.57264287810E+02  0.57264287810E+02  0.00000000000E+00 0. -1.
          2   -1    0    0  501    0  0.00000000000E+00 -0.00000000000E+00 -0.28288889210E+03  0.28288889210E+03  0.00000000000E+00 0.  1.
         23    2    1    2    0    0  0.59416539615E+02  0.43873851661E+01 -0.14021208078E+03  0.17747380251E+03  0.91038171416E+02 0.  0.
          5    1    1    2  502    0 -0.43570087717E+02  0.25684115565E+02 -0.10953147957E+03  0.12073632988E+03  0.47000000000E+01 0. -1.
         -5    1    1    2    0  502 -0.15846451898E+02 -0.30071500732E+02  0.24118956054E+02  0.41943047518E+02  0.47000000000E+01 0. -1.
        -11    1    3    3    0    0  0.31275901110E+02  0.24149703626E+02 -0.13740370954E+03  0.14297261825E+03  0.00000000000E+00 0.  1.
         11    1    3    3    0    0  0.28140638505E+02 -0.19762318460E+02 -0.28083712389E+01  0.34501184261E+02  0.00000000000E+00 0. -1.
<mgrwt>
<rscale>  0 0.13035713E+03</rscale>
<asrwt>0</asrwt>
<pdfrwt beam="2">  1        2 0.43521368E-01 0.13845317E+03</pdfrwt>
<pdfrwt beam="1">  1       -2 0.88098905E-02 0.13845317E+03</pdfrwt>
<totfact> 0.89812760E+03</totfact>
</mgrwt>
</event>
<event>
 7    1  0.5107591E-006  0.1393627E+03  0.7546771E-02  0.1225169E+00
         -2   -1    0    0    0  501 -0.00000000000E+00  0.00000000000E+00  0.24838468372E+03  0.24838468372E+03  0.00000000000E+00 0.  1.
          2   -1    0    0  501    0  0.00000000000E+00 -0.00000000000E+00 -0.63374983371E+02  0.63374983371E+02  0.00000000000E+00 0. -1.
         23    2    1    2    0    0 -0.13857015687E+02 -0.60047651959E+02  0.68757470263E+02  0.13027542430E+03  0.91904075375E+02 0.  0.
          5    1    1    2  502    0  0.68653551360E+02  0.33716635909E+02  0.78842890417E+02  0.10994731930E+03  0.47000000000E+01 0.  1.
         -5    1    1    2    0  502 -0.54796535673E+02  0.26331016050E+02  0.37409339666E+02  0.71536923489E+02  0.47000000000E+01 0.  1.
        -11    1    3    3    0    0 -0.54021778410E+01  0.22164055883E+02  0.33253931030E+02  0.40326825161E+02  0.00000000000E+00 0. -1.
         11    1    3    3    0    0 -0.84548378458E+01 -0.82211707842E+02  0.35503539232E+02  0.89948599141E+02  0.00000000000E+00 0.  1.
<mgrwt>
<rscale>  0 0.13155297E+03</rscale>
<asrwt>0</asrwt>
<pdfrwt beam="2">  1        2 0.97499976E-02 0.13936265E+03</pdfrwt>
<pdfrwt beam="1">  1       -2 0.38213028E-01 0.13936265E+03</pdfrwt>
<totfact> 0.41126722E+03</totfact>
</mgrwt>
</event>
<event>
 7    1  0.5107591E-006  0.1388362E+03  0.7546771E-02  0.1226612E+00
         -1   -1    0    0    0  501 -0.00000000000E+00  0.00000000000E+00  0.30222795536E+02  0.30222795536E+02  0.00000000000E+00 0.  1.
          1   -1    0    0  501    0  0.00000000000E+00 -0.00000000000E+00 -0.50670752059E+03  0.50670752059E+03  0.00000000000E+00 0. -1.
         23    2    1    2    0    0  0.51517997472E+02 -0.31574429824E+02 -0.21471535710E+03  0.24062187286E+03  0.90250498282E+02 0.  0.
          5    1    1    2  502    0  0.30907741696E+02  0.59001398639E+01 -0.15832559258E+03  0.16149050565E+03  0.47000000000E+01 0. -1.
         -5    1    1    2    0  502 -0.82425739168E+02  0.25674289960E+02 -0.10344377537E+03  0.13481793763E+03  0.47000000000E+01 0. -1.
        -11    1    3    3    0    0  0.52477950193E+02 -0.14017846213E+02 -0.21625448272E+03  0.22297182909E+03  0.00000000000E+00 0. -1.
         11    1    3    3    0    0 -0.95995272132E+00 -0.17556583611E+02  0.15391256239E+01  0.17650043768E+02  0.00000000000E+00 0.  1.
<mgrwt>
<rscale>  0 0.13057043E+03</rscale>
<asrwt>0</asrwt>
<pdfrwt beam="2">  1        1 0.77954997E-01 0.13883620E+03</pdfrwt>
<pdfrwt beam="1">  1       -1 0.46496612E-02 0.13883620E+03</pdfrwt>
<totfact> 0.83323607E+03</totfact>
</mgrwt>
</event>
<event>
 7    1  0.5107591E-006  0.1266801E+03  0.7546771E-02  0.1256862E+00
          2   -1    0    0  501    0  0.00000000000E+00  0.00000000000E+00  0.70365385758E+02  0.70365385758E+02  0.00000000000E+00 0. -1.
         -2   -1    0    0    0  501 -0.00000000000E+00 -0.00000000000E+00 -0.16476461592E+03  0.16476461592E+03  0.00000000000E+00 0.  1.
         23    2    1    2    0    0  0.10377342331E+02  0.17763883439E+02 -0.55706491129E+00  0.77477872480E+02  0.74694481817E+02 0.  0.
          5    1    1    2  502    0 -0.52042935998E+02 -0.78353914908E+01  0.16751613846E+01  0.52865458598E+02  0.47000000000E+01 0. -1.
         -5    1    1    2    0  502  0.41665593667E+02 -0.99284919485E+01 -0.95517326640E+02  0.10478667060E+03  0.47000000000E+01 0. -1.
        -11    1    3    3    0    0 -0.50696023547E+01  0.11897978354E+02  0.35517711444E+02  0.37799081777E+02  0.00000000000E+00 0. -1.
         11    1    3    3    0    0  0.15446944686E+02  0.58659050851E+01 -0.36074776355E+02  0.39678790703E+02  0.00000000000E+00 0.  1.
<mgrwt>
<rscale>  0 0.11202704E+03</rscale>
<asrwt>0</asrwt>
<pdfrwt beam="1">  1        2 0.10825444E-01 0.12668008E+03</pdfrwt>
<pdfrwt beam="2">  1       -2 0.25348403E-01 0.12668008E+03</pdfrwt>
<totfact> 0.75532679E+03</totfact>
</mgrwt>
</event>
<event>
 6    1  0.5107591E-006  0.5129275E+03  0.7546771E-02  0.1010459E+00
         -2   -1    0    0    0  501 -0.00000000000E+00  0.00000000000E+00  0.16787587505E+03  0.16787587505E+03  0.00000000000E+00 0.  1.
          2   -1    0    0  501    0  0.00000000000E+00 -0.00000000000E+00 -0.39179938514E+03  0.39179938514E+03  0.00000000000E+00 0. -1.
          5    1    1    2  502    0  0.81769426960E+01 -0.55105659009E+01 -0.44329805819E+02  0.45655781807E+02  0.47000000000E+01 0. -1.
         -5    1    1    2    0  502  0.14931801525E+03  0.10200670079E+03 -0.20784096905E+02  0.18208598345E+03  0.47000000000E+01 0.  1.
        -11    1    1    2    0    0 -0.18793239910E+03 -0.24617696566E+01 -0.75051873087E+02  0.20237942236E+03  0.00000000000E+00 0.  1.
         11    1    1    2    0    0  0.30437441148E+02 -0.94034365237E+02 -0.83757734283E+02  0.12955407258E+03  0.00000000000E+00 0. -1.
<mgrwt>
<rscale>  0 0.51292754E+03</rscale>
<asrwt>0</asrwt>
<pdfrwt beam="2">  1        2 0.60276828E-01 0.51292754E+03</pdfrwt>
<pdfrwt beam="1">  1       -2 0.25827058E-01 0.51292754E+03</pdfrwt>
<totfact> 0.11010114E+03</totfact>
</mgrwt>
</event>
<event>
 7    1  0.5107591E-006  0.1607003E+03  0.7546771E-02  0.1195856E+00
          1   -1    0    0  501    0  0.00000000000E+00  0.00000000000E+00  0.20874608698E+03  0.20874608698E+03  0.00000000000E+00 0. -1.
         -1   -1    0    0    0  501 -0.00000000000E+00 -0.00000000000E+00 -0.10604120188E+03  0.10604120188E+03  0.00000000000E+00 0.  1.
         23    2    1    2    0    0  0.60489685905E+02  0.80873514925E+02  0.28938702906E+02  0.13796521937E+03  0.89428327235E+02 0.  0.
          5    1    1    2  502    0 -0.51492775978E+02 -0.19923678608E+02  0.96256545025E+02  0.11106696812E+03  0.47000000000E+01 0.  1.
         -5    1    1    2    0  502 -0.89969099271E+01 -0.60949836317E+02 -0.22490362836E+02  0.65755101367E+02  0.47000000000E+01 0.  1.
        -11    1    3    3    0    0  0.73096879050E+01  0.62199634089E+02  0.47522882903E+02  0.78617112752E+02  0.00000000000E+00 0. -1.
         11    1    3    3    0    0  0.53179998000E+02  0.18673880836E+02 -0.18584179996E+02  0.59348106616E+02  0.00000000000E+00 0.  1.
<mgrwt>
<rscale>  0 0.15381986E+03</rscale>
<asrwt>0</asrwt>
<pdfrwt beam="1">  1        1 0.32114782E-01 0.16070033E+03</pdfrwt>
<pdfrwt beam="2">  1       -1 0.16314031E-01 0.16070033E+03</pdfrwt>
<totfact> 0.37872028E+03</totfact>
</mgrwt>
</event>
<event>
 7    1  0.5107591E-006  0.1260339E+03  0.7546771E-02  0.1248678E+00
          1   -1    0    0  501    0  0.00000000000E+00  0.00000000000E+00  0.30976174916E+02  0.30976174916E+02  0.00000000000E+00 0. -1.
         -1   -1    0    0    0  501 -0.00000000000E+00 -0.00000000000E+00 -0.65832296186E+03  0.65832296186E+03  0.00000000000E+00 0.  1.
         23    2    1    2    0    0 -0.14602733054E+02  0.67382675755E+01 -0.65293286766E+02  0.11328812086E+03  0.91172040501E+02 0.  0.
          5    1    1    2  502    0  0.21760940895E+02  0.12714161900E+02 -0.17495062148E+02  0.31037971278E+02  0.47000000000E+01 0. -1.
         -5    1    1    2    0  502 -0.71582078411E+01 -0.19452429475E+02 -0.54455843803E+03  0.54497304464E+03  0.47000000000E+01 0. -1.
        -11    1    3    3    0    0  0.11642082936E+02  0.21128842296E+02  0.14444471715E+02  0.28117767248E+02  0.00000000000E+00 0. -1.
         11    1    3    3    0    0 -0.26244815990E+02 -0.14390574721E+02 -0.79737758481E+02  0.85170353614E+02  0.00000000000E+00 0.  1.
<mgrwt>
<rscale>  0 0.11667948E+03</rscale>
<asrwt>0</asrwt>
<pdfrwt beam="1">  1        1 0.47655653E-02 0.12603394E+03</pdfrwt>
<pdfrwt beam="2">  1       -1 0.10128046E+00 0.12603394E+03</pdfrwt>
<totfact> 0.16924205E+03</totfact>
</mgrwt>
</event>
<event>
 7    1  0.5107591E-006  0.2853623E+03  0.7546771E-02  0.1094752E+00
         -2   -1    0    0    0  501 -0.00000000000E+00  0.00000000000E+00  0.15585618330E+03  0.15585618330E+03  0.00000000000E+00 0.  1.
          2   -1    0    0  501    0  0.00000000000E+00 -0.00000000000E+00 -0.50461782698E+03  0.50461782698E+03  0.00000000000E+00 0. -1.
         23    2    1    2    0    0  0.34805439109E+02 -0.25415622457E+03 -0.12851108647E+03  0.29999938976E+03  0.87622653648E+02 0.  0.
          5    1    1    2  502    0 -0.59694584620E+02  0.24887323006E+03 -0.21450613558E+03  0.33397050810E+03  0.47000000000E+01 0. -1.
         -5    1    1    2    0  502  0.24889145511E+02  0.52829945117E+01 -0.57444216329E+01  0.26504112420E+02  0.47000000000E+01 0. -1.
        -11    1    3    3    0    0  0.75611464922E+01 -0.12126296856E+03 -0.13679771476E+02  0.12226616305E+03  0.00000000000E+00 0.  1.
         11    1    3    3    0    0  0.27244292617E+02 -0.13289325601E+03 -0.11483131499E+03  0.17773322671E+03  0.00000000000E+00 0. -1.
<mgrwt>
<rscale>  0 0.28172277E+03</rscale>
<asrwt>0</asrwt>
<pdfrwt beam="2">  1        2 0.77633513E-01 0.28536230E+03</pdfrwt>
<pdfrwt beam="1">  1       -2 0.23977874E-01 0.28536230E+03</pdfrwt>
<totfact> 0.94517865E+02</totfact>
</mgrwt>
</event>
<event>
 7    1  0.5107591E-006  0.1256951E+03  0.7546771E-02  0.1242626E+00
          2   -1    0    0  501    0  0.00000000000E+00  0.00000000000E+00  0.64766918263E+03  0.64766918263E+03  0.00000000000E+00 0. -1.
         -2   -1    0    0    0  501 -0.00000000000E+00 -0.00000000000E+00 -0.20706194767E+02  0.20706194767E+02  0.00000000000E+00 0.  1.
         23    2    1    2    0    0  0.49661580597E+01 -0.57847324208E+02  0.26423289317E+03  0.28448426914E+03  0.87984668606E+02 0.  0.
          5    1    1    2  502    0  0.52359872322E+02  0.17643027549E+02  0.15392706281E+03  0.16361070660E+03  0.47000000000E+01 0. -1.
         -5    1    1    2    0  502 -0.57326030382E+02  0.40204296659E+02  0.20880303188E+03  0.22028040165E+03  0.47000000000E+01 0.  1.
        -11    1    3    3    0    0 -0.21017185596E+01 -0.80929360420E+02  0.21241269555E+03  0.22731724930E+03  0.00000000000E+00 0.  1.
         11    1    3    3    0    0  0.70678766193E+01  0.23082036212E+02  0.51820197619E+02  0.57167019836E+02  0.00000000000E+00 0. -1.
<mgrwt>
<rscale>  0 0.12028575E+03</rscale>
<asrwt>0</asrwt>
<pdfrwt beam="1">  1        2 0.99641397E-01 0.12569511E+03</pdfrwt>
<pdfrwt beam="2">  1       -2 0.31855689E-02 0.12569511E+03</pdfrwt>
<totfact> 0.16803658E+04</totfact>
</mgrwt>
</event>
<event>
 7    1  0.5107591E-006  0.1581053E+03  0.7546771E-02  0.1198694E+00
         -2   -1    0    0    0  501 -0.00000000000E+00  0.00000000000E+00  0.10492176394E+03  0.10492176394E+03  0.00000000000E+00 0.  1.
          2   -1    0    0  501    0  0.00000000000E+00 -0.00000000000E+00 -0.26866472664E+03  0.26866472664E+03  0.00000000000E+00 0. -1.
         23    2    1    2    0    0 -0.94861643821E+02 -0.19309439548E+02 -0.16930216680E+03  0.21538343883E+03  0.91406871272E+02 0.  0.
          5    1    1    2  502    0  0.49503700120E+02 -0.22549222317E+01  0.63951176363E+02  0.81040384736E+02  0.47000000000E+01 0.  1.
         -5    1    1    2    0  502  0.45357943701E+02  0.21564361780E+02 -0.58391972268E+02  0.77162667016E+02  0.47000000000E+01 0.  1.
        -11    1    3    3    0    0 -0.46133555049E+01 -0.33715302306E+02 -0.82911550183E+02  0.89623266021E+02  0.00000000000E+00 0. -1.
         11    1    3    3    0    0 -0.90248288316E+02  0.14405862758E+02 -0.86390616614E+02  0.12576017281E+03  0.00000000000E+00 0.  1.
<mgrwt>
<rscale>  0 0.15145678E+03</rscale>
<asrwt>0</asrwt>
<pdfrwt beam="2">  1        2 0.41333034E-01 0.15810535E+03</pdfrwt>
<pdfrwt beam="1">  1       -2 0.16141810E-01 0.15810535E+03</pdfrwt>
<totfact> 0.36272016E+03</totfact>
</mgrwt>
</event>
<event>
 7    1  0.5107591E-006  0.1829259E+03  0.7546771E-02  0.1170470E+00
          1   -1    0    0  501    0  0.00000000000E+00  0.00000000000E+00  0.45082887803E+02  0.45082887803E+02  0.00000000000E+00 0. -1.
         -1   -1    0    0    0  501 -0.00000000000E+00 -0.00000000000E+00 -0.65970711702E+03  0.65970711702E+03  0.00000000000E+00 0.  1.
         23    2    1    2    0    0 -0.10021659987E+03  0.88280253979E+02 -0.26651552465E+03  0.31154510011E+03  0.90515492550E+02 0.  0.
          5    1    1    2  502    0  0.47908754915E+02 -0.11244131371E+03 -0.20239888604E+03  0.23648614526E+03  0.47000000000E+01 0. -1.
         -5    1    1    2    0  502  0.52307844956E+02  0.24161059733E+02 -0.14570981852E+03  0.15675875945E+03  0.47000000000E+01 0. -1.
        -11    1    3    3    0    0 -0.27545025368E+01  0.59059504159E+02 -0.86747389935E+02  0.10497962648E+03  0.00000000000E+00 0.  1.
         11    1    3    3    0    0 -0.97462097335E+02  0.29220749820E+02 -0.17976813471E+03  0.20656547363E+03  0.00000000000E+00 0. -1.
<mgrwt>
<rscale>  0 0.17727207E+03</rscale>
<asrwt>0</asrwt>
<pdfrwt beam="1">  1        1 0.69358296E-02 0.18292590E+03</pdfrwt>
<pdfrwt beam="2">  1       -1 0.10149339E+00 0.18292590E+03</pdfrwt>
<totfact> 0.10223109E+03</totfact>
</mgrwt>
</event>
<event>
 7    1  0.5107591E-006  0.2047760E+03  0.7546771E-02  0.1145771E+00
         -1   -1    0    0    0  501 -0.00000000000E+00  0.00000000000E+00  0.22820634508E+02  0.22820634508E+02  0.00000000000E+00 0.  1.
          1   -1    0    0  501    0  0.00000000000E+00 -0.00000000000E+00 -0.45937819217E+03  0.45937819217E+03  0.00000000000E+00 0. -1.
         23    2    1    2    0    0  0.31589127184E+02  0.51222703537E+00 -0.24512282791E+03  0.25697047168E+03  0.70359698823E+02 0.  0.
          5    1    1    2  502    0  0.42506267718E+02  0.59578156798E+01 -0.84405308046E+02  0.94808356115E+02  0.47000000000E+01 0. -1.
         -5    1    1    2    0  502 -0.74095394902E+02 -0.64700427151E+01 -0.10702942170E+03  0.13041999888E+03  0.47000000000E+01 0.  1.
        -11    1    3    3    0    0  0.29370949272E+02 -0.32499834933E+02 -0.12960335004E+03  0.13680614121E+03  0.00000000000E+00 0. -1.
         11    1    3    3    0    0  0.22181779122E+01  0.33012061968E+02 -0.11551947787E+03  0.12016433047E+03  0.00000000000E+00 0.  1.
<mgrwt>
<rscale>  0 0.20477599E+03</rscale>
<asrwt>0</asrwt>
<pdfrwt beam="2">  1        1 0.70673563E-01 0.20477599E+03</pdfrwt>
<pdfrwt beam="1">  1       -1 0.35108671E-02 0.20477599E+03</pdfrwt>
<totfact> 0.14720926E+04</totfact>
</mgrwt>
</event>
<event>
 7    1  0.5107591E-006  0.1368067E+03  0.7546771E-02  0.1229966E+00
         -1   -1    0    0    0  501 -0.00000000000E+00  0.00000000000E+00  0.22971282204E+02  0.22971282204E+02  0.00000000000E+00 0.  1.
          1   -1    0    0  501    0  0.00000000000E+00 -0.00000000000E+00 -0.68055992184E+03  0.68055992184E+03  0.00000000000E+00 0. -1.
         23    2    1    2    0    0 -0.47841119612E+02  0.28493196320E+02 -0.37342229008E+03  0.38814797835E+03  0.90077807496E+02 0.  0.
          5    1    1    2  502    0  0.62885193774E+02 -0.65151305703E+02 -0.23610165765E+03  0.25291366704E+03  0.47000000000E+01 0. -1.
         -5    1    1    2    0  502 -0.15044074162E+02  0.36658109383E+02 -0.48064691912E+02  0.62469558663E+02  0.47000000000E+01 0. -1.
        -11    1    3    3    0    0 -0.11628791098E+02 -0.29145334535E+02 -0.18852491052E+03  0.19111860504E+03  0.00000000000E+00 0.  1.
         11    1    3    3    0    0 -0.36212328514E+02  0.57638530855E+02 -0.18489737956E+03  0.19702937330E+03  0.00000000000E+00 0. -1.
<mgrwt>
<rscale>  0 0.12832275E+03</rscale>
<asrwt>0</asrwt>
<pdfrwt beam="2">  1        1 0.10470153E+00 0.13680667E+03</pdfrwt>
<pdfrwt beam="1">  1       -1 0.35340432E-02 0.13680667E+03</pdfrwt>
<totfact> 0.83492712E+03</totfact>
</mgrwt>
</event>
<event>
 7    1  0.5107591E-006  0.1672960E+03  0.7546771E-02  0.1186783E+00
          1   -1    0    0  501    0  0.00000000000E+00  0.00000000000E+00  0.17006500031E+03  0.17006500031E+03  0.00000000000E+00 0. -1.
         -1   -1    0    0    0  501 -0.00000000000E+00 -0.00000000000E+00 -0.14587340132E+03  0.14587340132E+03  0.00000000000E+00 0.  1.
         23    2    1    2    0    0 -0.46996330662E+02  0.10077425432E+03  0.27531513052E+02  0.14860908652E+03  0.94670855892E+02 0.  0.
          5    1    1    2  502    0  0.55981680650E+02  0.71089454983E+01  0.12017321502E+02  0.57887750782E+02  0.47000000000E+01 0.  1.
         -5    1    1    2    0  502 -0.89853499876E+01 -0.10788319982E+03 -0.15357235558E+02  0.10944156433E+03  0.47000000000E+01 0.  1.
        -11    1    3    3    0    0 -0.31844172484E+02  0.33788280947E+02  0.57306174240E+02  0.73754300597E+02  0.00000000000E+00 0. -1.
         11    1    3    3    0    0 -0.15152158178E+02  0.66985973378E+02 -0.29774661188E+02  0.74854785924E+02  0.00000000000E+00 0.  1.
<mgrwt>
<rscale>  0 0.16170726E+03</rscale>
<asrwt>0</asrwt>
<pdfrwt beam="1">  1        1 0.26163846E-01 0.16729598E+03</pdfrwt>
<pdfrwt beam="2">  1       -1 0.22442062E-01 0.16729598E+03</pdfrwt>
<totfact> 0.29378675E+03</totfact>
</mgrwt>
</event>
<event>
 7    1  0.5107591E-006  0.1898210E+03  0.7546771E-02  0.1189042E+00
         -1   -1    0    0    0  501 -0.00000000000E+00  0.00000000000E+00  0.68904818769E+02  0.68904818769E+02  0.00000000000E+00 0.  1.
          1   -1    0    0  501    0  0.00000000000E+00 -0.00000000000E+00 -0.35216265122E+03  0.35216265122E+03  0.00000000000E+00 0. -1.
         23    2    1    2    0    0 -0.19180422351E+02  0.23887547754E+01 -0.18339395112E+03  0.20658014655E+03  0.93104354853E+02 0.  0.
          5    1    1    2  502    0 -0.76313135820E+02 -0.18026658187E+02 -0.86241333724E+02  0.11665467306E+03  0.47000000000E+01 0. -1.
         -5    1    1    2    0  502  0.95493558172E+02  0.15637903412E+02 -0.13622547604E+02  0.97832650371E+02  0.47000000000E+01 0.  1.
        -11    1    3    3    0    0 -0.26732649724E+02 -0.40633938116E+02 -0.71623733751E+02  0.86577772693E+02  0.00000000000E+00 0.  1.
         11    1    3    3    0    0  0.75522273724E+01  0.43022692892E+02 -0.11177021737E+03  0.12000237386E+03  0.00000000000E+00 0. -1.
<mgrwt>
<rscale>  0 0.15969502E+03</rscale>
<asrwt>0</asrwt>
<pdfrwt beam="2">  1        1 0.54178869E-01 0.18982101E+03</pdfrwt>
<pdfrwt beam="1">  1       -1 0.10600741E-01 0.18982101E+03</pdfrwt>
<totfact> 0.38963591E+03</totfact>
</mgrwt>
</event>
<event>
 7    1  0.5107591E-006  0.1254763E+03  0.7546771E-02  0.1249460E+00
         -1   -1    0    0    0  501 -0.00000000000E+00  0.00000000000E+00  0.86298640051E+02  0.86298640051E+02  0.00000000000E+00 0. -1.
          1   -1    0    0  501    0  0.00000000000E+00 -0.00000000000E+00 -0.13852181117E+03  0.13852181117E+03  0.00000000000E+00 0.  1.
         23    2    1    2    0    0  0.10922209116E+02  0.21824043782E+00 -0.31863684494E+02  0.97703109015E+02  0.91712926247E+02 0.  0.
          5    1    1    2  502    0  0.11185073167E+02  0.55259035168E+02  0.13695748779E+02  0.58209366635E+02  0.47000000000E+01 0. -1.
         -5    1    1    2    0  502 -0.22107282283E+02 -0.55477275605E+02 -0.34055235400E+02  0.68907975566E+02  0.47000000000E+01 0. -1.
        -11    1    3    3    0    0  0.11629234636E+02 -0.37100543250E+02 -0.43750758978E+02  0.58530490506E+02  0.00000000000E+00 0.  1.
         11    1    3    3    0    0 -0.70702552058E+00  0.37318783688E+02  0.11887074484E+02  0.39172618509E+02  0.00000000000E+00 0. -1.
<mgrwt>
<rscale>  0 0.11622347E+03</rscale>
<asrwt>0</asrwt>
<pdfrwt beam="2">  1        1 0.21311048E-01 0.12547633E+03</pdfrwt>
<pdfrwt beam="1">  1       -1 0.13276714E-01 0.12547633E+03</pdfrwt>
<totfact> 0.86100009E+03</totfact>
</mgrwt>
</event>
<event>
 7    1  0.5107591E-006  0.2547884E+03  0.7546771E-02  0.1112744E+00
         -1   -1    0    0    0  501 -0.00000000000E+00  0.00000000000E+00  0.72951989089E+03  0.72951989089E+03  0.00000000000E+00 0.  1.
          1   -1    0    0  501    0  0.00000000000E+00 -0.00000000000E+00 -0.10955843301E+03  0.10955843301E+03  0.00000000000E+00 0. -1.
         23    2    1    2    0    0  0.18746946970E+03 -0.11894300869E+03  0.99099942891E+02  0.25923880232E+03  0.89953969110E+02 0.  0.
          5    1    1    2  502    0 -0.88245220777E+02  0.32022666299E+02  0.35837612654E+03  0.37049724455E+03  0.47000000000E+01 0. -1.
         -5    1    1    2    0  502 -0.99224248925E+02  0.86920342394E+02  0.16248538845E+03  0.20934227704E+03  0.47000000000E+01 0. -1.
        -11    1    3    3    0    0 -0.74116977689E+00 -0.25144470110E+02  0.27075105957E+02  0.36957476541E+02  0.00000000000E+00 0.  1.
         11    1    3    3    0    0  0.18821063948E+03 -0.93798538583E+02  0.72024836934E+02  0.22228132578E+03  0.00000000000E+00 0. -1.
<mgrwt>
<rscale>  0 0.25089015E+03</rscale>
<asrwt>0</asrwt>
<pdfrwt beam="2">  1        1 0.16855144E-01 0.25478845E+03</pdfrwt>
<pdfrwt beam="1">  1       -1 0.11223383E+00 0.25478845E+03</pdfrwt>
<totfact> 0.24849913E+02</totfact>
</mgrwt>
</event>
<event>
 7    1  0.5107591E-006  0.1300655E+03  0.7546771E-02  0.1241219E+00
          1   -1    0    0  501    0  0.00000000000E+00  0.00000000000E+00  0.63094400931E+03  0.63094400931E+03  0.00000000000E+00 0. -1.
         -1   -1    0    0    0  501 -0.00000000000E+00 -0.00000000000E+00 -0.20614133073E+02  0.20614133073E+02  0.00000000000E+00 0.  1.
         23    2    1    2    0    0  0.35928116581E+02  0.11761265260E+01  0.25106485052E+03  0.26947387901E+03  0.91051630798E+02 0.  0.
          5    1    1    2  502    0 -0.16835756445E+02 -0.52620097813E+02  0.28079095553E+03  0.28621315151E+03  0.47000000000E+01 0. -1.
         -5    1    1    2    0  502 -0.19092360136E+02  0.51443971287E+02  0.78474070197E+02  0.95871111867E+02  0.47000000000E+01 0. -1.
        -11    1    3    3    0    0  0.34015648215E+01 -0.40873574415E+02  0.74067757270E+02  0.84665532513E+02  0.00000000000E+00 0.  1.
         11    1    3    3    0    0  0.32526551759E+02  0.42049700941E+02  0.17699709325E+03  0.18480834650E+03  0.00000000000E+00 0. -1.
<mgrwt>
<rscale>  0 0.12114542E+03</rscale>
<asrwt>0</asrwt>
<pdfrwt beam="1">  1        1 0.97068294E-01 0.13006547E+03</pdfrwt>
<pdfrwt beam="2">  1       -1 0.31714056E-02 0.13006547E+03</pdfrwt>
<totfact> 0.10834253E+04</totfact>
</mgrwt>
</event>
<event>
 7    1  0.5107591E-006  0.1400695E+03  0.7546771E-02  0.1224432E+00
          2   -1    0    0  501    0  0.00000000000E+00  0.00000000000E+00  0.87062674727E+03  0.87062674727E+03  0.00000000000E+00 0.  1.
         -2   -1    0    0    0  501 -0.00000000000E+00 -0.00000000000E+00 -0.18144141897E+02  0.18144141897E+02  0.00000000000E+00 0. -1.
         23    2    1    2    0    0 -0.24294741311E+01  0.63153961229E+02  0.34536403283E+03  0.36266376712E+03  0.90853550536E+02 0.  0.
          5    1    1    2  502    0  0.55682617956E+02 -0.12871717214E+02  0.13264644715E+03  0.14451091650E+03  0.47000000000E+01 0. -1.
         -5    1    1    2    0  502 -0.53253143825E+02 -0.50282244016E+02  0.37447212540E+03  0.38159620555E+03  0.47000000000E+01 0. -1.
        -11    1    3    3    0    0  0.37409269599E+02  0.56036382472E+02  0.25310028591E+03  0.26191465087E+03  0.00000000000E+00 0.  1.
         11    1    3    3    0    0 -0.39838743730E+02  0.71175787573E+01  0.92263746915E+02  0.10074911624E+03  0.00000000000E+00 0. -1.
<mgrwt>
<rscale>  0 0.13205925E+03</rscale>
<asrwt>0</asrwt>
<pdfrwt beam="1">  1        2 0.13394254E+00 0.14006947E+03</pdfrwt>
<pdfrwt beam="2">  1       -2 0.27914071E-02 0.14006947E+03</pdfrwt>
<totfact> 0.14347087E+04</totfact>
</mgrwt>
</event>
<event>
 7    1  0.5107591E-006  0.1307541E+03  0.7546771E-02  0.1239351E+00
          1   -1    0    0  501    0  0.00000000000E+00  0.00000000000E+00  0.60292358585E+03  0.60292358585E+03  0.00000000000E+00 0. -1.
         -1   -1    0    0    0  501 -0.00000000000E+00 -0.00000000000E+00 -0.22093674263E+02  0.22093674263E+02  0.00000000000E+00 0.  1.
         23    2    1    2    0    0 -0.33948196838E+02 -0.17887966454E+02  0.25067611984E+03  0.26991422754E+03  0.92426802145E+02 0.  0.
          5    1    1    2  502    0  0.57860361098E+02 -0.22818353369E+02  0.27664802547E+03  0.28359252218E+03  0.47000000000E+01 0.  1.
         -5    1    1    2    0  502 -0.23912164260E+02  0.40706319823E+02  0.53505766265E+02  0.71510510393E+02  0.47000000000E+01 0.  1.
        -11    1    3    3    0    0 -0.65848956735E+02 -0.16627547615E+02  0.17892069810E+03  0.19137705361E+03  0.00000000000E+00 0. -1.
         11    1    3    3    0    0  0.31900759897E+02 -0.12604188391E+01  0.71755421749E+02  0.78537173924E+02  0.00000000000E+00 0.  1.
<mgrwt>
<rscale>  0 0.12229926E+03</rscale>
<asrwt>0</asrwt>
<pdfrwt beam="1">  1        1 0.92757462E-01 0.13075411E+03</pdfrwt>
<pdfrwt beam="2">  1       -1 0.33990273E-02 0.13075411E+03</pdfrwt>
<totfact> 0.10425314E+04</totfact>
</mgrwt>
</event>
<event>
 7    1  0.5107591E-006  0.1470151E+03  0.7546771E-02  0.1213955E+00
         -3   -1    0    0    0  501 -0.00000000000E+00  0.00000000000E+00  0.18295070963E+03  0.18295070963E+03  0.00000000000E+00 0.  1.
          3   -1    0    0  501    0  0.00000000000E+00 -0.00000000000E+00 -0.10115313924E+03  0.10115313924E+03  0.00000000000E+00 0. -1.
         23    2    1    2    0    0  0.25575793828E+01  0.77377132826E+02  0.79142793784E+01  0.11956760901E+03  0.90774530619E+02 0.  0.
          5    1    1    2  502    0 -0.41901152877E+02  0.16265608693E+02  0.26096269651E+02  0.52186031926E+02  0.47000000000E+01 0. -1.
         -5    1    1    2    0  502  0.39343573494E+02 -0.93642741518E+02  0.47787021363E+02  0.11235020794E+03  0.47000000000E+01 0. -1.
        -11    1    3    3    0    0 -0.26662012999E+02  0.10061846775E+01  0.24396287528E+02  0.36153204421E+02  0.00000000000E+00 0.  1.
         11    1    3    3    0    0  0.29219592382E+02  0.76370948148E+02 -0.16482008149E+02  0.83414404587E+02  0.00000000000E+00 0. -1.
<mgrwt>
<rscale>  0 0.13953605E+03</rscale>
<asrwt>0</asrwt>
<pdfrwt beam="2">  1        3 0.15562021E-01 0.14701508E+03</pdfrwt>
<pdfrwt beam="1">  1       -3 0.28146263E-01 0.14701508E+03</pdfrwt>
<totfact> 0.98302115E+02</totfact>
</mgrwt>
</event>
<event>
 7    1  0.5107591E-006  0.2195953E+03  0.7546771E-02  0.1137496E+00
          2   -1    0    0  501    0  0.00000000000E+00  0.00000000000E+00  0.95653142820E+03  0.95653142820E+03  0.00000000000E+00 0. -1.
         -2   -1    0    0    0  501 -0.00000000000E+00 -0.00000000000E+00 -0.65472008046E+02  0.65472008046E+02  0.00000000000E+00 0.  1.
         23    2    1    2    0    0 -0.74151940513E+00 -0.18054657662E+03  0.70703330958E+03  0.73549395415E+03  0.91965425804E+02 0.  0.
          5    1    1    2  502    0  0.34310612925E+02  0.68861371501E+02  0.14362154948E+03  0.16299799422E+03  0.47000000000E+01 0.  1.
         -5    1    1    2    0  502 -0.33569093520E+02  0.11168520512E+03  0.40404561100E+02  0.12351148789E+03  0.47000000000E+01 0.  1.
        -11    1    3    3    0    0 -0.29425691130E+02 -0.50477694058E+02  0.11907337160E+03  0.13263610640E+03  0.00000000000E+00 0.  1.
         11    1    3    3    0    0  0.28684171725E+02 -0.13006888257E+03  0.58795993798E+03  0.60285784775E+03  0.00000000000E+00 0. -1.
<mgrwt>
<rscale>  0 0.21522281E+03</rscale>
<asrwt>0</asrwt>
<pdfrwt beam="1">  1        2 0.14715867E+00 0.21959525E+03</pdfrwt>
<pdfrwt beam="2">  1       -2 0.10072617E-01 0.21959525E+03</pdfrwt>
<totfact> 0.18300783E+03</totfact>
</mgrwt>
</event>
<event>
 7    1  0.5107591E-006  0.1264948E+03  0.7546771E-02  0.1251962E+00
          1   -1    0    0  501    0  0.00000000000E+00  0.00000000000E+00  0.20941469614E+03  0.20941469614E+03  0.00000000000E+00 0. -1.
         -1   -1    0    0    0  501 -0.00000000000E+00 -0.00000000000E+00 -0.56796906677E+02  0.56796906677E+02  0.00000000000E+00 0.  1.
         23    2    1    2    0    0  0.18118838864E+02  0.71718143013E+01  0.92563991702E+02  0.12618522929E+03  0.83515820596E+02 0.  0.
          5    1    1    2  502    0 -0.36638228663E+02 -0.44097650316E+02  0.76156878675E+02  0.95440676509E+02  0.47000000000E+01 0.  1.
         -5    1    1    2    0  502  0.18519389799E+02  0.36925836015E+02 -0.16103080909E+02  0.44585697020E+02  0.47000000000E+01 0.  1.
        -11    1    3    3    0    0 -0.20185204873E+02  0.29686803897E+02  0.19987267465E+02  0.41088193951E+02  0.00000000000E+00 0. -1.
         11    1    3    3    0    0  0.38304043736E+02 -0.22514989596E+02  0.72576724237E+02  0.85097035342E+02  0.00000000000E+00 0.  1.
<mgrwt>
<rscale>  0 0.11478218E+03</rscale>
<asrwt>0</asrwt>
<pdfrwt beam="1">  1        1 0.32217645E-01 0.12649477E+03</pdfrwt>
<pdfrwt beam="2">  1       -1 0.87379857E-02 0.12649477E+03</pdfrwt>
<totfact> 0.97502802E+03</totfact>
</mgrwt>
</event>
<event>
 7    1  0.5107591E-006  0.1668025E+03  0.7546771E-02  0.1187268E+00
          1   -1    0    0  501    0  0.00000000000E+00  0.00000000000E+00  0.80047030550E+03  0.80047030550E+03  0.00000000000E+00 0. -1.
         -1   -1    0    0    0  501 -0.00000000000E+00 -0.00000000000E+00 -0.75037348389E+02  0.75037348389E+02  0.00000000000E+00 0.  1.
         23    2    1    2    0    0 -0.10529992065E+03  0.33294775524E+02  0.68968373212E+03  0.70491730899E+03  0.95121747242E+02 0.  0.
          5    1    1    2  502    0  0.55810006379E+02 -0.58354976106E+02 -0.28333373654E+02  0.85702567704E+02  0.47000000000E+01 0.  1.
         -5    1    1    2    0  502  0.49489914272E+02  0.25060200582E+02  0.64082598647E+02  0.84887777195E+02  0.47000000000E+01 0.  1.
        -11    1    3    3    0    0 -0.18621739154E+02  0.53560287865E+02  0.27594478004E+03  0.28171083621E+03  0.00000000000E+00 0. -1.
         11    1    3    3    0    0 -0.86678181497E+02 -0.20265512341E+02  0.41373895207E+03  0.42320647278E+03  0.00000000000E+00 0.  1.
<mgrwt>
<rscale>  0 0.16127175E+03</rscale>
<asrwt>0</asrwt>
<pdfrwt beam="1">  1        1 0.12314927E+00 0.16680245E+03</pdfrwt>
<pdfrwt beam="2">  1       -1 0.11544208E-01 0.16680245E+03</pdfrwt>
<totfact> 0.11220401E+03</totfact>
</mgrwt>
</event>
<event>
 7    1  0.5107591E-006  0.1313412E+03  0.7546771E-02  0.1240579E+00
         -2   -1    0    0    0  501 -0.00000000000E+00  0.00000000000E+00  0.10981868983E+03  0.10981868983E+03  0.00000000000E+00 0. -1.
          2   -1    0    0  501    0  0.00000000000E+00 -0.00000000000E+00 -0.13754520783E+03  0.13754520783E+03  0.00000000000E+00 0.  1.
         23    2    1    2    0    0  0.30443233940E+02 -0.26446498232E+02 -0.58208060584E+02  0.11253205090E+03  0.87458998405E+02 0.  0.
          5    1    1    2  502    0 -0.50677641723E+02  0.52390547217E+02 -0.18770415256E+02  0.75414927549E+02  0.47000000000E+01 0.  1.
         -5    1    1    2    0  502  0.20234407782E+02 -0.25944048986E+02  0.49251957842E+02  0.59416919201E+02  0.47000000000E+01 0.  1.
        -11    1    3    3    0    0 -0.16023293216E+01 -0.42951260934E+02 -0.62899180151E+02  0.76181921338E+02  0.00000000000E+00 0.  1.
         11    1    3    3    0    0  0.32045563262E+02  0.16504762702E+02  0.46911195670E+01  0.36350129566E+02  0.00000000000E+00 0. -1.
<mgrwt>
<rscale>  0 0.12153925E+03</rscale>
<asrwt>0</asrwt>
<pdfrwt beam="2">  1        2 0.21160801E-01 0.13134117E+03</pdfrwt>
<pdfrwt beam="1">  1       -2 0.16895183E-01 0.13134117E+03</pdfrwt>
<totfact> 0.68986291E+03</totfact>
</mgrwt>
</event>
<event>
 7    1  0.5107591E-006  0.1344359E+03  0.7546771E-02  0.1234336E+00
         -3   -1    0    0    0  501 -0.00000000000E+00  0.00000000000E+00  0.59046094505E+02  0.59046094505E+02  0.00000000000E+00 0.  1.
          3   -1    0    0  501    0  0.00000000000E+00 -0.00000000000E+00 -0.24479857673E+03  0.24479857673E+03  0.00000000000E+00 0. -1.
         23    2    1    2    0    0 -0.45438306722E+02  0.19543449148E+02 -0.10794382811E+03  0.14851537066E+03  0.89209636107E+02 0.  0.
          5    1    1    2  502    0 -0.48199058720E+01  0.23380076829E+01 -0.96849502564E+02  0.97111348046E+02  0.47000000000E+01 0.  1.
         -5    1    1    2    0  502  0.50258212594E+02 -0.21881456831E+02  0.19040848451E+02  0.58217952522E+02  0.47000000000E+01 0.  1.
        -11    1    3    3    0    0 -0.17858312700E+02 -0.10254600048E+02  0.10635443398E+02  0.23177333990E+02  0.00000000000E+00 0.  1.
         11    1    3    3    0    0 -0.27579994022E+02  0.29798049196E+02 -0.11857927151E+03  0.12533803667E+03  0.00000000000E+00 0. -1.
<mgrwt>
<rscale>  0 0.12547042E+03</rscale>
<asrwt>0</asrwt>
<pdfrwt beam="2">  1        3 0.37661320E-01 0.13443588E+03</pdfrwt>
<pdfrwt beam="1">  1       -3 0.90840144E-02 0.13443588E+03</pdfrwt>
<totfact> 0.13869349E+03</totfact>
</mgrwt>
</event>
<event>
 7    1  0.5107591E-006  0.1293166E+03  0.7546771E-02  0.1242545E+00
         -4   -1    0    0    0  501 -0.00000000000E+00  0.00000000000E+00  0.48699313609E+03  0.48699313609E+03  0.00000000000E+00 0. -1.
          4   -1    0    0  501    0  0.00000000000E+00 -0.00000000000E+00 -0.32488564814E+02  0.32488564814E+02  0.00000000000E+00 0.  1.
         23    2    1    2    0    0 -0.33140726077E+02 -0.18987979491E+00  0.88406203796E+02  0.13121528745E+03  0.91123273712E+02 0.  0.
          5    1    1    2  502    0  0.57710748293E+02 -0.32135080571E+02  0.31946161932E+03  0.32625298480E+03  0.47000000000E+01 0. -1.
         -5    1    1    2    0  502 -0.24570022217E+02  0.32324960366E+02  0.46636748159E+02  0.62013428652E+02  0.47000000000E+01 0. -1.
        -11    1    3    3    0    0 -0.51041555023E+02  0.28943263702E+02  0.73142609179E+02  0.93769899916E+02  0.00000000000E+00 0. -1.
         11    1    3    3    0    0  0.17900828946E+02 -0.29133143497E+02  0.15263594617E+02  0.37445387534E+02  0.00000000000E+00 0.  1.
<mgrwt>
<rscale>  0 0.12033505E+03</rscale>
<asrwt>0</asrwt>
<pdfrwt beam="2">  1        4 0.49982411E-02 0.12931664E+03</pdfrwt>
<pdfrwt beam="1">  1       -4 0.74922016E-01 0.12931664E+03</pdfrwt>
<totfact> 0.64477853E+02</totfact>
</mgrwt>
</event>
<event>
 7    1  0.5107591E-006  0.1318364E+03  0.7546771E-02  0.1237479E+00
          2   -1    0    0  501    0  0.00000000000E+00  0.00000000000E+00  0.64993455121E+02  0.64993455121E+02  0.00000000000E+00 0. -1.
         -2   -1    0    0    0  501 -0.00000000000E+00 -0.00000000000E+00 -0.21845485405E+03  0.21845485405E+03  0.00000000000E+00 0.  1.
         23    2    1    2    0    0 -0.19967985147E+02 -0.36847699490E+02 -0.38366012309E+02  0.10844033469E+03  0.92362773338E+02 0.  0.
          5    1    1    2  502    0 -0.37738167004E+02  0.53636243403E+02 -0.85484811338E+02  0.10784599587E+03  0.47000000000E+01 0. -1.
         -5    1    1    2    0  502  0.57706152151E+02 -0.16788543913E+02 -0.29610575281E+02  0.67161978613E+02  0.47000000000E+01 0. -1.
        -11    1    3    3    0    0  0.87214348377E+01 -0.16141520783E+02  0.27858307602E+02  0.33357119499E+02  0.00000000000E+00 0. -1.
         11    1    3    3    0    0 -0.28689419984E+02 -0.20706178706E+02 -0.66224319911E+02  0.75083215190E+02  0.00000000000E+00 0.  1.
<mgrwt>
<rscale>  0 0.12347088E+03</rscale>
<asrwt>0</asrwt>
<pdfrwt beam="1">  1        2 0.99989932E-02 0.13183643E+03</pdfrwt>
<pdfrwt beam="2">  1       -2 0.33608439E-01 0.13183643E+03</pdfrwt>
<totfact> 0.50401880E+03</totfact>
</mgrwt>
</event>
<event>
 7    1  0.5107591E-006  0.1359066E+03  0.7546771E-02  0.1231544E+00
          2   -1    0    0  501    0  0.00000000000E+00  0.00000000000E+00  0.32848755746E+03  0.32848755746E+03  0.00000000000E+00 0. -1.
         -2   -1    0    0    0  501 -0.00000000000E+00 -0.00000000000E+00 -0.54889503744E+02  0.54889503744E+02  0.00000000000E+00 0.  1.
         23    2    1    2    0    0  0.51779514441E+02 -0.12804385227E+02  0.20726813082E+03  0.23214786841E+03  0.89930441782E+02 0.  0.
          5    1    1    2  502    0 -0.51336771199E+02 -0.97982810597E+01 -0.24210917365E+02  0.57790387682E+02  0.47000000000E+01 0.  1.
         -5    1    1    2    0  502 -0.44274324234E+00  0.22602666286E+02  0.90540840264E+02  0.93438805110E+02  0.47000000000E+01 0.  1.
        -11    1    3    3    0    0  0.60533023839E+02 -0.19303985216E+02  0.21120600936E+03  0.22055581880E+03  0.00000000000E+00 0. -1.
         11    1    3    3    0    0 -0.87535093983E+01  0.64995999897E+01 -0.39378785358E+01  0.11592049611E+02  0.00000000000E+00 0.  1.
<mgrwt>
<rscale>  0 0.12728308E+03</rscale>
<asrwt>0</asrwt>
<pdfrwt beam="1">  1        2 0.50536546E-01 0.13590662E+03</pdfrwt>
<pdfrwt beam="2">  1       -2 0.84445393E-02 0.13590662E+03</pdfrwt>
<totfact> 0.81762226E+03</totfact>
</mgrwt>
</event>
<event>
 7    1  0.5107591E-006  0.1304524E+03  0.7546771E-02  0.1240791E+00
         -1   -1    0    0    0  501 -0.00000000000E+00  0.00000000000E+00  0.25753140970E+02  0.25753140970E+02  0.00000000000E+00 0.  1.
          1   -1    0    0  501    0  0.00000000000E+00 -0.00000000000E+00 -0.50615732324E+03  0.50615732324E+03  0.00000000000E+00 0. -1.
         23    2    1    2    0    0  0.28990155535E+02 -0.23509294662E+02 -0.20957683835E+03  0.23130228304E+03  0.90471978617E+02 0.  0.
          5    1    1    2  502    0  0.87354200532E+01  0.69537668761E+02 -0.13305204481E+03  0.15045508157E+03  0.47000000000E+01 0.  1.
         -5    1    1    2    0  502 -0.37725575588E+02 -0.46028374099E+02 -0.13777529911E+03  0.15015309960E+03  0.47000000000E+01 0.  1.
        -11    1    3    3    0    0  0.24310214435E+02 -0.58078165892E+02 -0.13728416867E+03  0.15103311837E+03  0.00000000000E+00 0. -1.
         11    1    3    3    0    0  0.46799410998E+01  0.34568871230E+02 -0.72292669682E+02  0.80269164669E+02  0.00000000000E+00 0.  1.
<mgrwt>
<rscale>  0 0.12140878E+03</rscale>
<asrwt>0</asrwt>
<pdfrwt beam="2">  1        1 0.77870360E-01 0.13045240E+03</pdfrwt>
<pdfrwt beam="1">  1       -1 0.39620216E-02 0.13045240E+03</pdfrwt>
<totfact> 0.10514988E+04</totfact>
</mgrwt>
</event>
<event>
 7    1  0.5107591E-006  0.1491209E+03  0.7546771E-02  0.1208267E+00
          3   -1    0    0  501    0  0.00000000000E+00  0.00000000000E+00  0.25908269329E+03  0.25908269329E+03  0.00000000000E+00 0. -1.
         -3   -1    0    0    0  501 -0.00000000000E+00 -0.00000000000E+00 -0.74676815154E+02  0.74676815154E+02  0.00000000000E+00 0.  1.
         23    2    1    2    0    0  0.40748098264E+02 -0.70364576849E+02  0.83834012957E+02  0.15389357634E+03  0.10021731349E+03 0.  0.
          5    1    1    2  502    0  0.11015893853E+02  0.37580233328E+02  0.11076111990E+03  0.11757440000E+03  0.47000000000E+01 0.  1.
         -5    1    1    2    0  502 -0.51763992117E+02  0.32784343521E+02 -0.10189254719E+02  0.62291532103E+02  0.47000000000E+01 0.  1.
        -11    1    3    3    0    0  0.54825610978E+02 -0.13875851050E+02  0.76620769643E+02  0.95231975734E+02  0.00000000000E+00 0. -1.
         11    1    3    3    0    0 -0.14077512715E+02 -0.56488725799E+02  0.72132433139E+01  0.58661600607E+02  0.00000000000E+00 0.  1.
<mgrwt>
<rscale>  0 0.14382929E+03</rscale>
<asrwt>0</asrwt>
<pdfrwt beam="1">  1        3 0.39858876E-01 0.14912094E+03</pdfrwt>
<pdfrwt beam="2">  1       -3 0.11488741E-01 0.14912094E+03</pdfrwt>
<totfact> 0.85671294E+02</totfact>
</mgrwt>
</event>
<event>
 7    1  0.5107591E-006  0.1863449E+03  0.7546771E-02  0.1167029E+00
         -2   -1    0    0    0  501 -0.00000000000E+00  0.00000000000E+00  0.98288427411E+03  0.98288427411E+03  0.00000000000E+00 0.  1.
          2   -1    0    0  501    0  0.00000000000E+00 -0.00000000000E+00 -0.35202762346E+02  0.35202762346E+02  0.00000000000E+00 0. -1.
         23    2    1    2    0    0 -0.10197798431E+03  0.93270129122E+02  0.28180957277E+03  0.32663214461E+03  0.90405178616E+02 0.  0.
          5    1    1    2  502    0  0.71592794626E+02 -0.11727889083E+03  0.59374235773E+03  0.60945216698E+03  0.47000000000E+01 0.  1.
         -5    1    1    2    0  502  0.30385189688E+02  0.24008761703E+02  0.72129581276E+02  0.82002724869E+02  0.47000000000E+01 0.  1.
        -11    1    3    3    0    0 -0.41765063769E+02  0.34285821636E+02  0.20698664153E+03  0.21392360293E+03  0.00000000000E+00 0.  1.
         11    1    3    3    0    0 -0.60212920544E+02  0.58984307486E+02  0.74822931232E+02  0.11270854168E+03  0.00000000000E+00 0. -1.
<mgrwt>
<rscale>  0 0.18080175E+03</rscale>
<asrwt>0</asrwt>
<pdfrwt beam="2">  1        2 0.54158103E-02 0.18634492E+03</pdfrwt>
<pdfrwt beam="1">  1       -2 0.15121294E+00 0.18634492E+03</pdfrwt>
<totfact> 0.43528348E+02</totfact>
</mgrwt>
</event>
<event>
 7    1  0.5107591E-006  0.1263570E+03  0.7546771E-02  0.1247696E+00
          3   -1    0    0  501    0  0.00000000000E+00  0.00000000000E+00  0.85706776103E+02  0.85706776103E+02  0.00000000000E+00 0. -1.
         -3   -1    0    0    0  501 -0.00000000000E+00 -0.00000000000E+00 -0.14125002893E+03  0.14125002893E+03  0.00000000000E+00 0.  1.
         23    2    1    2    0    0  0.15752012970E+02  0.95043317230E+01 -0.23219356562E+02  0.96530822799E+02  0.91872754378E+02 0.  0.
          5    1    1    2  502    0 -0.39202726735E+02  0.44301062356E+02  0.68008880714E+01  0.59730896426E+02  0.47000000000E+01 0. -1.
         -5    1    1    2    0  502  0.23450713765E+02 -0.53805394079E+02 -0.39124784342E+02  0.70695085812E+02  0.47000000000E+01 0. -1.
        -11    1    3    3    0    0  0.48604347635E+02  0.18867583298E+02  0.47870066075E+01  0.52357270181E+02  0.00000000000E+00 0.  1.
         11    1    3    3    0    0 -0.32852334665E+02 -0.93632515748E+01 -0.28006363169E+02  0.44173552619E+02  0.00000000000E+00 0. -1.
<mgrwt>
<rscale>  0 0.11725479E+03</rscale>
<asrwt>0</asrwt>
<pdfrwt beam="1">  1        3 0.13185658E-01 0.12635704E+03</pdfrwt>
<pdfrwt beam="2">  1       -3 0.21730773E-01 0.12635704E+03</pdfrwt>
<totfact> 0.20278687E+03</totfact>
</mgrwt>
</event>
<event>
 7    1  0.5107591E-006  0.1564224E+03  0.7546771E-02  0.1201615E+00
         -2   -1    0    0    0  501 -0.00000000000E+00  0.00000000000E+00  0.25898657124E+02  0.25898657124E+02  0.00000000000E+00 0.  1.
          2   -1    0    0  501    0  0.00000000000E+00 -0.00000000000E+00 -0.81154322760E+03  0.81154322760E+03  0.00000000000E+00 0. -1.
         23    2    1    2    0    0  0.74035562297E+02 -0.57974667920E+02 -0.42938552085E+03  0.44835517452E+03  0.88363512789E+02 0.  0.
          5    1    1    2  502    0 -0.67741885290E+02 -0.17801807844E+02 -0.10322718944E+03  0.12483513138E+03  0.47000000000E+01 0.  1.
         -5    1    1    2    0  502 -0.62936770072E+01  0.75776475764E+02 -0.25303186018E+03  0.26425157883E+03  0.47000000000E+01 0.  1.
        -11    1    3    3    0    0 -0.20584132605E+01 -0.50262140011E+02 -0.13109324448E+03  0.14041352688E+03  0.00000000000E+00 0.  1.
         11    1    3    3    0    0  0.76093975558E+02 -0.77125279089E+01 -0.29829227637E+03  0.30794164763E+03  0.00000000000E+00 0. -1.
<mgrwt>
<rscale>  0 0.14907415E+03</rscale>
<asrwt>0</asrwt>
<pdfrwt beam="2">  1        2 0.12485279E+00 0.15642237E+03</pdfrwt>
<pdfrwt beam="1">  1       -2 0.39844093E-02 0.15642237E+03</pdfrwt>
<totfact> 0.93332601E+03</totfact>
</mgrwt>
</event>
<event>
 7    1  0.5107591E-006  0.1343819E+03  0.7546771E-02  0.1239300E+00
          3   -1    0    0  501    0  0.00000000000E+00  0.00000000000E+00  0.17946028387E+03  0.17946028387E+03  0.00000000000E+00 0. -1.
         -3   -1    0    0    0  501 -0.00000000000E+00 -0.00000000000E+00 -0.78437569521E+02  0.78437569521E+02  0.00000000000E+00 0.  1.
         23    2    1    2    0    0 -0.11007937280E+02  0.21625324427E+01  0.79494841860E+02  0.12180247571E+03  0.91600010796E+02 0.  0.
          5    1    1    2  502    0  0.66949049224E+02  0.16972776266E+02  0.31320865025E+02  0.75982477665E+02  0.47000000000E+01 0. -1.
         -5    1    1    2    0  502 -0.55941111944E+02 -0.19135308709E+02 -0.97929925374E+01  0.60112900011E+02  0.47000000000E+01 0.  1.
        -11    1    3    3    0    0 -0.38679120769E+02  0.32770534211E+02  0.38696331899E+02  0.63776080142E+02  0.00000000000E+00 0.  1.
         11    1    3    3    0    0  0.27671183489E+02 -0.30608001768E+02  0.40798509961E+02  0.58026395571E+02  0.00000000000E+00 0. -1.
<mgrwt>
<rscale>  0 0.12233134E+03</rscale>
<asrwt>0</asrwt>
<pdfrwt beam="1">  1        3 0.27609274E-01 0.13438193E+03</pdfrwt>
<pdfrwt beam="2">  1       -3 0.12067318E-01 0.13438193E+03</pdfrwt>
<totfact> 0.15461987E+03</totfact>
</mgrwt>
</event>
<event>
 7    1  0.5107591E-006  0.1271193E+03  0.7546771E-02  0.1244534E+00
          2   -1    0    0  501    0  0.00000000000E+00  0.00000000000E+00  0.80136058761E+02  0.80136058761E+02  0.00000000000E+00 0. -1.
         -2   -1    0    0    0  501 -0.00000000000E+00 -0.00000000000E+00 -0.15832582680E+03  0.15832582680E+03  0.00000000000E+00 0.  1.
         23    2    1    2    0    0  0.18284127250E+02  0.14179512242E+02 -0.37553628176E+02  0.10500549037E+03  0.95291710773E+02 0.  0.
          5    1    1    2  502    0 -0.60171195041E+02  0.47098372568E+01  0.13773747080E+02  0.62085114063E+02  0.47000000000E+01 0.  1.
         -5    1    1    2    0  502  0.41887067791E+02 -0.18889349499E+02 -0.54409886942E+02  0.71371281127E+02  0.47000000000E+01 0.  1.
        -11    1    3    3    0    0 -0.27044631405E+02 -0.20246018427E+02  0.47112644878E+01  0.34110253049E+02  0.00000000000E+00 0. -1.
         11    1    3    3    0    0  0.45328758654E+02  0.34425530669E+02 -0.42264892663E+02  0.70895237321E+02  0.00000000000E+00 0.  1.
<mgrwt>
<rscale>  0 0.11913304E+03</rscale>
<asrwt>0</asrwt>
<pdfrwt beam="1">  1        2 0.12328624E-01 0.12711929E+03</pdfrwt>
<pdfrwt beam="2">  1       -2 0.24357820E-01 0.12711929E+03</pdfrwt>
<totfact> 0.69242056E+03</totfact>
</mgrwt>
</event>
<event>
 7    1  0.5107591E-006  0.1303334E+03  0.7546771E-02  0.1240664E+00
          1   -1    0    0  501    0  0.00000000000E+00  0.00000000000E+00  0.30202264898E+02  0.30202264898E+02  0.00000000000E+00 0. -1.
         -1   -1    0    0    0  501 -0.00000000000E+00 -0.00000000000E+00 -0.55700603967E+03  0.55700603967E+03  0.00000000000E+00 0.  1.
         23    2    1    2    0    0  0.24065239746E+02  0.27948259458E+02 -0.97342512684E+02  0.13840572073E+03  0.91215885597E+02 0.  0.
          5    1    1    2  502    0 -0.55468043353E+02  0.25818619383E+02 -0.28316527076E+03  0.28973775299E+03  0.47000000000E+01 0.  1.
         -5    1    1    2    0  502  0.31402803607E+02 -0.53766878841E+02 -0.14629599132E+03  0.15906483085E+03  0.47000000000E+01 0.  1.
        -11    1    3    3    0    0  0.88034773474E+01  0.77942573803E+01  0.17350673573E+02  0.20959425921E+02  0.00000000000E+00 0. -1.
         11    1    3    3    0    0  0.15261762399E+02  0.20154002078E+02 -0.11469318626E+03  0.11744629481E+03  0.00000000000E+00 0.  1.
<mgrwt>
<rscale>  0 0.12148687E+03</rscale>
<asrwt>0</asrwt>
<pdfrwt beam="1">  1        1 0.46465026E-02 0.13033336E+03</pdfrwt>
<pdfrwt beam="2">  1       -1 0.85693231E-01 0.13033336E+03</pdfrwt>
<totfact> 0.25109347E+03</totfact>
</mgrwt>
</event>
<event>
 7    1  0.5107591E-006  0.1405702E+03  0.7546771E-02  0.1223261E+00
         -1   -1    0    0    0  501 -0.00000000000E+00  0.00000000000E+00  0.12932475229E+04  0.12932475229E+04  0.00000000000E+00 0.  1.
          1   -1    0    0  501    0  0.00000000000E+00 -0.00000000000E+00 -0.18208558351E+02  0.18208558351E+02  0.00000000000E+00 0. -1.
         23    2    1    2    0    0  0.35772071693E+02 -0.53414267562E+02  0.21867828980E+03  0.24578359349E+03  0.91960074520E+02 0.  0.
          5    1    1    2  502    0  0.31586006454E+02  0.55694652666E+02  0.70195737848E+03  0.70488709829E+03  0.47000000000E+01 0. -1.
         -5    1    1    2    0  502 -0.67358078147E+02 -0.22803851044E+01  0.35440329629E+03  0.36078538949E+03  0.47000000000E+01 0. -1.
        -11    1    3    3    0    0  0.31708716315E+02 -0.71103908314E+02  0.21297419961E+03  0.22675806086E+03  0.00000000000E+00 0.  1.
         11    1    3    3    0    0  0.40633553786E+01  0.17689640752E+02  0.57040901968E+01  0.19025532629E+02  0.00000000000E+00 0. -1.
<mgrwt>
<rscale>  0 0.13286802E+03</rscale>
<asrwt>0</asrwt>
<pdfrwt beam="2">  1        1 0.28013177E-02 0.14057018E+03</pdfrwt>
<pdfrwt beam="1">  1       -1 0.19896109E+00 0.14057018E+03</pdfrwt>
<totfact> 0.63054394E+02</totfact>
</mgrwt>
</event>
<event>
 7    1  0.5107591E-006  0.1315399E+03  0.7546771E-02  0.1239878E+00
          1   -1    0    0  501    0  0.00000000000E+00  0.00000000000E+00  0.19268403865E+03  0.19268403865E+03  0.00000000000E+00 0. -1.
         -1   -1    0    0    0  501 -0.00000000000E+00 -0.00000000000E+00 -0.70811456779E+02  0.70811456779E+02  0.00000000000E+00 0.  1.
         23    2    1    2    0    0  0.14225559631E+02  0.25907339118E+02  0.78538046483E+02  0.12500139996E+03  0.92647549783E+02 0.  0.
          5    1    1    2  502    0  0.17393574923E+01 -0.68121769592E+02  0.59234563172E+02  0.90412523087E+02  0.47000000000E+01 0. -1.
         -5    1    1    2    0  502 -0.15964917123E+02  0.42214430475E+02 -0.15900027782E+02  0.48081572380E+02  0.47000000000E+01 0.  1.
        -11    1    3    3    0    0  0.51545882958E+02  0.36578097458E+01  0.55459610699E+02  0.75803206007E+02  0.00000000000E+00 0. -1.
         11    1    3    3    0    0 -0.37320323327E+02  0.22249529372E+02  0.23078435784E+02  0.49198193958E+02  0.00000000000E+00 0.  1.
<mgrwt>
<rscale>  0 0.12197277E+03</rscale>
<asrwt>0</asrwt>
<pdfrwt beam="1">  1        1 0.29643698E-01 0.13153985E+03</pdfrwt>
<pdfrwt beam="2">  1       -1 0.10894070E-01 0.13153985E+03</pdfrwt>
<totfact> 0.77516093E+03</totfact>
</mgrwt>
</event>
<event>
 7    1  0.5107591E-006  0.1169870E+03  0.7546771E-02  0.1260271E+00
         -4   -1    0    0    0  501 -0.00000000000E+00  0.00000000000E+00  0.42933218037E+02  0.42933218037E+02  0.00000000000E+00 0.  1.
          4   -1    0    0  501    0  0.00000000000E+00 -0.00000000000E+00 -0.26392768099E+03  0.26392768099E+03  0.00000000000E+00 0. -1.
         23    2    1    2    0    0  0.20685123231E+02  0.90976644864E+01 -0.12688710506E+03  0.15672043593E+03  0.89164543321E+02 0.  0.
          5    1    1    2  502    0  0.31157932403E+02 -0.43124203840E+02 -0.55058040997E+02  0.76707180804E+02  0.47000000000E+01 0. -1.
         -5    1    1    2    0  502 -0.51843055634E+02  0.34026539353E+02 -0.39049316891E+02  0.73433282287E+02  0.47000000000E+01 0.  1.
        -11    1    3    3    0    0  0.29073258078E+02  0.23211364507E+02 -0.13382258592E+03  0.13889746679E+03  0.00000000000E+00 0. -1.
         11    1    3    3    0    0 -0.83881348475E+01 -0.14113700021E+02  0.69354808564E+01  0.17822969147E+02  0.00000000000E+00 0.  1.
<mgrwt>
<rscale>  0 0.11016172E+03</rscale>
<asrwt>0</asrwt>
<pdfrwt beam="2">  1        4 0.40604258E-01 0.11698702E+03</pdfrwt>
<pdfrwt beam="1">  1       -4 0.66051106E-02 0.11698702E+03</pdfrwt>
<totfact> 0.14268295E+03</totfact>
</mgrwt>
</event>
<event>
 7    1  0.5107591E-006  0.3048229E+03  0.7546771E-02  0.1084386E+00
         -3   -1    0    0    0  501 -0.00000000000E+00  0.00000000000E+00  0.72185132186E+03  0.72185132186E+03  0.00000000000E+00 0.  1.
          3   -1    0    0  501    0  0.00000000000E+00 -0.00000000000E+00 -0.97165761189E+03  0.97165761189E+03  0.00000000000E+00 0. -1.
         23    2    1    2    0    0  0.16487466862E+03  0.22384861638E+03 -0.91562275320E+03  0.96123265047E+03  0.91166456295E+02 0.  0.
          5    1    1    2  502    0 -0.36581138269E+02 -0.38562330848E+00  0.16463768121E+03  0.16871865474E+03  0.47000000000E+01 0.  1.
         -5    1    1    2    0  502 -0.12829353036E+03 -0.22346299307E+03  0.50117878196E+03  0.56355762855E+03  0.47000000000E+01 0.  1.
        -11    1    3    3    0    0  0.94673010873E+02  0.14177747543E+03 -0.40686871242E+03  0.44114167868E+03  0.00000000000E+00 0.  1.
         11    1    3    3    0    0  0.70201657752E+02  0.82071140950E+02 -0.50875404078E+03  0.52009097179E+03  0.00000000000E+00 0. -1.
<mgrwt>
<rscale>  0 0.30171501E+03</rscale>
<asrwt>0</asrwt>
<pdfrwt beam="2">  1        3 0.14948579E+00 0.30482289E+03</pdfrwt>
<pdfrwt beam="1">  1       -3 0.11105405E+00 0.30482289E+03</pdfrwt>
<totfact> 0.59542934E-01</totfact>
</mgrwt>
</event>
<event>
 7    1  0.5107591E-006  0.1589182E+03  0.7546771E-02  0.1194925E+00
         -2   -1    0    0    0  501 -0.00000000000E+00  0.00000000000E+00  0.43083538189E+02  0.43083538189E+02  0.00000000000E+00 0.  1.
          2   -1    0    0  501    0  0.00000000000E+00 -0.00000000000E+00 -0.53177496051E+03  0.53177496051E+03  0.00000000000E+00 0. -1.
         23    2    1    2    0    0  0.86821624720E+02  0.64262381434E+02 -0.20299394209E+03  0.24793642444E+03  0.92726920873E+02 0.  0.
          5    1    1    2  502    0 -0.71782582477E+02  0.14569577790E+02 -0.17792249514E+03  0.19246692189E+03  0.47000000000E+01 0. -1.
         -5    1    1    2    0  502 -0.15039042243E+02 -0.78831959223E+02 -0.10777498508E+03  0.13445515236E+03  0.47000000000E+01 0.  1.
        -11    1    3    3    0    0  0.10567803373E+02  0.85831957091E+01  0.86891327969E+01  0.16150874449E+02  0.00000000000E+00 0.  1.
         11    1    3    3    0    0  0.76253821346E+02  0.55679185724E+02 -0.21168307489E+03  0.23178555000E+03  0.00000000000E+00 0. -1.
<mgrwt>
<rscale>  0 0.15460589E+03</rscale>
<asrwt>0</asrwt>
<pdfrwt beam="2">  1        2 0.81811527E-01 0.15891819E+03</pdfrwt>
<pdfrwt beam="1">  1       -2 0.66282371E-02 0.15891819E+03</pdfrwt>
<totfact> 0.71250634E+03</totfact>
</mgrwt>
</event>
<event>
 7    1  0.5107591E-006  0.1574854E+03  0.7546771E-02  0.1199570E+00
          1   -1    0    0  501    0  0.00000000000E+00  0.00000000000E+00  0.19102737928E+03  0.19102737928E+03  0.00000000000E+00 0. -1.
         -1   -1    0    0    0  501 -0.00000000000E+00 -0.00000000000E+00 -0.13671455502E+03  0.13671455502E+03  0.00000000000E+00 0.  1.
         23    2    1    2    0    0  0.29454282014E+02 -0.91154591647E+02  0.97726312594E+02  0.16438227286E+03  0.91073515089E+02 0.  0.
          5    1    1    2  502    0 -0.28611460390E+02 -0.21854363173E+02 -0.34193055286E+02  0.49874681805E+02  0.47000000000E+01 0. -1.
         -5    1    1    2    0  502 -0.84282162444E+00  0.11300895482E+03 -0.92204330462E+01  0.11348497964E+03  0.47000000000E+01 0. -1.
        -11    1    3    3    0    0  0.21030661498E+02 -0.16221872161E+02 -0.13664618407E+02  0.29869041760E+02  0.00000000000E+00 0.  1.
         11    1    3    3    0    0  0.84236205161E+01 -0.74932719486E+02  0.11139093100E+03  0.13451323110E+03  0.00000000000E+00 0. -1.
<mgrwt>
<rscale>  0 0.15073713E+03</rscale>
<asrwt>0</asrwt>
<pdfrwt beam="1">  1        1 0.29388828E-01 0.15748539E+03</pdfrwt>
<pdfrwt beam="2">  1       -1 0.21033008E-01 0.15748539E+03</pdfrwt>
<totfact> 0.28142054E+03</totfact>
</mgrwt>
</event>
<event>
 7    1  0.5107591E-006  0.1315077E+03  0.7546771E-02  0.1232258E+00
         -1   -1    0    0    0  501 -0.00000000000E+00  0.00000000000E+00  0.76370861016E+03  0.76370861016E+03  0.00000000000E+00 0.  1.
          1   -1    0    0  501    0  0.00000000000E+00 -0.00000000000E+00 -0.75749404863E+02  0.75749404863E+02  0.00000000000E+00 0. -1.
         23    2    1    2    0    0  0.50467647903E+02  0.63894061488E+01 -0.23349074623E+02  0.11609520911E+03  0.10171091533E+03 0.  0.
          5    1    1    2  502    0  0.26784170437E+02  0.12344456943E+02  0.42902226122E+03  0.43006042369E+03  0.47000000000E+01 0. -1.
         -5    1    1    2    0  502 -0.77251818339E+02 -0.18733863092E+02  0.28228601870E+03  0.29330238222E+03  0.47000000000E+01 0.  1.
        -11    1    3    3    0    0  0.44870233568E+02 -0.31238355211E+02 -0.46319207755E+02  0.71656414254E+02  0.00000000000E+00 0. -1.
         11    1    3    3    0    0  0.55974143348E+01  0.37627761360E+02  0.22970133132E+02  0.44438794857E+02  0.00000000000E+00 0.  1.
<mgrwt>
<rscale>  0 0.12681642E+03</rscale>
<asrwt>0</asrwt>
<pdfrwt beam="2">  1        1 0.11653755E-01 0.13150772E+03</pdfrwt>
<pdfrwt beam="1">  1       -1 0.11749363E+00 0.13150772E+03</pdfrwt>
<totfact> 0.36448329E+02</totfact>
</mgrwt>
</event>
<event>
 7    1  0.5107591E-006  0.1401569E+03  0.7546771E-02  0.1225592E+00
         -2   -1    0    0    0  501 -0.00000000000E+00  0.00000000000E+00  0.48870029240E+02  0.48870029240E+02  0.00000000000E+00 0. -1.
          2   -1    0    0  501    0  0.00000000000E+00 -0.00000000000E+00 -0.31620700715E+03  0.31620700715E+03  0.00000000000E+00 0.  1.
         23    2    1    2    0    0 -0.30389439207E+02 -0.55640138208E+02 -0.12924519722E+03  0.16832005855E+03  0.87223724474E+02 0.  0.
          5    1    1    2  502    0  0.17655628268E+02  0.93055772585E+02 -0.69939020856E+02  0.11783316451E+03  0.47000000000E+01 0.  1.
         -5    1    1    2    0  502  0.12733810939E+02 -0.37415634377E+02 -0.68152759832E+02  0.78923813324E+02  0.47000000000E+01 0.  1.
        -11    1    3    3    0    0 -0.50540193140E+02 -0.71522422733E+01 -0.87247714858E+02  0.10108229044E+03  0.00000000000E+00 0.  1.
         11    1    3    3    0    0  0.20150753933E+02 -0.48487895935E+02 -0.41997482366E+02  0.67237768117E+02  0.00000000000E+00 0. -1.
<mgrwt>
<rscale>  0 0.13126409E+03</rscale>
<asrwt>0</asrwt>
<pdfrwt beam="2">  1        2 0.48647232E-01 0.14015694E+03</pdfrwt>
<pdfrwt beam="1">  1       -2 0.75184660E-02 0.14015694E+03</pdfrwt>
<totfact> 0.10208372E+04</totfact>
</mgrwt>
</event>
<event>
 7    1  0.5107591E-006  0.2505220E+03  0.7546771E-02  0.1115396E+00
         -1   -1    0    0    0  501 -0.00000000000E+00  0.00000000000E+00  0.10874579437E+04  0.10874579437E+04  0.00000000000E+00 0.  1.
          1   -1    0    0  501    0  0.00000000000E+00 -0.00000000000E+00 -0.63731350328E+02  0.63731350328E+02  0.00000000000E+00 0. -1.
         23    2    1    2    0    0 -0.10756255385E+03  0.18859298337E+03  0.27763911819E+03  0.36416463572E+03  0.91626336783E+02 0.  0.
          5    1    1    2  502    0  0.80856891842E+02 -0.39099956563E+02  0.38325432176E+03  0.39366560519E+03  0.47000000000E+01 0.  1.
         -5    1    1    2    0  502  0.26705662012E+02 -0.14949302681E+03  0.36283315346E+03  0.39335905316E+03  0.47000000000E+01 0.  1.
        -11    1    3    3    0    0 -0.35151227013E+02  0.14906856641E+03  0.18018299265E+03  0.23648035244E+03  0.00000000000E+00 0.  1.
         11    1    3    3    0    0 -0.72411326841E+02  0.39524416968E+02  0.97456125544E+02  0.12768428328E+03  0.00000000000E+00 0. -1.
<mgrwt>
<rscale>  0 0.24671909E+03</rscale>
<asrwt>0</asrwt>
<pdfrwt beam="2">  1        1 0.98048239E-02 0.25052204E+03</pdfrwt>
<pdfrwt beam="1">  1       -1 0.16730121E+00 0.25052204E+03</pdfrwt>
<totfact> 0.18605162E+02</totfact>
</mgrwt>
</event>
<event>
 7    1  0.5107591E-006  0.1268257E+03  0.7546771E-02  0.1245672E+00
          2   -1    0    0  501    0  0.00000000000E+00  0.00000000000E+00  0.46902232850E+03  0.46902232850E+03  0.00000000000E+00 0. -1.
         -2   -1    0    0    0  501 -0.00000000000E+00 -0.00000000000E+00 -0.26843082637E+02  0.26843082637E+02  0.00000000000E+00 0.  1.
         23    2    1    2    0    0 -0.21027455588E+02 -0.42746677182E+01  0.16730338397E+03  0.19314192673E+03  0.94090142431E+02 0.  0.
          5    1    1    2  502    0 -0.26759901854E+02 -0.44274971727E+01  0.24273263833E+03  0.24428859734E+03  0.47000000000E+01 0. -1.
         -5    1    1    2    0  502  0.47787357442E+02  0.87021648909E+01  0.32143223562E+02  0.58434887062E+02  0.47000000000E+01 0. -1.
        -11    1    3    3    0    0 -0.44382385751E+02  0.31004733221E+02  0.90609837684E+02  0.10555203613E+03  0.00000000000E+00 0. -1.
         11    1    3    3    0    0  0.23354930164E+02 -0.35279400939E+02  0.76693546284E+02  0.87589890599E+02  0.00000000000E+00 0.  1.
<mgrwt>
<rscale>  0 0.11845243E+03</rscale>
<asrwt>0</asrwt>
<pdfrwt beam="1">  1        2 0.72157275E-01 0.12682574E+03</pdfrwt>
<pdfrwt beam="2">  1       -2 0.41297054E-02 0.12682574E+03</pdfrwt>
<totfact> 0.16429337E+04</totfact>
</mgrwt>
</event>
<event>
 7    1  0.5107591E-006  0.1514740E+03  0.7546771E-02  0.1207756E+00
         -1   -1    0    0    0  501 -0.00000000000E+00  0.00000000000E+00  0.10706399220E+03  0.10706399220E+03  0.00000000000E+00 0.  1.
          1   -1    0    0  501    0  0.00000000000E+00 -0.00000000000E+00 -0.19963006935E+03  0.19963006935E+03  0.00000000000E+00 0. -1.
         23    2    1    2    0    0 -0.18597870774E+02 -0.83510549990E+02 -0.92710830311E+02  0.15521998319E+03  0.90432584660E+02 0.  0.
          5    1    1    2  502    0  0.17701185499E+02 -0.29237168588E+02  0.15059836854E+02  0.37643494540E+02  0.47000000000E+01 0. -1.
         -5    1    1    2    0  502  0.89668527494E+00  0.11274771858E+03 -0.14915083693E+02  0.11383058381E+03  0.47000000000E+01 0. -1.
        -11    1    3    3    0    0  0.30774587195E+02 -0.13873887099E+02 -0.74484547739E+01  0.34569342469E+02  0.00000000000E+00 0.  1.
         11    1    3    3    0    0 -0.49372457969E+02 -0.69636662892E+02 -0.85262375537E+02  0.12065064072E+03  0.00000000000E+00 0. -1.
<mgrwt>
<rscale>  0 0.14422411E+03</rscale>
<asrwt>0</asrwt>
<pdfrwt beam="2">  1        1 0.30712318E-01 0.15147401E+03</pdfrwt>
<pdfrwt beam="1">  1       -1 0.16471384E-01 0.15147401E+03</pdfrwt>
<totfact> 0.39316921E+03</totfact>
</mgrwt>
</event>
<event>
 7    1  0.5107591E-006  0.1321307E+03  0.7546771E-02  0.1238189E+00
         -2   -1    0    0    0  501 -0.00000000000E+00  0.00000000000E+00  0.30351887352E+03  0.30351887352E+03  0.00000000000E+00 0.  1.
          2   -1    0    0  501    0  0.00000000000E+00 -0.00000000000E+00 -0.59889646351E+02  0.59889646351E+02  0.00000000000E+00 0. -1.
         23    2    1    2    0    0 -0.20285426780E+02 -0.37964779539E+02  0.16529413007E+02  0.10066751548E+03  0.89486893749E+02 0.  0.
          5    1    1    2  502    0  0.17365549737E+02  0.83355532096E+01  0.23144080203E+03  0.23228856754E+03  0.47000000000E+01 0. -1.
         -5    1    1    2    0  502  0.29198770429E+01  0.29629226330E+02 -0.43409878671E+01  0.30452436857E+02  0.47000000000E+01 0. -1.
        -11    1    3    3    0    0 -0.18771436250E+02 -0.28189574896E+01  0.49152589072E+02  0.52690514826E+02  0.00000000000E+00 0.  1.
         11    1    3    3    0    0 -0.15139905302E+01 -0.35145822050E+02 -0.32623176064E+02  0.47977000651E+02  0.00000000000E+00 0. -1.
<mgrwt>
<rscale>  0 0.12302441E+03</rscale>
<asrwt>0</asrwt>
<pdfrwt beam="2">  1        2 0.92137919E-02 0.13213065E+03</pdfrwt>
<pdfrwt beam="1">  1       -2 0.46695210E-01 0.13213065E+03</pdfrwt>
<totfact> 0.29955602E+03</totfact>
</mgrwt>
</event>
<event>
 7    1  0.5107591E-006  0.2141437E+03  0.7546771E-02  0.1141922E+00
         -1   -1    0    0    0  501 -0.00000000000E+00  0.00000000000E+00  0.41266487210E+02  0.41266487210E+02  0.00000000000E+00 0.  1.
          1   -1    0    0  501    0  0.00000000000E+00 -0.00000000000E+00 -0.11327009945E+04  0.11327009945E+04  0.00000000000E+00 0. -1.
         23    2    1    2    0    0 -0.19147262522E+02 -0.17281656920E+03 -0.70869164780E+03  0.73539066802E+03  0.91232662465E+02 0.  0.
          5    1    1    2  502    0  0.69124050990E+02  0.76411662257E+02 -0.21856433708E+03  0.24168023501E+03  0.47000000000E+01 0. -1.
         -5    1    1    2    0  502 -0.49976788468E+02  0.96404906944E+02 -0.16417852237E+03  0.19689657863E+03  0.47000000000E+01 0. -1.
        -11    1    3    3    0    0 -0.10824193230E+02 -0.16246488703E+03 -0.70177176105E+03  0.72041349744E+03  0.00000000000E+00 0. -1.
         11    1    3    3    0    0 -0.83230692921E+01 -0.10351682168E+02 -0.69198867464E+01  0.14977170585E+02  0.00000000000E+00 0.  1.
<mgrwt>
<rscale>  0 0.20955107E+03</rscale>
<asrwt>0</asrwt>
<pdfrwt beam="2">  1        1 0.17426170E+00 0.21414370E+03</pdfrwt>
<pdfrwt beam="1">  1       -1 0.63486902E-02 0.21414370E+03</pdfrwt>
<totfact> 0.15675506E+03</totfact>
</mgrwt>
</event>
<event>
 7    1  0.5107591E-006  0.2773382E+03  0.7546771E-02  0.1099117E+00
          1   -1    0    0  501    0  0.00000000000E+00  0.00000000000E+00  0.34796739780E+03  0.34796739780E+03  0.00000000000E+00 0. -1.
         -1   -1    0    0    0  501 -0.00000000000E+00 -0.00000000000E+00 -0.21347352594E+03  0.21347352594E+03  0.00000000000E+00 0.  1.
         23    2    1    2    0    0 -0.22287469311E+03  0.10780599603E+03  0.10052615644E+03  0.28203032011E+03  0.90223786924E+02 0.  0.
          5    1    1    2  502    0  0.43445920589E+02 -0.65597812138E+02 -0.29863247987E+02  0.84288341741E+02  0.47000000000E+01 0. -1.
         -5    1    1    2    0  502  0.17942877252E+03 -0.42208183891E+02  0.63830963404E+02  0.19512226189E+03  0.47000000000E+01 0. -1.
        -11    1    3    3    0    0 -0.10430308088E+03  0.59539500809E+02  0.96301178305E+02  0.15394155313E+03  0.00000000000E+00 0. -1.
         11    1    3    3    0    0 -0.11857161223E+03  0.48266495220E+02  0.42249781403E+01  0.12808876698E+03  0.00000000000E+00 0.  1.
<mgrwt>
<rscale>  0 0.27381362E+03</rscale>
<asrwt>0</asrwt>
<pdfrwt beam="1">  1        1 0.53533446E-01 0.27733820E+03</pdfrwt>
<pdfrwt beam="2">  1       -1 0.32842081E-01 0.27733820E+03</pdfrwt>
<totfact> 0.63605917E+02</totfact>
</mgrwt>
</event>
<event>
 7    1  0.5107591E-006  0.1625262E+03  0.7546771E-02  0.1193039E+00
         -1   -1    0    0    0  501 -0.00000000000E+00  0.00000000000E+00  0.16355287893E+03  0.16355287893E+03  0.00000000000E+00 0.  1.
          1   -1    0    0  501    0  0.00000000000E+00 -0.00000000000E+00 -0.13887170127E+03  0.13887170127E+03  0.00000000000E+00 0. -1.
         23    2    1    2    0    0  0.99814598461E+02 -0.28765686925E+02  0.16567031650E+02  0.13969597179E+03  0.91924312273E+02 0.  0.
          5    1    1    2  502    0 -0.11047628080E+03 -0.12987534628E+01  0.39794378387E+02  0.11752607341E+03  0.47000000000E+01 0.  1.
         -5    1    1    2    0  502  0.10661682342E+02  0.30064440388E+02 -0.31680232385E+02  0.45202534997E+02  0.47000000000E+01 0.  1.
        -11    1    3    3    0    0  0.57364487017E+02 -0.46061948606E+02 -0.25117127121E+02  0.77738391769E+02  0.00000000000E+00 0. -1.
         11    1    3    3    0    0  0.42450111444E+02  0.17296261681E+02  0.41684158772E+02  0.61957580023E+02  0.00000000000E+00 0.  1.
<mgrwt>
<rscale>  0 0.15621385E+03</rscale>
<asrwt>0</asrwt>
<pdfrwt beam="2">  1        1 0.21364877E-01 0.16252618E+03</pdfrwt>
<pdfrwt beam="1">  1       -1 0.25161981E-01 0.16252618E+03</pdfrwt>
<totfact> 0.31429738E+03</totfact>
</mgrwt>
</event>
<event>
 7    1  0.5107591E-006  0.1366809E+03  0.7546771E-02  0.1229784E+00
          1   -1    0    0  501    0  0.00000000000E+00  0.00000000000E+00  0.48207835589E+02  0.48207835589E+02  0.00000000000E+00 0. -1.
         -1   -1    0    0    0  501 -0.00000000000E+00 -0.00000000000E+00 -0.36042556597E+03  0.36042556597E+03  0.00000000000E+00 0.  1.
         23    2    1    2    0    0 -0.21660710260E+02  0.50849861111E+02 -0.61452618450E+02  0.12303787331E+03  0.91142740853E+02 0.  0.
          5    1    1    2  502    0  0.34632476666E+02 -0.41439869392E+02 -0.25844571871E+02  0.60055833276E+02  0.47000000000E+01 0.  1.
         -5    1    1    2    0  502 -0.12971766406E+02 -0.94099917189E+01 -0.22492054006E+03  0.22553969497E+03  0.47000000000E+01 0.  1.
        -11    1    3    3    0    0 -0.41976444563E+02 -0.20034460154E+01 -0.37461435817E+01  0.42190867328E+02  0.00000000000E+00 0. -1.
         11    1    3    3    0    0  0.20315734304E+02  0.52853307126E+02 -0.57706474869E+02  0.80847005982E+02  0.00000000000E+00 0.  1.
<mgrwt>
<rscale>  0 0.12844351E+03</rscale>
<asrwt>0</asrwt>
<pdfrwt beam="1">  1        1 0.74165900E-02 0.13668089E+03</pdfrwt>
<pdfrwt beam="2">  1       -1 0.55450088E-01 0.13668089E+03</pdfrwt>
<totfact> 0.31425633E+03</totfact>
</mgrwt>
</event>
<event>
 7    1  0.5107591E-006  0.1995363E+03  0.7546771E-02  0.1153901E+00
          1   -1    0    0  501    0  0.00000000000E+00  0.00000000000E+00  0.31977998469E+03  0.31977998469E+03  0.00000000000E+00 0. -1.
         -1   -1    0    0    0  501 -0.00000000000E+00 -0.00000000000E+00 -0.14317395886E+03  0.14317395886E+03  0.00000000000E+00 0.  1.
         23    2    1    2    0    0 -0.44193942429E+02 -0.14916704654E+03  0.18934914434E+03  0.26301116019E+03  0.95487483997E+02 0.  0.
          5    1    1    2  502    0 -0.40893138636E+02  0.27554974338E+02 -0.13877819284E+02  0.51441318669E+02  0.47000000000E+01 0. -1.
         -5    1    1    2    0  502  0.85087081064E+02  0.12161207220E+03  0.11347007632E+01  0.14850146469E+03  0.47000000000E+01 0. -1.
        -11    1    3    3    0    0  0.99005351915E+00 -0.70822880446E+02  0.24435533411E+02  0.74926336450E+02  0.00000000000E+00 0.  1.
         11    1    3    3    0    0 -0.45183995948E+02 -0.78344166094E+02  0.16491361093E+03  0.18808482374E+03  0.00000000000E+00 0. -1.
<mgrwt>
<rscale>  0 0.19514500E+03</rscale>
<asrwt>0</asrwt>
<pdfrwt beam="1">  1        1 0.49196921E-01 0.19953629E+03</pdfrwt>
<pdfrwt beam="2">  1       -1 0.22026763E-01 0.19953629E+03</pdfrwt>
<totfact> 0.13818074E+03</totfact>
</mgrwt>
</event>
<event>
 7    1  0.5107591E-006  0.1731335E+03  0.7546771E-02  0.1180896E+00
         -2   -1    0    0    0  501 -0.00000000000E+00  0.00000000000E+00  0.98237576827E+02  0.98237576827E+02  0.00000000000E+00 0.  1.
          2   -1    0    0  501    0  0.00000000000E+00 -0.00000000000E+00 -0.26742330366E+03  0.26742330366E+03  0.00000000000E+00 0. -1.
         23    2    1    2    0    0  0.31692822636E+02 -0.11556834831E+03 -0.66091703843E+02  0.16415755048E+03  0.90659306895E+02 0.  0.
          5    1    1    2  502    0 -0.25178051629E+02  0.81235698659E+02  0.74202738171E+01  0.85500429730E+02  0.47000000000E+01 0. -1.
         -5    1    1    2    0  502 -0.65147710068E+01  0.34332649649E+02 -0.11051429681E+03  0.11600290028E+03  0.47000000000E+01 0. -1.
        -11    1    3    3    0    0  0.24742726604E+02  0.82923452808E+01 -0.13945283993E+02  0.29587775444E+02  0.00000000000E+00 0.  1.
         11    1    3    3    0    0  0.69500960318E+01 -0.12386069359E+03 -0.52146419850E+02  0.13456977504E+03  0.00000000000E+00 0. -1.
<mgrwt>
<rscale>  0 0.16710920E+03</rscale>
<asrwt>0</asrwt>
<pdfrwt beam="2">  1        2 0.41142045E-01 0.17313352E+03</pdfrwt>
<pdfrwt beam="1">  1       -2 0.15113474E-01 0.17313352E+03</pdfrwt>
<totfact> 0.40806832E+03</totfact>
</mgrwt>
</event>
<event>
 7    1  0.5107591E-006  0.1155669E+03  0.7546771E-02  0.1258375E+00
         -2   -1    0    0    0  501 -0.00000000000E+00  0.00000000000E+00  0.41468837982E+03  0.41468837982E+03  0.00000000000E+00 0.  1.
          2   -1    0    0  501    0  0.00000000000E+00 -0.00000000000E+00 -0.32903693268E+03  0.32903693268E+03  0.00000000000E+00 0. -1.
         23    2    1    2    0    0 -0.29933828534E+02  0.10239360092E+02 -0.31319054180E+03  0.32847762526E+03  0.93852843511E+02 0.  0.
          5    1    1    2  502    0  0.39352595681E+02  0.22208779257E+02  0.62969486741E+02  0.77647298236E+02  0.47000000000E+01 0. -1.
         -5    1    1    2    0  502 -0.94187671463E+01 -0.32448139349E+02  0.33587250221E+03  0.33760038901E+03  0.47000000000E+01 0.  1.
        -11    1    3    3    0    0 -0.36015815373E+02  0.43688075122E+02 -0.12478747181E+03  0.13703174810E+03  0.00000000000E+00 0.  1.
         11    1    3    3    0    0  0.60819868382E+01 -0.33448715030E+02 -0.18840306998E+03  0.19144587716E+03  0.00000000000E+00 0. -1.
<mgrwt>
<rscale>  0 0.11119353E+03</rscale>
<asrwt>0</asrwt>
<pdfrwt beam="2">  1        2 0.50621067E-01 0.11556691E+03</pdfrwt>
<pdfrwt beam="1">  1       -2 0.63798212E-01 0.11556691E+03</pdfrwt>
<totfact> 0.23384728E+02</totfact>
</mgrwt>
</event>
<event>
 7    1  0.5107591E-006  0.1660775E+03  0.7546771E-02  0.1188695E+00
          2   -1    0    0  501    0  0.00000000000E+00  0.00000000000E+00  0.29299024632E+03  0.29299024632E+03  0.00000000000E+00 0. -1.
         -2   -1    0    0    0  501 -0.00000000000E+00 -0.00000000000E+00 -0.10687488611E+03  0.10687488611E+03  0.00000000000E+00 0.  1.
         23    2    1    2    0    0 -0.10589303451E+03  0.27224429158E+02  0.18489010318E+03  0.23378315209E+03  0.92280591918E+02 0.  0.
          5    1    1    2  502    0  0.55221461239E+02  0.33744257201E+02 -0.40383202218E+02  0.76426289304E+02  0.47000000000E+01 0.  1.
         -5    1    1    2    0  502  0.50671573273E+02 -0.60968686359E+02  0.41608459249E+02  0.89655691037E+02  0.47000000000E+01 0.  1.
        -11    1    3    3    0    0 -0.91562298783E+02  0.50722411139E+02  0.10085345161E+03  0.14535417521E+03  0.00000000000E+00 0.  1.
         11    1    3    3    0    0 -0.14330735728E+02 -0.23497981980E+02  0.84036651574E+02  0.88428976876E+02  0.00000000000E+00 0. -1.
<mgrwt>
<rscale>  0 0.16000123E+03</rscale>
<asrwt>0</asrwt>
<pdfrwt beam="1">  1        2 0.45075422E-01 0.16607746E+03</pdfrwt>
<pdfrwt beam="2">  1       -2 0.16442290E-01 0.16607746E+03</pdfrwt>
<totfact> 0.32146545E+03</totfact>
</mgrwt>
</event>
<event>
 7    1  0.5107591E-006  0.1598077E+03  0.7546771E-02  0.1196756E+00
         -2   -1    0    0    0  501 -0.00000000000E+00  0.00000000000E+00  0.77869107542E+02  0.77869107542E+02  0.00000000000E+00 0. -1.
          2   -1    0    0  501    0  0.00000000000E+00 -0.00000000000E+00 -0.28410868625E+03  0.28410868625E+03  0.00000000000E+00 0.  1.
         23    2    1    2    0    0  0.11912016921E+02  0.98853818969E+02 -0.12070792708E+03  0.18072061759E+03  0.90418827081E+02 0.  0.
          5    1    1    2  502    0 -0.50201846336E+02 -0.66276741301E+01 -0.58869094582E+02  0.77793391344E+02  0.47000000000E+01 0.  1.
         -5    1    1    2    0  502  0.38289829415E+02 -0.92226144839E+02 -0.26662557045E+02  0.10346378486E+03  0.47000000000E+01 0.  1.
        -11    1    3    3    0    0 -0.12623619706E+02  0.45279471509E+02 -0.68292628913E+00  0.47011197634E+02  0.00000000000E+00 0. -1.
         11    1    3    3    0    0  0.24535636628E+02  0.53574347459E+02 -0.12002500079E+03  0.13370941996E+03  0.00000000000E+00 0.  1.
<mgrwt>
<rscale>  0 0.15306529E+03</rscale>
<asrwt>0</asrwt>
<pdfrwt beam="2">  1        2 0.43709029E-01 0.15980770E+03</pdfrwt>
<pdfrwt beam="1">  1       -2 0.11979863E-01 0.15980770E+03</pdfrwt>
<totfact> 0.55547048E+03</totfact>
</mgrwt>
</event>
<event>
 7    1  0.5107591E-006  0.1744458E+03  0.7546771E-02  0.1179783E+00
          2   -1    0    0  501    0  0.00000000000E+00  0.00000000000E+00  0.36084528816E+03  0.36084528816E+03  0.00000000000E+00 0. -1.
         -2   -1    0    0    0  501 -0.00000000000E+00 -0.00000000000E+00 -0.94100160821E+02  0.94100160821E+02  0.00000000000E+00 0.  1.
         23    2    1    2    0    0 -0.65387737214E+02 -0.10262194555E+03  0.23272457116E+03  0.27721325659E+03  0.88767357294E+02 0.  0.
          5    1    1    2  502    0  0.30013176163E+02  0.48580307206E+02  0.79933200129E+02  0.98347564660E+02  0.47000000000E+01 0. -1.
         -5    1    1    2    0  502  0.35374561051E+02  0.54041638346E+02 -0.45912643952E+02  0.79384627727E+02  0.47000000000E+01 0. -1.
        -11    1    3    3    0    0 -0.37367541538E+02 -0.66280291534E+01  0.21756390517E+02  0.43744764936E+02  0.00000000000E+00 0.  1.
         11    1    3    3    0    0 -0.28020195676E+02 -0.95993916399E+02  0.21096818064E+03  0.23346849165E+03  0.00000000000E+00 0. -1.
<mgrwt>
<rscale>  0 0.16815749E+03</rscale>
<asrwt>0</asrwt>
<pdfrwt beam="1">  1        2 0.55514659E-01 0.17444579E+03</pdfrwt>
<pdfrwt beam="2">  1       -2 0.14476948E-01 0.17444579E+03</pdfrwt>
<totfact> 0.31799929E+03</totfact>
</mgrwt>
</event>
<event>
 7    1  0.5107591E-006  0.1424950E+03  0.7546771E-02  0.1216315E+00
         -2   -1    0    0    0  501 -0.00000000000E+00  0.00000000000E+00  0.46437712231E+02  0.46437712231E+02  0.00000000000E+00 0.  1.
          2   -1    0    0  501    0  0.00000000000E+00 -0.00000000000E+00 -0.50696718866E+03  0.50696718866E+03  0.00000000000E+00 0. -1.
         23    2    1    2    0    0 -0.21250543826E+02 -0.65024498402E+02 -0.35455177727E+03  0.37582083150E+03  0.10418523704E+03 0.  0.
          5    1    1    2  502    0  0.36651956580E+01  0.10087081375E+03 -0.86007725430E+02  0.13269428609E+03  0.47000000000E+01 0.  1.
         -5    1    1    2    0  502  0.17585348168E+02 -0.35846315351E+02 -0.19969973724E+02  0.44889783302E+02  0.47000000000E+01 0.  1.
        -11    1    3    3    0    0 -0.51944817681E+02 -0.10166844631E+00 -0.17120696475E+03  0.17891366410E+03  0.00000000000E+00 0.  1.
         11    1    3    3    0    0  0.30694273855E+02 -0.64922829955E+02 -0.18334481252E+03  0.19690716741E+03  0.00000000000E+00 0. -1.
<mgrwt>
<rscale>  0 0.13780384E+03</rscale>
<asrwt>0</asrwt>
<pdfrwt beam="2">  1        2 0.77994956E-01 0.14249501E+03</pdfrwt>
<pdfrwt beam="1">  1       -2 0.71442631E-02 0.14249501E+03</pdfrwt>
<totfact> 0.66557661E+03</totfact>
</mgrwt>
</event>
<event>
 7    1  0.5107591E-006  0.1624970E+03  0.7546771E-02  0.1193447E+00
          2   -1    0    0  501    0  0.00000000000E+00  0.00000000000E+00  0.16313140305E+03  0.16313140305E+03  0.00000000000E+00 0. -1.
         -2   -1    0    0    0  501 -0.00000000000E+00 -0.00000000000E+00 -0.15150149199E+03  0.15150149199E+03  0.00000000000E+00 0.  1.
         23    2    1    2    0    0 -0.64934747450E+02  0.80988986814E+02  0.52251537341E+02  0.14713549724E+03  0.90237985252E+02 0.  0.
          5    1    1    2  502    0  0.70641897964E+02 -0.11085249527E+03 -0.36148776385E+02  0.13640886148E+03  0.47000000000E+01 0.  1.
         -5    1    1    2    0  502 -0.57071505144E+01  0.29863508457E+02 -0.44728498955E+01  0.31088536321E+02  0.47000000000E+01 0.  1.
        -11    1    3    3    0    0 -0.27708155392E+02  0.71393633660E+02  0.70940284661E+02  0.10439021405E+03  0.00000000000E+00 0. -1.
         11    1    3    3    0    0 -0.37226592058E+02  0.95953531544E+01 -0.18688747320E+02  0.42745283188E+02  0.00000000000E+00 0.  1.
<mgrwt>
<rscale>  0 0.15586376E+03</rscale>
<asrwt>0</asrwt>
<pdfrwt beam="1">  1        2 0.25097139E-01 0.16249696E+03</pdfrwt>
<pdfrwt beam="2">  1       -2 0.23307922E-01 0.16249696E+03</pdfrwt>
<totfact> 0.33500982E+03</totfact>
</mgrwt>
</event>
<event>
 7    1  0.5107591E-006  0.1668485E+03  0.7546771E-02  0.1188809E+00
          2   -1    0    0  501    0  0.00000000000E+00  0.00000000000E+00  0.43661686426E+03  0.43661686426E+03  0.00000000000E+00 0. -1.
         -2   -1    0    0    0  501 -0.00000000000E+00 -0.00000000000E+00 -0.55280561110E+02  0.55280561110E+02  0.00000000000E+00 0.  1.
         23    2    1    2    0    0  0.10991485622E+03 -0.11460817684E+02  0.20947487331E+03  0.25236712296E+03  0.87159716881E+02 0.  0.
          5    1    1    2  502    0 -0.68828417436E+02  0.24943555017E+02  0.12597329067E+02  0.74433290155E+02  0.47000000000E+01 0. -1.
         -5    1    1    2    0  502 -0.41086438784E+02 -0.13482737333E+02  0.15926410078E+03  0.16509701226E+03  0.47000000000E+01 0. -1.
        -11    1    3    3    0    0  0.55687949399E+01 -0.27670671674E+02  0.17340906019E+02  0.33126795340E+02  0.00000000000E+00 0.  1.
         11    1    3    3    0    0  0.10434606128E+03  0.16209853989E+02  0.19213396729E+03  0.21924032762E+03  0.00000000000E+00 0. -1.
<mgrwt>
<rscale>  0 0.15990083E+03</rscale>
<asrwt>0</asrwt>
<pdfrwt beam="1">  1        2 0.67171823E-01 0.16684848E+03</pdfrwt>
<pdfrwt beam="2">  1       -2 0.85047020E-02 0.16684848E+03</pdfrwt>
<totfact> 0.60378625E+03</totfact>
</mgrwt>
</event>
<event>
 7    1  0.5107591E-006  0.1652576E+03  0.7546771E-02  0.1189587E+00
          1   -1    0    0  501    0  0.00000000000E+00  0.00000000000E+00  0.24927262634E+03  0.24927262634E+03  0.00000000000E+00 0. -1.
         -1   -1    0    0    0  501 -0.00000000000E+00 -0.00000000000E+00 -0.10266111668E+03  0.10266111668E+03  0.00000000000E+00 0.  1.
         23    2    1    2    0    0 -0.15200671907E+02  0.10706811201E+03  0.11647554941E+03  0.18395087783E+03  0.92610640891E+02 0.  0.
          5    1    1    2  502    0  0.34846820287E+01  0.25859974949E+02  0.21574889133E+02  0.34182556286E+02  0.47000000000E+01 0. -1.
         -5    1    1    2    0  502  0.11715989878E+02 -0.13292808696E+03  0.85610711128E+01  0.13380030890E+03  0.47000000000E+01 0. -1.
        -11    1    3    3    0    0 -0.41413868713E+02  0.68678709496E+02  0.11129142133E+03  0.13717745486E+03  0.00000000000E+00 0. -1.
         11    1    3    3    0    0  0.26213196807E+02  0.38389402519E+02  0.51841280858E+01  0.46773422973E+02  0.00000000000E+00 0.  1.
<mgrwt>
<rscale>  0 0.15921406E+03</rscale>
<asrwt>0</asrwt>
<pdfrwt beam="1">  1        1 0.38349635E-01 0.16525758E+03</pdfrwt>
<pdfrwt beam="2">  1       -1 0.15794018E-01 0.16525758E+03</pdfrwt>
<totfact> 0.32001051E+03</totfact>
</mgrwt>
</event>
<event>
 7    1  0.5107591E-006  0.1870764E+03  0.7546771E-02  0.1175778E+00
         -1   -1    0    0    0  501 -0.00000000000E+00  0.00000000000E+00  0.30251942960E+03  0.30251942960E+03  0.00000000000E+00 0.  1.
          1   -1    0    0  501    0  0.00000000000E+00 -0.00000000000E+00 -0.90026772815E+02  0.90026772815E+02  0.00000000000E+00 0. -1.
         23    2    1    2    0    0  0.21294108981E+02  0.99302572643E+02  0.43875673845E+02  0.14069453632E+03  0.86922021284E+02 0.  0.
          5    1    1    2  502    0  0.29343242911E+02 -0.12320152265E+03  0.13982684371E+03  0.18871480416E+03  0.47000000000E+01 0. -1.
         -5    1    1    2    0  502 -0.50637351892E+02  0.23898950006E+02  0.28790139232E+02  0.63136861935E+02  0.47000000000E+01 0.  1.
        -11    1    3    3    0    0  0.37482832771E+02  0.10850458610E+03  0.40739702583E+02  0.12181104762E+03  0.00000000000E+00 0.  1.
         11    1    3    3    0    0 -0.16188723790E+02 -0.92020134547E+01  0.31359712623E+01  0.18883488696E+02  0.00000000000E+00 0. -1.
<mgrwt>
<rscale>  0 0.17200039E+03</rscale>
<asrwt>0</asrwt>
<pdfrwt beam="2">  1        1 0.13850273E-01 0.18707639E+03</pdfrwt>
<pdfrwt beam="1">  1       -1 0.46541450E-01 0.18707639E+03</pdfrwt>
<totfact> 0.19157121E+03</totfact>
</mgrwt>
</event>
<event>
 7    1  0.5107591E-006  0.1414669E+03  0.7546771E-02  0.1219956E+00
          4   -1    0    0  501    0  0.00000000000E+00  0.00000000000E+00  0.14907981914E+02  0.14907981914E+02  0.00000000000E+00 0. -1.
         -4   -1    0    0    0  501 -0.00000000000E+00 -0.00000000000E+00 -0.11647923613E+04  0.11647923613E+04  0.00000000000E+00 0.  1.
         23    2    1    2    0    0 -0.35671892607E+02 -0.56030409605E+02 -0.42111910279E+03  0.43733135716E+03  0.97496289695E+02 0.  0.
          5    1    1    2  502    0  0.55371612467E+02  0.70079558629E+02 -0.30385896226E+03  0.31674835272E+03  0.47000000000E+01 0. -1.
         -5    1    1    2    0  502 -0.19699719860E+02 -0.14049149023E+02 -0.42490631438E+03  0.42562063337E+03  0.47000000000E+01 0. -1.
        -11    1    3    3    0    0 -0.57723689015E+02 -0.70861470852E+02 -0.32649551231E+03  0.33904673996E+03  0.00000000000E+00 0.  1.
         11    1    3    3    0    0  0.22051796408E+02  0.14831061247E+02 -0.94623590479E+02  0.98284617198E+02  0.00000000000E+00 0. -1.
<mgrwt>
<rscale>  0 0.13518732E+03</rscale>
<asrwt>0</asrwt>
<pdfrwt beam="1">  1        4 0.22935357E-02 0.14146690E+03</pdfrwt>
<pdfrwt beam="2">  1       -4 0.17919883E+00 0.14146690E+03</pdfrwt>
<totfact> 0.27501703E+02</totfact>
</mgrwt>
</event>
<event>
 7    1  0.5107591E-006  0.1487283E+03  0.7546771E-02  0.1216268E+00
         -1   -1    0    0    0  501 -0.00000000000E+00  0.00000000000E+00  0.13988196239E+03  0.13988196239E+03  0.00000000000E+00 0.  1.
          1   -1    0    0  501    0  0.00000000000E+00 -0.00000000000E+00 -0.26638222118E+03  0.26638222118E+03  0.00000000000E+00 0. -1.
         23    2    1    2    0    0  0.45524585143E+02  0.38285828923E+02 -0.20909903355E+03  0.23613874893E+03  0.92199839291E+02 0.  0.
          5    1    1    2  502    0  0.34510910482E+02 -0.55245337543E+02  0.24858555113E+02  0.69879095764E+02  0.47000000000E+01 0. -1.
         -5    1    1    2    0  502 -0.80035495625E+02  0.16959508620E+02  0.57740219647E+02  0.10024633887E+03  0.47000000000E+01 0.  1.
        -11    1    3    3    0    0  0.67030608990E+02  0.50286374125E+02 -0.14500708569E+03  0.16747798920E+03  0.00000000000E+00 0. -1.
         11    1    3    3    0    0 -0.21506023847E+02 -0.12000545202E+02 -0.64091947860E+02  0.68660759734E+02  0.00000000000E+00 0.  1.
<mgrwt>
<rscale>  0 0.13783816E+03</rscale>
<asrwt>0</asrwt>
<pdfrwt beam="2">  1        1 0.40981880E-01 0.14872830E+03</pdfrwt>
<pdfrwt beam="1">  1       -1 0.21520302E-01 0.14872830E+03</pdfrwt>
<totfact> 0.17894383E+03</totfact>
</mgrwt>
</event>
<event>
 7    1  0.5107591E-006  0.1406006E+03  0.7546771E-02  0.1223455E+00
          1   -1    0    0  501    0  0.00000000000E+00  0.00000000000E+00  0.48863035333E+02  0.48863035333E+02  0.00000000000E+00 0. -1.
         -1   -1    0    0    0  501 -0.00000000000E+00 -0.00000000000E+00 -0.40639371620E+03  0.40639371620E+03  0.00000000000E+00 0.  1.
         23    2    1    2    0    0 -0.58454739684E+02 -0.26923996586E+02 -0.61400298628E+02  0.12744318423E+03  0.91268342549E+02 0.  0.
          5    1    1    2  502    0  0.37791229876E+02  0.54602146799E+01 -0.95355899754E+01  0.39635949289E+02  0.47000000000E+01 0.  1.
         -5    1    1    2    0  502  0.20663509808E+02  0.21463781906E+02 -0.28659479226E+03  0.28817761801E+03  0.47000000000E+01 0.  1.
        -11    1    3    3    0    0 -0.75144157814E+02  0.41843111360E+01 -0.33191339922E+02  0.82254592328E+02  0.00000000000E+00 0.  1.
         11    1    3    3    0    0  0.16689418131E+02 -0.31108307722E+02 -0.28208958706E+02  0.45188591903E+02  0.00000000000E+00 0. -1.
<mgrwt>
<rscale>  0 0.13273376E+03</rscale>
<asrwt>0</asrwt>
<pdfrwt beam="1">  1        1 0.75173897E-02 0.14060061E+03</pdfrwt>
<pdfrwt beam="2">  1       -1 0.62522113E-01 0.14060061E+03</pdfrwt>
<totfact> 0.24624606E+03</totfact>
</mgrwt>
</event>
<event>
 7    1  0.5107591E-006  0.1619837E+03  0.7546771E-02  0.1193368E+00
         -1   -1    0    0    0  501 -0.00000000000E+00  0.00000000000E+00  0.18127195726E+03  0.18127195726E+03  0.00000000000E+00 0.  1.
          1   -1    0    0  501    0  0.00000000000E+00 -0.00000000000E+00 -0.18741299550E+03  0.18741299550E+03  0.00000000000E+00 0. -1.
         23    2    1    2    0    0  0.98141492125E+02  0.31333710956E+02 -0.10907383644E+03  0.17676343073E+03  0.93459374756E+02 0.  0.
          5    1    1    2  502    0  0.28002869014E+02 -0.58275694135E+01  0.37712708511E+02  0.47565319525E+02  0.47000000000E+01 0. -1.
         -5    1    1    2    0  502 -0.12614436114E+03 -0.25506141543E+02  0.65220089691E+02  0.14435620251E+03  0.47000000000E+01 0. -1.
        -11    1    3    3    0    0  0.84961708033E+02  0.12766636514E+02 -0.24735256626E+02  0.89405322884E+02  0.00000000000E+00 0.  1.
         11    1    3    3    0    0  0.13179784093E+02  0.18567074442E+02 -0.84338579810E+02  0.87358107846E+02  0.00000000000E+00 0. -1.
<mgrwt>
<rscale>  0 0.15593138E+03</rscale>
<asrwt>0</asrwt>
<pdfrwt beam="2">  1        1 0.28832768E-01 0.16198367E+03</pdfrwt>
<pdfrwt beam="1">  1       -1 0.27887994E-01 0.16198367E+03</pdfrwt>
<totfact> 0.18144618E+03</totfact>
</mgrwt>
</event>
<event>
 7    1  0.5107591E-006  0.2347039E+03  0.7546771E-02  0.1126159E+00
         -1   -1    0    0    0  501 -0.00000000000E+00  0.00000000000E+00  0.67124238694E+02  0.67124238694E+02  0.00000000000E+00 0.  1.
          1   -1    0    0  501    0  0.00000000000E+00 -0.00000000000E+00 -0.77735418364E+03  0.77735418364E+03  0.00000000000E+00 0. -1.
         23    2    1    2    0    0 -0.21941609109E+02 -0.19743295811E+03 -0.39224427094E+03  0.44925592168E+03  0.92271923801E+02 0.  0.
          5    1    1    2  502    0  0.22540698141E+02  0.13674109221E+03 -0.30195194331E+03  0.33226988344E+03  0.47000000000E+01 0. -1.
         -5    1    1    2    0  502 -0.59908903182E+00  0.60691865896E+02 -0.16033730691E+02  0.62952617209E+02  0.47000000000E+01 0. -1.
        -11    1    3    3    0    0  0.31844033020E+02 -0.12152526245E+03 -0.21230239950E+03  0.24668753654E+03  0.00000000000E+00 0.  1.
         11    1    3    3    0    0 -0.53785642129E+02 -0.75907695658E+02 -0.17994187144E+03  0.20256838514E+03  0.00000000000E+00 0. -1.
<mgrwt>
<rscale>  0 0.23068402E+03</rscale>
<asrwt>0</asrwt>
<pdfrwt beam="2">  1        1 0.11959296E+00 0.23470393E+03</pdfrwt>
<pdfrwt beam="1">  1       -1 0.10326806E-01 0.23470393E+03</pdfrwt>
<totfact> 0.13959476E+03</totfact>
</mgrwt>
</event>
<event>
 7    1  0.5107591E-006  0.1572925E+03  0.7546771E-02  0.1199866E+00
         -1   -1    0    0    0  501 -0.00000000000E+00  0.00000000000E+00  0.83105645837E+02  0.83105645837E+02  0.00000000000E+00 0.  1.
          1   -1    0    0  501    0  0.00000000000E+00 -0.00000000000E+00 -0.27541211386E+03  0.27541211386E+03  0.00000000000E+00 0. -1.
         23    2    1    2    0    0 -0.44339305312E+02 -0.84552389775E+02 -0.14111819657E+03  0.19310564020E+03  0.90886535091E+02 0.  0.
          5    1    1    2  502    0  0.84726044080E+02  0.79556432396E+02 -0.37049747829E+02  0.12207580553E+03  0.47000000000E+01 0.  1.
         -5    1    1    2    0  502 -0.40386738767E+02  0.49959573786E+01 -0.14138523626E+02  0.43336313972E+02  0.47000000000E+01 0.  1.
        -11    1    3    3    0    0  0.10471979132E+02  0.24530069269E+01  0.69697457709E+01  0.12816276606E+02  0.00000000000E+00 0.  1.
         11    1    3    3    0    0 -0.54811284445E+02 -0.87005396702E+02 -0.14808794234E+03  0.18028936359E+03  0.00000000000E+00 0. -1.
<mgrwt>
<rscale>  0 0.15049532E+03</rscale>
<asrwt>0</asrwt>
<pdfrwt beam="2">  1        1 0.42371095E-01 0.15729250E+03</pdfrwt>
<pdfrwt beam="1">  1       -1 0.12785484E-01 0.15729250E+03</pdfrwt>
<totfact> 0.39288379E+03</totfact>
</mgrwt>
</event>
<event>
 7    1  0.5107591E-006  0.1365175E+03  0.7546771E-02  0.1229875E+00
          2   -1    0    0  501    0  0.00000000000E+00  0.00000000000E+00  0.21912501554E+03  0.21912501554E+03  0.00000000000E+00 0. -1.
         -2   -1    0    0    0  501 -0.00000000000E+00 -0.00000000000E+00 -0.67602187693E+02  0.67602187693E+02  0.00000000000E+00 0.  1.
         23    2    1    2    0    0  0.13510035557E+02  0.53181909118E+02  0.61879442274E+02  0.12340856756E+03  0.91595702149E+02 0.  0.
          5    1    1    2  502    0 -0.56312259012E+02 -0.16376712563E+02  0.18814439320E+01  0.58863376225E+02  0.47000000000E+01 0. -1.
         -5    1    1    2    0  502  0.42802223455E+02 -0.36805196556E+02  0.87761941641E+02  0.10445525945E+03  0.47000000000E+01 0. -1.
        -11    1    3    3    0    0  0.27478161985E+02 -0.80667500573E+01 -0.77103708724E+01  0.29657573427E+02  0.00000000000E+00 0.  1.
         11    1    3    3    0    0 -0.13968126429E+02  0.61248659176E+02  0.69589813146E+02  0.93750994131E+02  0.00000000000E+00 0. -1.
<mgrwt>
<rscale>  0 0.12838295E+03</rscale>
<asrwt>0</asrwt>
<pdfrwt beam="1">  1        2 0.33711541E-01 0.13651755E+03</pdfrwt>
<pdfrwt beam="2">  1       -2 0.10400337E-01 0.13651755E+03</pdfrwt>
<totfact> 0.90841573E+03</totfact>
</mgrwt>
</event>
<event>
 7    1  0.5107591E-006  0.1935789E+03  0.7546771E-02  0.1159777E+00
         -1   -1    0    0    0  501 -0.00000000000E+00  0.00000000000E+00  0.48624920664E+02  0.48624920664E+02  0.00000000000E+00 0.  1.
          1   -1    0    0  501    0  0.00000000000E+00 -0.00000000000E+00 -0.70437716014E+03  0.70437716014E+03  0.00000000000E+00 0. -1.
         23    2    1    2    0    0 -0.13163909435E+03  0.67225871726E+02 -0.35295321497E+03  0.39361367802E+03  0.92236579358E+02 0.  0.
          5    1    1    2  502    0  0.29111489863E+02 -0.19881181421E+02  0.65206042969E+00  0.35570428723E+02  0.47000000000E+01 0.  1.
         -5    1    1    2    0  502  0.10252760448E+03 -0.47344690306E+02 -0.30345108493E+03  0.32381797406E+03  0.47000000000E+01 0.  1.
        -11    1    3    3    0    0 -0.26491851697E+02  0.55399421855E+02 -0.79868310575E+02  0.10074651946E+03  0.00000000000E+00 0.  1.
         11    1    3    3    0    0 -0.10514724265E+03  0.11826449871E+02 -0.27308490440E+03  0.29286715856E+03  0.00000000000E+00 0. -1.
<mgrwt>
<rscale>  0 0.18854871E+03</rscale>
<asrwt>0</asrwt>
<pdfrwt beam="2">  1        1 0.10836571E+00 0.19357886E+03</pdfrwt>
<pdfrwt beam="1">  1       -1 0.74807575E-02 0.19357886E+03</pdfrwt>
<totfact> 0.26413013E+03</totfact>
</mgrwt>
</event>
<event>
 7    1  0.5107591E-006  0.1373250E+03  0.7546771E-02  0.1228310E+00
         -1   -1    0    0    0  501 -0.00000000000E+00  0.00000000000E+00  0.28670150903E+02  0.28670150903E+02  0.00000000000E+00 0.  1.
          1   -1    0    0  501    0  0.00000000000E+00 -0.00000000000E+00 -0.63090516058E+03  0.63090516058E+03  0.00000000000E+00 0. -1.
         23    2    1    2    0    0 -0.48256043157E+02  0.30059628962E+02 -0.40499338844E+03  0.41923721358E+03  0.92238655562E+02 0.  0.
          5    1    1    2  502    0  0.12664187988E+02  0.47753999575E+02 -0.53373558582E+02  0.72881087317E+02  0.47000000000E+01 0.  1.
         -5    1    1    2    0  502  0.35591855169E+02 -0.77813628537E+02 -0.14386806265E+03  0.16745701058E+03  0.47000000000E+01 0.  1.
        -11    1    3    3    0    0 -0.24034547843E+02  0.62970900625E+02 -0.24391698088E+03  0.25305826874E+03  0.00000000000E+00 0.  1.
         11    1    3    3    0    0 -0.24221495314E+02 -0.32911271663E+02 -0.16107640755E+03  0.16617894484E+03  0.00000000000E+00 0. -1.
<mgrwt>
<rscale>  0 0.12942600E+03</rscale>
<asrwt>0</asrwt>
<pdfrwt beam="2">  1        1 0.97062330E-01 0.13732496E+03</pdfrwt>
<pdfrwt beam="1">  1       -1 0.44107926E-02 0.13732496E+03</pdfrwt>
<totfact> 0.67060364E+03</totfact>
</mgrwt>
</event>
<event>
 7    1  0.5107591E-006  0.1584190E+03  0.7546771E-02  0.1198109E+00
          2   -1    0    0  501    0  0.00000000000E+00  0.00000000000E+00  0.10786460461E+03  0.10786460461E+03  0.00000000000E+00 0. -1.
         -2   -1    0    0    0  501 -0.00000000000E+00 -0.00000000000E+00 -0.20965706021E+03  0.20965706021E+03  0.00000000000E+00 0.  1.
         23    2    1    2    0    0  0.80315887762E+02 -0.54959831404E+02 -0.99847830937E+01  0.13442269405E+03  0.92187525666E+02 0.  0.
          5    1    1    2  502    0 -0.56858128229E+02  0.92366821243E+02 -0.85622611346E+02  0.13826712547E+03  0.47000000000E+01 0. -1.
         -5    1    1    2    0  502 -0.23457759533E+02 -0.37406989839E+02 -0.61850611677E+01  0.44831845298E+02  0.47000000000E+01 0. -1.
        -11    1    3    3    0    0  0.74984000211E+02 -0.29269118541E+02 -0.43786422842E+02  0.91632594709E+02  0.00000000000E+00 0.  1.
         11    1    3    3    0    0  0.53318875510E+01 -0.25690712863E+02  0.33801639748E+02  0.42790099345E+02  0.00000000000E+00 0. -1.
<mgrwt>
<rscale>  0 0.15194041E+03</rscale>
<asrwt>0</asrwt>
<pdfrwt beam="1">  1        2 0.16594555E-01 0.15841902E+03</pdfrwt>
<pdfrwt beam="2">  1       -2 0.32254932E-01 0.15841902E+03</pdfrwt>
<totfact> 0.30009054E+03</totfact>
</mgrwt>
</event>
<event>
 7    1  0.5107591E-006  0.1275957E+03  0.7546771E-02  0.1245680E+00
         -2   -1    0    0    0  501 -0.00000000000E+00  0.00000000000E+00  0.34613818741E+02  0.34613818741E+02  0.00000000000E+00 0.  1.
          2   -1    0    0  501    0  0.00000000000E+00 -0.00000000000E+00 -0.50727935979E+03  0.50727935979E+03  0.00000000000E+00 0. -1.
         23    2    1    2    0    0 -0.23233441410E+02  0.11238069989E+02 -0.35805754386E+03  0.37038325616E+03  0.91172719119E+02 0.  0.
          5    1    1    2  502    0 -0.45198650638E+02  0.11677161830E+02 -0.16729298949E+02  0.49811982205E+02  0.47000000000E+01 0.  1.
         -5    1    1    2    0  502  0.68432092048E+02 -0.22915231820E+02 -0.97878698242E+02  0.12169794017E+03  0.47000000000E+01 0.  1.
        -11    1    3    3    0    0 -0.12689640252E+02 -0.39345871086E+02 -0.19501276575E+03  0.19934669134E+03  0.00000000000E+00 0.  1.
         11    1    3    3    0    0 -0.10543801158E+02  0.50583941076E+02 -0.16304477811E+03  0.17103656482E+03  0.00000000000E+00 0. -1.
<mgrwt>
<rscale>  0 0.11844802E+03</rscale>
<asrwt>0</asrwt>
<pdfrwt beam="2">  1        2 0.78042975E-01 0.12759569E+03</pdfrwt>
<pdfrwt beam="1">  1       -2 0.53252031E-02 0.12759569E+03</pdfrwt>
<totfact> 0.10319320E+04</totfact>
</mgrwt>
</event>
<event>
 7    1  0.5107591E-006  0.1756212E+03  0.7546771E-02  0.1177934E+00
         -1   -1    0    0    0  501 -0.00000000000E+00  0.00000000000E+00  0.11178373876E+04  0.11178373876E+04  0.00000000000E+00 0.  1.
          1   -1    0    0  501    0  0.00000000000E+00 -0.00000000000E+00 -0.26084899118E+02  0.26084899118E+02  0.00000000000E+00 0. -1.
         23    2    1    2    0    0 -0.58013716857E+02 -0.10886703939E+03  0.36236590475E+03  0.39369058953E+03  0.92008737340E+02 0.  0.
          5    1    1    2  502    0  0.56608811045E+02  0.13460517504E+03  0.55592504044E+03  0.57480244539E+03  0.47000000000E+01 0. -1.
         -5    1    1    2    0  502  0.14049058124E+01 -0.25738135654E+02  0.17346154330E+03  0.17542925181E+03  0.47000000000E+01 0. -1.
        -11    1    3    3    0    0 -0.66172674909E+02 -0.36600320683E+02  0.13210091886E+03  0.15221385989E+03  0.00000000000E+00 0.  1.
         11    1    3    3    0    0  0.81589580515E+01 -0.72266718706E+02  0.23026498589E+03  0.24147672964E+03  0.00000000000E+00 0. -1.
<mgrwt>
<rscale>  0 0.16991740E+03</rscale>
<asrwt>0</asrwt>
<pdfrwt beam="2">  1        1 0.40130623E-02 0.17562121E+03</pdfrwt>
<pdfrwt beam="1">  1       -1 0.17197495E+00 0.17562121E+03</pdfrwt>
<totfact> 0.58694206E+02</totfact>
</mgrwt>
</event>
<event>
 7    1  0.5107591E-006  0.1642002E+03  0.7546771E-02  0.1190985E+00
          2   -1    0    0  501    0  0.00000000000E+00  0.00000000000E+00  0.11334681620E+04  0.11334681620E+04  0.00000000000E+00 0. -1.
         -2   -1    0    0    0  501 -0.00000000000E+00 -0.00000000000E+00 -0.20693498601E+02  0.20693498601E+02  0.00000000000E+00 0.  1.
         23    2    1    2    0    0  0.94861099022E+02 -0.48351017765E+02  0.56831592430E+03  0.58548159859E+03  0.92028601211E+02 0.  0.
          5    1    1    2  502    0  0.28789308000E+02  0.55027637132E+01  0.15439024889E+03  0.15721814022E+03  0.47000000000E+01 0. -1.
         -5    1    1    2    0  502 -0.12365040702E+03  0.42848254052E+02  0.39006849025E+03  0.41146192183E+03  0.47000000000E+01 0. -1.
        -11    1    3    3    0    0  0.77656408511E+02 -0.72649018981E+02  0.49609964561E+03  0.50736895462E+03  0.00000000000E+00 0. -1.
         11    1    3    3    0    0  0.17204690511E+02  0.24298001215E+02  0.72216278695E+02  0.78112643965E+02  0.00000000000E+00 0.  1.
<mgrwt>
<rscale>  0 0.15798978E+03</rscale>
<asrwt>0</asrwt>
<pdfrwt beam="1">  1        2 0.17437967E+00 0.16420017E+03</pdfrwt>
<pdfrwt beam="2">  1       -2 0.31836161E-02 0.16420017E+03</pdfrwt>
<totfact> 0.82827740E+03</totfact>
</mgrwt>
</event>
<event>
 6    1  0.5107591E-006  0.1569103E+03  0.7546771E-02  0.1237721E+00
         -2   -1    0    0    0  501 -0.00000000000E+00  0.00000000000E+00  0.38509359702E+03  0.38509359702E+03  0.00000000000E+00 0.  1.
          2   -1    0    0  501    0  0.00000000000E+00 -0.00000000000E+00 -0.43808806889E+02  0.43808806889E+02  0.00000000000E+00 0. -1.
          5    1    1    2  502    0 -0.70842646360E+02  0.27421461252E+02  0.10325964643E+03  0.12827806383E+03  0.47000000000E+01 0. -1.
         -5    1    1    2    0  502  0.61459446808E+02  0.30510043719E+02  0.23019698906E+03  0.24025168083E+03  0.47000000000E+01 0.  1.
        -11    1    1    2    0    0 -0.14105067723E+00 -0.11858912308E+02 -0.26979680581E+01  0.12162759887E+02  0.00000000000E+00 0.  1.
         11    1    1    2    0    0  0.95242502287E+01 -0.46072592662E+02  0.10526122700E+02  0.48209899358E+02  0.00000000000E+00 0. -1.
<mgrwt>
<rscale>  0 0.12331849E+03</rscale>
<asrwt>0</asrwt>
<pdfrwt beam="2">  1        2 0.67398167E-02 0.15691031E+03</pdfrwt>
<pdfrwt beam="1">  1       -2 0.59245167E-01 0.15691031E+03</pdfrwt>
<totfact> 0.27867220E+03</totfact>
</mgrwt>
</event>
<event>
 7    1  0.5107591E-006  0.1324859E+03  0.7546771E-02  0.1237095E+00
          1   -1    0    0  501    0  0.00000000000E+00  0.00000000000E+00  0.87730532149E+02  0.87730532149E+02  0.00000000000E+00 0. -1.
         -1   -1    0    0    0  501 -0.00000000000E+00 -0.00000000000E+00 -0.15575345896E+03  0.15575345896E+03  0.00000000000E+00 0.  1.
         23    2    1    2    0    0 -0.61368869560E+01  0.43452834240E+02 -0.20943355058E+02  0.10288172550E+03  0.90665402084E+02 0.  0.
          5    1    1    2  502    0  0.66274069346E+01 -0.52809825864E-01 -0.83410862016E+02  0.83805651443E+02  0.47000000000E+01 0.  1.
         -5    1    1    2    0  502 -0.49051997864E+00 -0.43400024415E+02  0.36331290263E+02  0.56796614170E+02  0.47000000000E+01 0.  1.
        -11    1    3    3    0    0  0.24501095735E+02 -0.14397365474E+02 -0.24217697242E+02  0.37337443465E+02  0.00000000000E+00 0.  1.
         11    1    3    3    0    0 -0.30637982691E+02  0.57850199714E+02  0.32743421835E+01  0.65544282032E+02  0.00000000000E+00 0. -1.
<mgrwt>
<rscale>  0 0.12371268E+03</rscale>
<asrwt>0</asrwt>
<pdfrwt beam="1">  1        1 0.13497005E-01 0.13248589E+03</pdfrwt>
<pdfrwt beam="2">  1       -1 0.23962070E-01 0.13248589E+03</pdfrwt>
<totfact> 0.60786681E+03</totfact>
</mgrwt>
</event>
<event>
 7    1  0.5107591E-006  0.1396032E+03  0.7546771E-02  0.1231007E+00
         -1   -1    0    0    0  501 -0.00000000000E+00  0.00000000000E+00  0.18941321361E+02  0.18941321361E+02  0.00000000000E+00 0.  1.
          1   -1    0    0  501    0  0.00000000000E+00 -0.00000000000E+00 -0.82272048317E+03  0.82272048317E+03  0.00000000000E+00 0. -1.
         23    2    1    2    0    0 -0.42612597172E+02  0.13065937372E+02 -0.46729345373E+03  0.47736567001E+03  0.86765539557E+02 0.  0.
          5    1    1    2  502    0  0.48836448389E+02 -0.63519100544E+02 -0.14088724858E+03  0.16214494022E+03  0.47000000000E+01 0. -1.
         -5    1    1    2    0  502 -0.62238512172E+01  0.50453163172E+02 -0.19559845950E+03  0.20215119430E+03  0.47000000000E+01 0.  1.
        -11    1    3    3    0    0 -0.62354672157E+02 -0.94196236918E+01 -0.37714566450E+03  0.38238159827E+03  0.00000000000E+00 0.  1.
         11    1    3    3    0    0  0.19742074985E+02  0.22485561064E+02 -0.90147789230E+02  0.94984071739E+02  0.00000000000E+00 0. -1.
<mgrwt>
<rscale>  0 0.12763549E+03</rscale>
<asrwt>0</asrwt>
<pdfrwt beam="2">  1        1 0.12657239E+00 0.13960316E+03</pdfrwt>
<pdfrwt beam="1">  1       -1 0.29140492E-02 0.13960316E+03</pdfrwt>
<totfact> 0.83847505E+03</totfact>
</mgrwt>
</event>
<event>
 7    1  0.5107591E-006  0.1338752E+03  0.7546771E-02  0.1237376E+00
         -1   -1    0    0    0  501 -0.00000000000E+00  0.00000000000E+00  0.42821522090E+02  0.42821522090E+02  0.00000000000E+00 0.  1.
          1   -1    0    0  501    0  0.00000000000E+00 -0.00000000000E+00 -0.31283450222E+03  0.31283450222E+03  0.00000000000E+00 0. -1.
         23    2    1    2    0    0 -0.63970579164E+01 -0.33801235990E+02 -0.12558538308E+03  0.15872480448E+03  0.90765793173E+02 0.  0.
          5    1    1    2  502    0 -0.16437697040E+02  0.47297027521E+02 -0.15867729066E+03  0.16645653867E+03  0.47000000000E+01 0. -1.
         -5    1    1    2    0  502  0.22834754957E+02 -0.13495791531E+02  0.14249693614E+02  0.30474681148E+02  0.47000000000E+01 0.  1.
        -11    1    3    3    0    0  0.38063560039E+02 -0.19974142184E+02 -0.30052989399E+02  0.52449815354E+02  0.00000000000E+00 0.  1.
         11    1    3    3    0    0 -0.44460617955E+02 -0.13827093806E+02 -0.95532393681E+02  0.10627498913E+03  0.00000000000E+00 0. -1.
<mgrwt>
<rscale>  0 0.12353565E+03</rscale>
<asrwt>0</asrwt>
<pdfrwt beam="2">  1        1 0.48128384E-01 0.13387522E+03</pdfrwt>
<pdfrwt beam="1">  1       -1 0.65879266E-02 0.13387522E+03</pdfrwt>
<totfact> 0.91181758E+03</totfact>
</mgrwt>
</event>
<event>
 7    1  0.5107591E-006  0.1465427E+03  0.7546771E-02  0.1214793E+00
         -2   -1    0    0    0  501 -0.00000000000E+00  0.00000000000E+00  0.45323030761E+02  0.45323030761E+02  0.00000000000E+00 0.  1.
          2   -1    0    0  501    0  0.00000000000E+00 -0.00000000000E+00 -0.40747123701E+03  0.40747123701E+03  0.00000000000E+00 0. -1.
         23    2    1    2    0    0  0.58681018711E+02 -0.49056405299E+02 -0.21320924342E+03  0.24385033594E+03  0.90303997687E+02 0.  0.
          5    1    1    2  502    0  0.19549569638E+02 -0.15840267049E+02 -0.84997906087E+02  0.88768427791E+02  0.47000000000E+01 0. -1.
         -5    1    1    2    0  502 -0.78230588349E+02  0.64896672348E+02 -0.63941056740E+02  0.12017550404E+03  0.47000000000E+01 0. -1.
        -11    1    3    3    0    0  0.19698998261E+01 -0.59838530967E+02 -0.94876092567E+02  0.11218735773E+03  0.00000000000E+00 0.  1.
         11    1    3    3    0    0  0.56711118885E+02  0.10782125668E+02 -0.11833315086E+03  0.13166297821E+03  0.00000000000E+00 0. -1.
<mgrwt>
<rscale>  0 0.13891773E+03</rscale>
<asrwt>0</asrwt>
<pdfrwt beam="2">  1        2 0.62687881E-01 0.14654266E+03</pdfrwt>
<pdfrwt beam="1">  1       -2 0.69727741E-02 0.14654266E+03</pdfrwt>
<totfact> 0.87742688E+03</totfact>
</mgrwt>
</event>
<event>
 7    1  0.5107591E-006  0.1635731E+03  0.7546771E-02  0.1191590E+00
         -1   -1    0    0    0  501 -0.00000000000E+00  0.00000000000E+00  0.10401854254E+03  0.10401854254E+03  0.00000000000E+00 0.  1.
          1   -1    0    0  501    0  0.00000000000E+00 -0.00000000000E+00 -0.22462273345E+03  0.22462273345E+03  0.00000000000E+00 0. -1.
         23    2    1    2    0    0 -0.16168347468E+02 -0.10425577277E+03 -0.72850398188E+02  0.15824007342E+03  0.92747284088E+02 0.  0.
          5    1    1    2  502    0 -0.51079095705E+01 -0.12773197946E+02 -0.49250978858E+02  0.51351672265E+02  0.47000000000E+01 0.  1.
         -5    1    1    2    0  502  0.21276257039E+02  0.11702897071E+03  0.14971861323E+01  0.11904953031E+03  0.47000000000E+01 0.  1.
        -11    1    3    3    0    0  0.30526869535E+02 -0.69615764783E+01 -0.25539833321E+02  0.40405895569E+02  0.00000000000E+00 0.  1.
         11    1    3    3    0    0 -0.46695217004E+02 -0.97294196288E+02 -0.47310564867E+02  0.11783417785E+03  0.00000000000E+00 0. -1.
<mgrwt>
<rscale>  0 0.15746435E+03</rscale>
<asrwt>0</asrwt>
<pdfrwt beam="2">  1        1 0.34557343E-01 0.16357306E+03</pdfrwt>
<pdfrwt beam="1">  1       -1 0.16002853E-01 0.16357306E+03</pdfrwt>
<totfact> 0.35664752E+03</totfact>
</mgrwt>
</event>
<event>
 7    1  0.5107591E-006  0.1422593E+03  0.7546771E-02  0.1220982E+00
         -1   -1    0    0    0  501 -0.00000000000E+00  0.00000000000E+00  0.69382407373E+02  0.69382407373E+02  0.00000000000E+00 0.  1.
          1   -1    0    0  501    0  0.00000000000E+00 -0.00000000000E+00 -0.24158809800E+03  0.24158809800E+03  0.00000000000E+00 0. -1.
         23    2    1    2    0    0 -0.33385162660E+02 -0.59147245196E+02 -0.10065154874E+03  0.15172946576E+03  0.90984233892E+02 0.  0.
          5    1    1    2  502    0  0.13078006651E+02  0.54642273272E+02  0.24043081269E+02  0.61294143629E+02  0.47000000000E+01 0. -1.
         -5    1    1    2    0  502  0.20307156009E+02  0.45049719241E+01 -0.95597223156E+02  0.97946895981E+02  0.47000000000E+01 0. -1.
        -11    1    3    3    0    0 -0.62313541258E+02 -0.25213358000E+02 -0.47287791212E+02  0.82187748743E+02  0.00000000000E+00 0.  1.
         11    1    3    3    0    0  0.28928378598E+02 -0.33933887196E+02 -0.53363757529E+02  0.69541717021E+02  0.00000000000E+00 0. -1.
<mgrwt>
<rscale>  0 0.13446114E+03</rscale>
<asrwt>0</asrwt>
<pdfrwt beam="2">  1        1 0.37167401E-01 0.14225932E+03</pdfrwt>
<pdfrwt beam="1">  1       -1 0.10674216E-01 0.14225932E+03</pdfrwt>
<totfact> 0.60728541E+03</totfact>
</mgrwt>
</event>
<event>
 7    1  0.5107591E-006  0.1755526E+03  0.7546771E-02  0.1178341E+00
          3   -1    0    0  501    0  0.00000000000E+00  0.00000000000E+00  0.31142611756E+03  0.31142611756E+03  0.00000000000E+00 0. -1.
         -3   -1    0    0    0  501 -0.00000000000E+00 -0.00000000000E+00 -0.87130719724E+02  0.87130719724E+02  0.00000000000E+00 0.  1.
         23    2    1    2    0    0 -0.54367723050E+02 -0.11062520105E+03  0.12156849451E+03  0.19515687132E+03  0.90075086182E+02 0.  0.
          5    1    1    2  502    0  0.86047717251E+02  0.38575088868E+02  0.72165278632E+02  0.11883671388E+03  0.47000000000E+01 0.  1.
         -5    1    1    2    0  502 -0.31679994200E+02  0.72050112187E+02  0.30561624701E+02  0.84563252084E+02  0.47000000000E+01 0.  1.
        -11    1    3    3    0    0 -0.15654161077E+02 -0.75725282879E+02  0.18273245654E+02  0.79456168627E+02  0.00000000000E+00 0.  1.
         11    1    3    3    0    0 -0.38713561974E+02 -0.34899918175E+02  0.10329524885E+03  0.11570070270E+03  0.00000000000E+00 0. -1.
<mgrwt>
<rscale>  0 0.16952823E+03</rscale>
<asrwt>0</asrwt>
<pdfrwt beam="1">  1        3 0.47911710E-01 0.17555264E+03</pdfrwt>
<pdfrwt beam="2">  1       -3 0.13404726E-01 0.17555264E+03</pdfrwt>
<totfact> 0.47091894E+02</totfact>
</mgrwt>
</event>
<event>
 7    1  0.5107591E-006  0.1287946E+03  0.7546771E-02  0.1243687E+00
          4   -1    0    0  501    0  0.00000000000E+00  0.00000000000E+00  0.16028032393E+03  0.16028032393E+03  0.00000000000E+00 0. -1.
         -4   -1    0    0    0  501 -0.00000000000E+00 -0.00000000000E+00 -0.13723593786E+03  0.13723593786E+03  0.00000000000E+00 0.  1.
         23    2    1    2    0    0 -0.82894827381E+01 -0.29907006390E+02  0.10706359961E+03  0.14373951655E+03  0.90748496963E+02 0.  0.
          5    1    1    2  502    0  0.63889471697E+02 -0.27684477110E+01 -0.40826703668E+02  0.76016041918E+02  0.47000000000E+01 0.  1.
         -5    1    1    2    0  502 -0.55599988959E+02  0.32675454101E+02 -0.43192509868E+02  0.77760703325E+02  0.47000000000E+01 0.  1.
        -11    1    3    3    0    0 -0.14591515917E+02  0.30434761484E+02  0.50838725491E+02  0.61022643772E+02  0.00000000000E+00 0.  1.
         11    1    3    3    0    0  0.63020331794E+01 -0.60341767874E+02  0.56224874119E+02  0.82716872778E+02  0.00000000000E+00 0. -1.
<mgrwt>
<rscale>  0 0.11964308E+03</rscale>
<asrwt>0</asrwt>
<pdfrwt beam="1">  1        4 0.24658511E-01 0.12879464E+03</pdfrwt>
<pdfrwt beam="2">  1       -4 0.21113221E-01 0.12879464E+03</pdfrwt>
<totfact> 0.51575158E+02</totfact>
</mgrwt>
</event>
<event>
 7    1  0.5107591E-006  0.1342769E+03  0.7546771E-02  0.1233939E+00
         -2   -1    0    0    0  501 -0.00000000000E+00  0.00000000000E+00  0.29997513969E+02  0.29997513969E+02  0.00000000000E+00 0.  1.
          2   -1    0    0  501    0  0.00000000000E+00 -0.00000000000E+00 -0.54953653123E+03  0.54953653123E+03  0.00000000000E+00 0. -1.
         23    2    1    2    0    0 -0.38667458637E+02  0.30600640662E+02 -0.34011697205E+03  0.35543017314E+03  0.90661357448E+02 0.  0.
          5    1    1    2  502    0  0.68114097591E+02 -0.25605061035E+01 -0.40831593932E+02  0.79595198004E+02  0.47000000000E+01 0. -1.
         -5    1    1    2    0  502 -0.29446638954E+02 -0.28040134559E+02 -0.13859045128E+03  0.14450867406E+03  0.47000000000E+01 0. -1.
        -11    1    3    3    0    0 -0.30596753779E+02  0.59755798797E+02 -0.17246094577E+03  0.18506673025E+03  0.00000000000E+00 0.  1.
         11    1    3    3    0    0 -0.80707048586E+01 -0.29155158135E+02 -0.16765602628E+03  0.17036344289E+03  0.00000000000E+00 0. -1.
<mgrwt>
<rscale>  0 0.12572596E+03</rscale>
<asrwt>0</asrwt>
<pdfrwt beam="2">  1        2 0.84544077E-01 0.13427686E+03</pdfrwt>
<pdfrwt beam="1">  1       -2 0.46150024E-02 0.13427686E+03</pdfrwt>
<totfact> 0.11749060E+04</totfact>
</mgrwt>
</event>
<event>
 7    1  0.5107591E-006  0.1292517E+03  0.7546771E-02  0.1242381E+00
          1   -1    0    0  501    0  0.00000000000E+00  0.00000000000E+00  0.41450042529E+03  0.41450042529E+03  0.00000000000E+00 0. -1.
         -1   -1    0    0    0  501 -0.00000000000E+00 -0.00000000000E+00 -0.41147393189E+02  0.41147393189E+02  0.00000000000E+00 0.  1.
         23    2    1    2    0    0 -0.29938257836E+02 -0.13574417630E+02  0.27927619424E+03  0.29578398257E+03  0.91719177815E+02 0.  0.
          5    1    1    2  502    0 -0.31437986683E+02 -0.13259057436E+02 -0.10125107533E+02  0.35899267588E+02  0.47000000000E+01 0.  1.
         -5    1    1    2    0  502  0.61376244519E+02  0.26833475066E+02  0.10420194539E+03  0.12396456832E+03  0.47000000000E+01 0.  1.
        -11    1    3    3    0    0  0.24844325176E+02  0.10661716123E+02  0.34756176519E+02  0.44032993203E+02  0.00000000000E+00 0.  1.
         11    1    3    3    0    0 -0.54782583012E+02 -0.24236133753E+02  0.24452001772E+03  0.25175098936E+03  0.00000000000E+00 0. -1.
<mgrwt>
<rscale>  0 0.12043491E+03</rscale>
<asrwt>0</asrwt>
<pdfrwt beam="1">  1        1 0.63769293E-01 0.12925167E+03</pdfrwt>
<pdfrwt beam="2">  1       -1 0.63303685E-02 0.12925167E+03</pdfrwt>
<totfact> 0.67926678E+03</totfact>
</mgrwt>
</event>
<event>
 7    1  0.5107591E-006  0.2633071E+03  0.7546771E-02  0.1107198E+00
         -3   -1    0    0    0  501 -0.00000000000E+00  0.00000000000E+00  0.98386351089E+02  0.98386351089E+02  0.00000000000E+00 0.  1.
          3   -1    0    0  501    0  0.00000000000E+00 -0.00000000000E+00 -0.82182649947E+03  0.82182649947E+03  0.00000000000E+00 0. -1.
         23    2    1    2    0    0 -0.47445021793E+02 -0.22683649565E+03 -0.55213576732E+03  0.60608580602E+03  0.93703110183E+02 0.  0.
          5    1    1    2  502    0 -0.27537987962E+02  0.50478012515E+02 -0.98905060260E+00  0.57701288976E+02  0.47000000000E+01 0.  1.
         -5    1    1    2    0  502  0.74983009755E+02  0.17635848314E+03 -0.17031533046E+03  0.25642575556E+03  0.47000000000E+01 0.  1.
        -11    1    3    3    0    0  0.12390724512E+02 -0.18787328621E+02 -0.12729144360E+03  0.12926563884E+03  0.00000000000E+00 0. -1.
         11    1    3    3    0    0 -0.59835746305E+02 -0.20804916703E+03 -0.42484432372E+03  0.47682016719E+03  0.00000000000E+00 0.  1.
<mgrwt>
<rscale>  0 0.25990810E+03</rscale>
<asrwt>0</asrwt>
<pdfrwt beam="2">  1        3 0.12643485E+00 0.26330706E+03</pdfrwt>
<pdfrwt beam="1">  1       -3 0.15136362E-01 0.26330706E+03</pdfrwt>
<totfact> 0.47566743E+01</totfact>
</mgrwt>
</event>
<event>
 7    1  0.5107591E-006  0.1288817E+03  0.7546771E-02  0.1240842E+00
          1   -1    0    0  501    0  0.00000000000E+00  0.00000000000E+00  0.15586981390E+03  0.15586981390E+03  0.00000000000E+00 0. -1.
         -1   -1    0    0    0  501 -0.00000000000E+00 -0.00000000000E+00 -0.12422479527E+03  0.12422479527E+03  0.00000000000E+00 0.  1.
         23    2    1    2    0    0  0.88258161062E+01 -0.48452846512E+02  0.92795919865E+02  0.13744141857E+03  0.88619904250E+02 0.  0.
          5    1    1    2  502    0  0.35207517846E+02 -0.13144747482E+02  0.94338713544E+01  0.39031290371E+02  0.47000000000E+01 0. -1.
         -5    1    1    2    0  502 -0.44033333953E+02  0.61597593995E+02 -0.70584772588E+02  0.10362190023E+03  0.47000000000E+01 0.  1.
        -11    1    3    3    0    0 -0.15995122033E+02 -0.53073328618E+02  0.17658990350E+02  0.58176129809E+02  0.00000000000E+00 0. -1.
         11    1    3    3    0    0  0.24820938139E+02  0.46204821056E+01  0.75136929516E+02  0.79265288759E+02  0.00000000000E+00 0.  1.
<mgrwt>
<rscale>  0 0.12137736E+03</rscale>
<asrwt>0</asrwt>
<pdfrwt beam="1">  1        1 0.23979971E-01 0.12888173E+03</pdfrwt>
<pdfrwt beam="2">  1       -1 0.19111507E-01 0.12888173E+03</pdfrwt>
<totfact> 0.41931423E+03</totfact>
</mgrwt>
</event>
<event>
 7    1  0.5107591E-006  0.2592870E+03  0.7546771E-02  0.1109786E+00
          2   -1    0    0  501    0  0.00000000000E+00  0.00000000000E+00  0.82592666168E+03  0.82592666168E+03  0.00000000000E+00 0. -1.
         -2   -1    0    0    0  501 -0.00000000000E+00 -0.00000000000E+00 -0.77571401549E+02  0.77571401549E+02  0.00000000000E+00 0.  1.
         23    2    1    2    0    0  0.21302543904E+03  0.78897904884E+02  0.40289676849E+03  0.47155901657E+03  0.91855228343E+02 0.  0.
          5    1    1    2  502    0 -0.22561279923E+02 -0.62476195105E+02  0.70049894438E+02  0.96650732110E+02  0.47000000000E+01 0.  1.
         -5    1    1    2    0  502 -0.19046415912E+03 -0.16421709779E+02  0.27540859720E+03  0.33528831455E+03  0.47000000000E+01 0.  1.
        -11    1    3    3    0    0  0.13046005804E+03  0.89079552914E+02  0.22219460036E+03  0.27262691342E+03  0.00000000000E+00 0.  1.
         11    1    3    3    0    0  0.82565380997E+02 -0.10181648030E+02  0.18070216814E+03  0.19893210315E+03  0.00000000000E+00 0. -1.
<mgrwt>
<rscale>  0 0.25564812E+03</rscale>
<asrwt>0</asrwt>
<pdfrwt beam="1">  1        2 0.12706563E+00 0.25928704E+03</pdfrwt>
<pdfrwt beam="2">  1       -2 0.11934062E-01 0.25928704E+03</pdfrwt>
<totfact> 0.16969323E+03</totfact>
</mgrwt>
</event>
<event>
 7    1  0.5107591E-006  0.1459488E+03  0.7546771E-02  0.1216129E+00
          1   -1    0    0  501    0  0.00000000000E+00  0.00000000000E+00  0.20095800786E+03  0.20095800786E+03  0.00000000000E+00 0. -1.
         -1   -1    0    0    0  501 -0.00000000000E+00 -0.00000000000E+00 -0.97094143546E+02  0.97094143546E+02  0.00000000000E+00 0.  1.
         23    2    1    2    0    0  0.69355362402E+02 -0.29440775068E+02  0.97641432849E+02  0.15197079378E+03  0.88793846754E+02 0.  0.
          5    1    1    2  502    0 -0.16420489445E+02  0.74243710797E+02  0.75798111857E+01  0.76559157546E+02  0.47000000000E+01 0.  1.
         -5    1    1    2    0  502 -0.52934872958E+02 -0.44802935730E+02 -0.13573797198E+01  0.69522200085E+02  0.47000000000E+01 0.  1.
        -11    1    3    3    0    0  0.78770098574E+02 -0.87428077660E+01  0.10163618527E+03  0.12888397601E+03  0.00000000000E+00 0. -1.
         11    1    3    3    0    0 -0.94147361719E+01 -0.20697967302E+02 -0.39947524166E+01  0.23086817764E+02  0.00000000000E+00 0.  1.
<mgrwt>
<rscale>  0 0.13793926E+03</rscale>
<asrwt>0</asrwt>
<pdfrwt beam="1">  1        1 0.30916617E-01 0.14594877E+03</pdfrwt>
<pdfrwt beam="2">  1       -1 0.14937561E-01 0.14594877E+03</pdfrwt>
<totfact> 0.45396270E+03</totfact>
</mgrwt>
</event>
<event>
 7    1  0.5107591E-006  0.1576928E+03  0.7546771E-02  0.1199526E+00
         -2   -1    0    0    0  501 -0.00000000000E+00  0.00000000000E+00  0.22504623387E+03  0.22504623387E+03  0.00000000000E+00 0.  1.
          2   -1    0    0  501    0  0.00000000000E+00 -0.00000000000E+00 -0.14327167715E+03  0.14327167715E+03  0.00000000000E+00 0. -1.
         23    2    1    2    0    0 -0.94163414355E+02  0.19394801035E+02 -0.70198228204E+02  0.14931395744E+03  0.90133011346E+02 0.  0.
          5    1    1    2  502    0 -0.14539430640E+02  0.21706096082E+02 -0.13244379736E+01  0.26578069651E+02  0.47000000000E+01 0.  1.
         -5    1    1    2    0  502  0.10870284500E+03 -0.41100897116E+02  0.15329722290E+03  0.19242588392E+03  0.47000000000E+01 0.  1.
        -11    1    3    3    0    0 -0.94980278720E+02  0.40769588100E+02 -0.36925016381E+02  0.10975823201E+03  0.00000000000E+00 0.  1.
         11    1    3    3    0    0  0.81686436439E+00 -0.21374787065E+02 -0.33273211823E+02  0.39555725432E+02  0.00000000000E+00 0. -1.
<mgrwt>
<rscale>  0 0.15077314E+03</rscale>
<asrwt>0</asrwt>
<pdfrwt beam="2">  1        2 0.22041796E-01 0.15769275E+03</pdfrwt>
<pdfrwt beam="1">  1       -2 0.34622498E-01 0.15769275E+03</pdfrwt>
<totfact> 0.19048333E+03</totfact>
</mgrwt>
</event>
<event>
 7    1  0.5107591E-006  0.2351543E+03  0.7546771E-02  0.1125984E+00
         -2   -1    0    0    0  501 -0.00000000000E+00  0.00000000000E+00  0.10436356150E+04  0.10436356150E+04  0.00000000000E+00 0. -1.
          2   -1    0    0  501    0  0.00000000000E+00 -0.00000000000E+00 -0.50318778852E+02  0.50318778852E+02  0.00000000000E+00 0.  1.
         23    2    1    2    0    0  0.85485630233E+01 -0.19899653563E+03  0.40310864348E+03  0.45862512917E+03  0.90375502936E+02 0.  0.
          5    1    1    2  502    0 -0.10393563458E+02  0.21584247547E+03  0.52406853439E+03  0.56689145267E+03  0.47000000000E+01 0.  1.
         -5    1    1    2    0  502  0.18450004346E+01 -0.16845939844E+02  0.66139658253E+02  0.68437811988E+02  0.47000000000E+01 0.  1.
        -11    1    3    3    0    0 -0.36536359495E+02 -0.11099528717E+03  0.18021794300E+03  0.21478679270E+03  0.00000000000E+00 0.  1.
         11    1    3    3    0    0  0.45084922519E+02 -0.88001248453E+02  0.22289070049E+03  0.24383833647E+03  0.00000000000E+00 0. -1.
<mgrwt>
<rscale>  0 0.23093467E+03</rscale>
<asrwt>0</asrwt>
<pdfrwt beam="2">  1        2 0.77413513E-02 0.23515434E+03</pdfrwt>
<pdfrwt beam="1">  1       -2 0.16055931E+00 0.23515434E+03</pdfrwt>
<totfact> 0.23513860E+02</totfact>
</mgrwt>
</event>
<event>
 7    1  0.5107591E-006  0.1428896E+03  0.7546771E-02  0.1219420E+00
         -2   -1    0    0    0  501 -0.00000000000E+00  0.00000000000E+00  0.38084701403E+02  0.38084701403E+02  0.00000000000E+00 0.  1.
          2   -1    0    0  501    0  0.00000000000E+00 -0.00000000000E+00 -0.45951280774E+03  0.45951280774E+03  0.00000000000E+00 0. -1.
         23    2    1    2    0    0  0.37220199620E+02 -0.58378937775E+02 -0.24162139388E+03  0.26792844760E+03  0.92797151998E+02 0.  0.
          5    1    1    2  502    0  0.10601104904E+02 -0.32613324127E+02 -0.21147712216E+02  0.40562643748E+02  0.47000000000E+01 0.  1.
         -5    1    1    2    0  502 -0.47821304525E+02  0.90992261903E+02 -0.15865900025E+03  0.18910641780E+03  0.47000000000E+01 0.  1.
        -11    1    3    3    0    0 -0.21636136946E+02 -0.50089247935E+02 -0.92427354962E+02  0.10733066256E+03  0.00000000000E+00 0. -1.
         11    1    3    3    0    0  0.58856336566E+02 -0.82896898406E+01 -0.14919403891E+03  0.16059778504E+03  0.00000000000E+00 0.  1.
<mgrwt>
<rscale>  0 0.13556816E+03</rscale>
<asrwt>0</asrwt>
<pdfrwt beam="2">  1        2 0.70694278E-01 0.14288955E+03</pdfrwt>
<pdfrwt beam="1">  1       -2 0.58591849E-02 0.14288955E+03</pdfrwt>
<totfact> 0.10030417E+04</totfact>
</mgrwt>
</event>
<event>
 7    1  0.5107591E-006  0.1522134E+03  0.7546771E-02  0.1206546E+00
         -1   -1    0    0    0  501 -0.00000000000E+00  0.00000000000E+00  0.42631606464E+03  0.42631606464E+03  0.00000000000E+00 0.  1.
          1   -1    0    0  501    0  0.00000000000E+00 -0.00000000000E+00 -0.46774131859E+02  0.46774131859E+02  0.00000000000E+00 0. -1.
         23    2    1    2    0    0  0.45864063601E+02 -0.73758184282E+02  0.13142837283E+03  0.18200727920E+03  0.91156186942E+02 0.  0.
          5    1    1    2  502    0 -0.86908917259E+02  0.56715074203E+02  0.20029162050E+03  0.22562930392E+03  0.47000000000E+01 0. -1.
         -5    1    1    2    0  502  0.41044853658E+02  0.17043110079E+02  0.47821939445E+02  0.65453613386E+02  0.47000000000E+01 0. -1.
        -11    1    3    3    0    0  0.51839223461E+02 -0.29255917971E+01  0.36738577209E+02  0.63604930876E+02  0.00000000000E+00 0. -1.
         11    1    3    3    0    0 -0.59751598601E+01 -0.70832592485E+02  0.94689795623E+02  0.11840234832E+03  0.00000000000E+00 0.  1.
<mgrwt>
<rscale>  0 0.14516250E+03</rscale>
<asrwt>0</asrwt>
<pdfrwt beam="2">  1        1 0.71960205E-02 0.15221342E+03</pdfrwt>
<pdfrwt beam="1">  1       -1 0.65587085E-01 0.15221342E+03</pdfrwt>
<totfact> 0.23901894E+03</totfact>
</mgrwt>
</event>
<event>
 7    1  0.5107591E-006  0.3144762E+03  0.7546771E-02  0.1102978E+00
         -2   -1    0    0    0  501 -0.00000000000E+00  0.00000000000E+00  0.13481839621E+03  0.13481839621E+03  0.00000000000E+00 0.  1.
          2   -1    0    0  501    0  0.00000000000E+00 -0.00000000000E+00 -0.61436571614E+03  0.61436571614E+03  0.00000000000E+00 0. -1.
         23    2    1    2    0    0 -0.59571654897E+02  0.12274986389E+03 -0.38892602848E+03  0.42191133769E+03  0.90163241336E+02 0.  0.
          5    1    1    2  502    0  0.79531666792E+02 -0.79014849133E+02 -0.18779022536E+03  0.21875989382E+03  0.47000000000E+01 0. -1.
         -5    1    1    2    0  502 -0.19960011895E+02 -0.43735014761E+02  0.97168933910E+02  0.10851288084E+03  0.47000000000E+01 0.  1.
        -11    1    3    3    0    0 -0.79444644984E+02  0.66174140857E+02 -0.25563742988E+03  0.27575526122E+03  0.00000000000E+00 0. -1.
         11    1    3    3    0    0  0.19872990087E+02  0.56575723037E+02 -0.13328859860E+03  0.14615607647E+03  0.00000000000E+00 0.  1.
<mgrwt>
<rscale>  0 0.26705307E+03</rscale>
<asrwt>0</asrwt>
<pdfrwt beam="2">  1        2 0.94517800E-01 0.31447615E+03</pdfrwt>
<pdfrwt beam="1">  1       -2 0.20741292E-01 0.31447615E+03</pdfrwt>
<totfact> 0.97043430E+02</totfact>
</mgrwt>
</event>
<event>
 7    1  0.5107591E-006  0.1274701E+03  0.7546771E-02  0.1244646E+00
         -1   -1    0    0    0  501 -0.00000000000E+00  0.00000000000E+00  0.66389675652E+02  0.66389675652E+02  0.00000000000E+00 0.  1.
          1   -1    0    0  501    0  0.00000000000E+00 -0.00000000000E+00 -0.18994184742E+03  0.18994184742E+03  0.00000000000E+00 0. -1.
         23    2    1    2    0    0  0.18018624714E+02  0.17285881336E+02 -0.49891750147E+02  0.10910894226E+03  0.93766209367E+02 0.  0.
          5    1    1    2  502    0  0.31586825375E+02  0.10970622788E+02  0.18656778186E+02  0.38577810642E+02  0.47000000000E+01 0. -1.
         -5    1    1    2    0  502 -0.49605450090E+02 -0.28256504124E+02 -0.92317199803E+02  0.10864477016E+03  0.47000000000E+01 0. -1.
        -11    1    3    3    0    0 -0.91142005020E+01 -0.24517798510E+02 -0.53074773051E+02  0.59170285017E+02  0.00000000000E+00 0. -1.
         11    1    3    3    0    0  0.27132825216E+02  0.41803679846E+02  0.31830229037E+01  0.49938657247E+02  0.00000000000E+00 0.  1.
<mgrwt>
<rscale>  0 0.11906583E+03</rscale>
<asrwt>0</asrwt>
<pdfrwt beam="2">  1        1 0.29221823E-01 0.12747012E+03</pdfrwt>
<pdfrwt beam="1">  1       -1 0.10213796E-01 0.12747012E+03</pdfrwt>
<totfact> 0.86877605E+03</totfact>
</mgrwt>
</event>
<event>
 7    1  0.5107591E-006  0.1373730E+03  0.7546771E-02  0.1230028E+00
          3   -1    0    0  501    0  0.00000000000E+00  0.00000000000E+00  0.37348605840E+03  0.37348605840E+03  0.00000000000E+00 0. -1.
         -3   -1    0    0    0  501 -0.00000000000E+00 -0.00000000000E+00 -0.48060603314E+02  0.48060603314E+02  0.00000000000E+00 0.  1.
         23    2    1    2    0    0 -0.65185866264E+01  0.56587706840E+02  0.23475801540E+03  0.25695040375E+03  0.87564397195E+02 0.  0.
          5    1    1    2  502    0  0.55757328250E+02 -0.21651793841E+02  0.84629547550E+02  0.10373972310E+03  0.47000000000E+01 0.  1.
         -5    1    1    2    0  502 -0.49238741624E+02 -0.34935912999E+02  0.60378921316E+01  0.60856534860E+02  0.47000000000E+01 0.  1.
        -11    1    3    3    0    0 -0.38153995543E+02  0.76880125163E+01  0.14355664856E+03  0.14873918198E+03  0.00000000000E+00 0. -1.
         11    1    3    3    0    0  0.31635408916E+02  0.48899694324E+02  0.91201366845E+02  0.10821122177E+03  0.00000000000E+00 0.  1.
<mgrwt>
<rscale>  0 0.12828179E+03</rscale>
<asrwt>0</asrwt>
<pdfrwt beam="1">  1        3 0.57459392E-01 0.13737301E+03</pdfrwt>
<pdfrwt beam="2">  1       -3 0.73939392E-02 0.13737301E+03</pdfrwt>
<totfact> 0.84579864E+02</totfact>
</mgrwt>
</event>
<event>
 7    1  0.5107591E-006  0.1362526E+03  0.7546771E-02  0.1231021E+00
          3   -1    0    0  501    0  0.00000000000E+00  0.00000000000E+00  0.24781240583E+03  0.24781240583E+03  0.00000000000E+00 0. -1.
         -3   -1    0    0    0  501 -0.00000000000E+00 -0.00000000000E+00 -0.61511368168E+02  0.61511368168E+02  0.00000000000E+00 0.  1.
         23    2    1    2    0    0  0.32586266688E+01 -0.54129861403E+02  0.11461394312E+03  0.15536338476E+03  0.89781762197E+02 0.  0.
          5    1    1    2  502    0 -0.74466986904E+01  0.84934789412E+02  0.84385314117E+02  0.12005141820E+03  0.47000000000E+01 0. -1.
         -5    1    1    2    0  502  0.41880720216E+01 -0.30804928009E+02 -0.12698219567E+02  0.33908971042E+02  0.47000000000E+01 0. -1.
        -11    1    3    3    0    0  0.45511139247E+02 -0.31197711973E+02  0.47493524661E+02  0.72802444414E+02  0.00000000000E+00 0. -1.
         11    1    3    3    0    0 -0.42252512579E+02 -0.22932149429E+02  0.67120418456E+02  0.82560940343E+02  0.00000000000E+00 0.  1.
<mgrwt>
<rscale>  0 0.12762614E+03</rscale>
<asrwt>0</asrwt>
<pdfrwt beam="1">  1        3 0.38124985E-01 0.13625257E+03</pdfrwt>
<pdfrwt beam="2">  1       -3 0.94632875E-02 0.13625257E+03</pdfrwt>
<totfact> 0.12695604E+03</totfact>
</mgrwt>
</event>
<event>
 7    1  0.5107591E-006  0.1345717E+03  0.7546771E-02  0.1232997E+00
         -1   -1    0    0    0  501 -0.00000000000E+00  0.00000000000E+00  0.22794706924E+02  0.22794706924E+02  0.00000000000E+00 0.  1.
          1   -1    0    0  501    0  0.00000000000E+00 -0.00000000000E+00 -0.63158536790E+03  0.63158536790E+03  0.00000000000E+00 0. -1.
         23    2    1    2    0    0 -0.19293847633E+02  0.45974279193E+02 -0.29408710384E+03  0.31211136712E+03  0.91871616574E+02 0.  0.
          5    1    1    2  502    0  0.73534431261E+01 -0.83025545982E+02 -0.27093531141E+03  0.28350546270E+03  0.47000000000E+01 0.  1.
         -5    1    1    2    0  502  0.11940404507E+02  0.37051266789E+02 -0.43768245725E+02  0.58763245012E+02  0.47000000000E+01 0.  1.
        -11    1    3    3    0    0  0.63289773241E+01 -0.15206846500E+02 -0.77709530217E+01  0.18212409102E+02  0.00000000000E+00 0.  1.
         11    1    3    3    0    0 -0.25622824958E+02  0.61181125693E+02 -0.28631615082E+03  0.29389895801E+03  0.00000000000E+00 0. -1.
<mgrwt>
<rscale>  0 0.12633519E+03</rscale>
<asrwt>0</asrwt>
<pdfrwt beam="2">  1        1 0.97166982E-01 0.13457169E+03</pdfrwt>
<pdfrwt beam="1">  1       -1 0.35068779E-02 0.13457169E+03</pdfrwt>
<totfact> 0.93639226E+03</totfact>
</mgrwt>
</event>
<event>
 7    1  0.5107591E-006  0.1324124E+03  0.7546771E-02  0.1232804E+00
          1   -1    0    0  501    0  0.00000000000E+00  0.00000000000E+00  0.19664343703E+03  0.19664343703E+03  0.00000000000E+00 0. -1.
         -1   -1    0    0    0  501 -0.00000000000E+00 -0.00000000000E+00 -0.91368301418E+02  0.91368301418E+02  0.00000000000E+00 0.  1.
         23    2    1    2    0    0  0.10261442151E+02 -0.42432025467E+02  0.10977884407E+03  0.15552274750E+03  0.10114423565E+03 0.  0.
          5    1    1    2  502    0  0.10887665436E+02  0.81086172252E+02 -0.21996527206E+02  0.84849548015E+02  0.47000000000E+01 0. -1.
         -5    1    1    2    0  502 -0.21149107586E+02 -0.38654146785E+02  0.17492818752E+02  0.47639442936E+02  0.47000000000E+01 0. -1.
        -11    1    3    3    0    0  0.35419462666E+02 -0.96550828417E+01 -0.15796228678E+01  0.36745804776E+02  0.00000000000E+00 0.  1.
         11    1    3    3    0    0 -0.25158020516E+02 -0.32776942625E+02  0.11135846694E+03  0.11877694272E+03  0.00000000000E+00 0. -1.
<mgrwt>
<rscale>  0 0.12646073E+03</rscale>
<asrwt>0</asrwt>
<pdfrwt beam="1">  1        1 0.30252836E-01 0.13241242E+03</pdfrwt>
<pdfrwt beam="2">  1       -1 0.14056662E-01 0.13241242E+03</pdfrwt>
<totfact> 0.51001663E+03</totfact>
</mgrwt>
</event>
<event>
 7    1  0.5107591E-006  0.1368243E+03  0.7546771E-02  0.1229857E+00
         -1   -1    0    0    0  501 -0.00000000000E+00  0.00000000000E+00  0.22442038218E+02  0.22442038218E+02  0.00000000000E+00 0.  1.
          1   -1    0    0  501    0  0.00000000000E+00 -0.00000000000E+00 -0.69685258877E+03  0.69685258877E+03  0.00000000000E+00 0. -1.
         23    2    1    2    0    0 -0.38962878925E+02  0.39732485745E+02 -0.38192896865E+03  0.39639158498E+03  0.90331473977E+02 0.  0.
          5    1    1    2  502    0  0.37182283036E+02 -0.56759129399E+01 -0.28521017766E+03  0.28771804531E+03  0.47000000000E+01 0. -1.
         -5    1    1    2    0  502  0.17805958884E+01 -0.34056572805E+02 -0.72714042465E+01  0.35184996698E+02  0.47000000000E+01 0. -1.
        -11    1    3    3    0    0  0.44433212534E+01  0.50632334959E+02 -0.11492328960E+03  0.12566120698E+03  0.00000000000E+00 0.  1.
         11    1    3    3    0    0 -0.43406200178E+02 -0.10899849214E+02 -0.26700567905E+03  0.27073037800E+03  0.00000000000E+00 0. -1.
<mgrwt>
<rscale>  0 0.12839502E+03</rscale>
<asrwt>0</asrwt>
<pdfrwt beam="2">  1        1 0.10720808E+00 0.13682434E+03</pdfrwt>
<pdfrwt beam="1">  1       -1 0.34526217E-02 0.13682434E+03</pdfrwt>
<totfact> 0.83531611E+03</totfact>
</mgrwt>
</event>
<event>
 7    1  0.5107591E-006  0.1368433E+03  0.7546771E-02  0.1230265E+00
          1   -1    0    0  501    0  0.00000000000E+00  0.00000000000E+00  0.40189463611E+03  0.40189463611E+03  0.00000000000E+00 0. -1.
         -1   -1    0    0    0  501 -0.00000000000E+00 -0.00000000000E+00 -0.36473065403E+02  0.36473065403E+02  0.00000000000E+00 0.  1.
         23    2    1    2    0    0  0.43858240657E+02 -0.34296116212E+02  0.16610544581E+03  0.19659712409E+03  0.89216821351E+02 0.  0.
          5    1    1    2  502    0  0.12671690939E+02  0.24124756152E+02  0.17829514094E+03  0.18042677987E+03  0.47000000000E+01 0. -1.
         -5    1    1    2    0  502 -0.56529931596E+02  0.10171360060E+02  0.21020983954E+02  0.61343797552E+02  0.47000000000E+01 0. -1.
        -11    1    3    3    0    0  0.70242332699E+02 -0.19898820562E+02  0.13413879249E+03  0.15271923263E+03  0.00000000000E+00 0.  1.
         11    1    3    3    0    0 -0.26384092042E+02 -0.14397295650E+02  0.31966653315E+02  0.43877891461E+02  0.00000000000E+00 0. -1.
<mgrwt>
<rscale>  0 0.12812509E+03</rscale>
<asrwt>0</asrwt>
<pdfrwt beam="1">  1        1 0.61829941E-01 0.13684332E+03</pdfrwt>
<pdfrwt beam="2">  1       -1 0.56112411E-02 0.13684332E+03</pdfrwt>
<totfact> 0.84830157E+03</totfact>
</mgrwt>
</event>
<event>
 7    1  0.5107591E-006  0.1390245E+03  0.7546771E-02  0.1224010E+00
          2   -1    0    0  501    0  0.00000000000E+00  0.00000000000E+00  0.41499551617E+03  0.41499551617E+03  0.00000000000E+00 0. -1.
         -2   -1    0    0    0  501 -0.00000000000E+00 -0.00000000000E+00 -0.42198127192E+02  0.42198127192E+02  0.00000000000E+00 0.  1.
         23    2    1    2    0    0 -0.60657929323E+02  0.48614928895E+01  0.23588976766E+03  0.26207445366E+03  0.96623073191E+02 0.  0.
          5    1    1    2  502    0 -0.15719693663E+02  0.36585316004E+02  0.84503249749E+02  0.93533327398E+02  0.47000000000E+01 0. -1.
         -5    1    1    2    0  502  0.76377622986E+02 -0.41446808894E+02  0.52404371578E+02  0.10158586231E+03  0.47000000000E+01 0. -1.
        -11    1    3    3    0    0 -0.32637883553E+02  0.37741245325E+02  0.47835567482E+02  0.69122171247E+02  0.00000000000E+00 0.  1.
         11    1    3    3    0    0 -0.28020045770E+02 -0.32879752435E+02  0.18805420017E+03  0.19295228241E+03  0.00000000000E+00 0. -1.
<mgrwt>
<rscale>  0 0.13235005E+03</rscale>
<asrwt>0</asrwt>
<pdfrwt beam="1">  1        2 0.63845461E-01 0.13902446E+03</pdfrwt>
<pdfrwt beam="2">  1       -2 0.64920198E-02 0.13902446E+03</pdfrwt>
<totfact> 0.95624032E+03</totfact>
</mgrwt>
</event>
<event>
 7    1  0.5107591E-006  0.1133894E+03  0.7546771E-02  0.1264469E+00
         -2   -1    0    0    0  501 -0.00000000000E+00  0.00000000000E+00  0.13432595236E+03  0.13432595236E+03  0.00000000000E+00 0.  1.
          2   -1    0    0  501    0  0.00000000000E+00 -0.00000000000E+00 -0.17716371694E+03  0.17716371694E+03  0.00000000000E+00 0. -1.
         23    2    1    2    0    0 -0.23613604919E+02 -0.63202195644E+00 -0.13596773763E+03  0.16475743317E+03  0.89998801780E+02 0.  0.
          5    1    1    2  502    0 -0.44578494491E+02 -0.18305135899E+01  0.33498354226E+02  0.55989487289E+02  0.47000000000E+01 0. -1.
         -5    1    1    2    0  502  0.68192099410E+02  0.24625355463E+01  0.59631618820E+02  0.90742748836E+02  0.47000000000E+01 0.  1.
        -11    1    3    3    0    0 -0.84944220427E+01  0.35421834111E+02 -0.18299522274E+02  0.40764372350E+02  0.00000000000E+00 0.  1.
         11    1    3    3    0    0 -0.15119182876E+02 -0.36053856068E+02 -0.11766821535E+03  0.12399306082E+03  0.00000000000E+00 0. -1.
<mgrwt>
<rscale>  0 0.10792081E+03</rscale>
<asrwt>0</asrwt>
<pdfrwt beam="2">  1        2 0.27255956E-01 0.11338941E+03</pdfrwt>
<pdfrwt beam="1">  1       -2 0.20665531E-01 0.11338941E+03</pdfrwt>
<totfact> 0.36878569E+03</totfact>
</mgrwt>
</event>
<event>
 7    1  0.5107591E-006  0.1847460E+03  0.7546771E-02  0.1167897E+00
         -2   -1    0    0    0  501 -0.00000000000E+00  0.00000000000E+00  0.72914087423E+02  0.72914087423E+02  0.00000000000E+00 0.  1.
          2   -1    0    0  501    0  0.00000000000E+00 -0.00000000000E+00 -0.42210546220E+03  0.42210546220E+03  0.00000000000E+00 0. -1.
         23    2    1    2    0    0  0.12141713015E+03 -0.78859927096E+02 -0.16493726960E+03  0.23409681010E+03  0.81461684252E+02 0.  0.
          5    1    1    2  502    0 -0.52108516539E+02  0.93709057240E+02 -0.14293318010E+03  0.17874190577E+03  0.47000000000E+01 0. -1.
         -5    1    1    2    0  502 -0.69308613614E+02 -0.14849130145E+02 -0.41320925087E+02  0.82180833759E+02  0.47000000000E+01 0.  1.
        -11    1    3    3    0    0  0.35838671569E+02  0.40244684430E+01 -0.80089138218E+02  0.87834371328E+02  0.00000000000E+00 0. -1.
         11    1    3    3    0    0  0.85578458584E+02 -0.82884395539E+02 -0.84848131381E+02  0.14626243877E+03  0.00000000000E+00 0.  1.
<mgrwt>
<rscale>  0 0.17990330E+03</rscale>
<asrwt>0</asrwt>
<pdfrwt beam="2">  1        2 0.64939302E-01 0.18474604E+03</pdfrwt>
<pdfrwt beam="1">  1       -2 0.11217552E-01 0.18474604E+03</pdfrwt>
<totfact> 0.40662178E+03</totfact>
</mgrwt>
</event>
<event>
 7    1  0.5107591E-006  0.1357686E+03  0.7546771E-02  0.1231444E+00
         -2   -1    0    0    0  501 -0.00000000000E+00  0.00000000000E+00  0.48442726253E+02  0.48442726253E+02  0.00000000000E+00 0. -1.
          2   -1    0    0  501    0  0.00000000000E+00 -0.00000000000E+00 -0.32674025380E+03  0.32674025380E+03  0.00000000000E+00 0.  1.
         23    2    1    2    0    0  0.39891580178E+02  0.34877901377E+02 -0.17677102006E+03  0.20565201406E+03  0.90757650797E+02 0.  0.
          5    1    1    2  502    0 -0.77568098874E+02 -0.34188882745E+02 -0.10047599276E+03  0.13154164659E+03  0.47000000000E+01 0.  1.
         -5    1    1    2    0  502  0.37676518696E+02 -0.68901863187E+00 -0.10505147234E+01  0.37989319406E+02  0.47000000000E+01 0.  1.
        -11    1    3    3    0    0  0.78549500706E+01  0.28246943368E+02 -0.37412114363E+01  0.29556500355E+02  0.00000000000E+00 0. -1.
         11    1    3    3    0    0  0.32036630107E+02  0.66309580095E+01 -0.17302980863E+03  0.17609551370E+03  0.00000000000E+00 0.  1.
<mgrwt>
<rscale>  0 0.12734857E+03</rscale>
<asrwt>0</asrwt>
<pdfrwt beam="2">  1        2 0.50267731E-01 0.13576861E+03</pdfrwt>
<pdfrwt beam="1">  1       -2 0.74527272E-02 0.13576861E+03</pdfrwt>
<totfact> 0.99707016E+03</totfact>
</mgrwt>
</event>
<event>
 7    1  0.5107591E-006  0.1496619E+03  0.7546771E-02  0.1209871E+00
         -2   -1    0    0    0  501 -0.00000000000E+00  0.00000000000E+00  0.11058161888E+03  0.11058161888E+03  0.00000000000E+00 0.  1.
          2   -1    0    0  501    0  0.00000000000E+00 -0.00000000000E+00 -0.17079108164E+03  0.17079108164E+03  0.00000000000E+00 0. -1.
         23    2    1    2    0    0  0.81561448013E+02  0.11048514986E+02 -0.11073343045E+02  0.12385109936E+03  0.91881099260E+02 0.  0.
          5    1    1    2  502    0  0.14489170326E+02 -0.22314141103E+02  0.24033773754E+02  0.36160326751E+02  0.47000000000E+01 0. -1.
         -5    1    1    2    0  502 -0.96050618339E+02  0.11265626117E+02 -0.73169893468E+02  0.12136127441E+03  0.47000000000E+01 0. -1.
        -11    1    3    3    0    0 -0.18298550933E+02  0.14269069298E+02 -0.51164302355E+01  0.23761758421E+02  0.00000000000E+00 0.  1.
         11    1    3    3    0    0  0.99859998946E+02 -0.32205543122E+01 -0.59569128091E+01  0.10008934094E+03  0.00000000000E+00 0. -1.
<mgrwt>
<rscale>  0 0.14260107E+03</rscale>
<asrwt>0</asrwt>
<pdfrwt beam="2">  1        2 0.26275551E-01 0.14966194E+03</pdfrwt>
<pdfrwt beam="1">  1       -2 0.17012557E-01 0.14966194E+03</pdfrwt>
<totfact> 0.54084462E+03</totfact>
</mgrwt>
</event>
<event>
 7    1  0.5107591E-006  0.1787680E+03  0.7546771E-02  0.1175091E+00
         -1   -1    0    0    0  501 -0.00000000000E+00  0.00000000000E+00  0.17572589561E+02  0.17572589561E+02  0.00000000000E+00 0. -1.
          1   -1    0    0  501    0  0.00000000000E+00 -0.00000000000E+00 -0.15983662408E+04  0.15983662408E+04  0.00000000000E+00 0.  1.
         23    2    1    2    0    0 -0.30078616832E+02 -0.12411635750E+03 -0.67955780095E+03  0.69714393540E+03  0.88889079506E+02 0.  0.
          5    1    1    2  502    0 -0.21640128568E+02  0.11652282588E+03 -0.73386323031E+03  0.74338630262E+03  0.47000000000E+01 0.  1.
         -5    1    1    2    0  502  0.51718745399E+02  0.75935316168E+01 -0.16737262002E+03  0.17540859238E+03  0.47000000000E+01 0.  1.
        -11    1    3    3    0    0 -0.28428659453E+02 -0.21547905611E+02 -0.65566427514E+02  0.74642195382E+02  0.00000000000E+00 0.  1.
         11    1    3    3    0    0 -0.16499573790E+01 -0.10256845188E+03 -0.61399137343E+03  0.62250174002E+03  0.00000000000E+00 0. -1.
<mgrwt>
<rscale>  0 0.17267069E+03</rscale>
<asrwt>0</asrwt>
<pdfrwt beam="2">  1        1 0.24590249E+00 0.17876801E+03</pdfrwt>
<pdfrwt beam="1">  1       -1 0.27034754E-02 0.17876801E+03</pdfrwt>
<totfact> 0.27045967E+03</totfact>
</mgrwt>
</event>
<event>
 7    1  0.5107591E-006  0.1308691E+03  0.7546771E-02  0.1239337E+00
         -1   -1    0    0    0  501 -0.00000000000E+00  0.00000000000E+00  0.11110044964E+02  0.11110044964E+02  0.00000000000E+00 0.  1.
          1   -1    0    0  501    0  0.00000000000E+00 -0.00000000000E+00 -0.11979642705E+04  0.11979642705E+04  0.00000000000E+00 0. -1.
         23    2    1    2    0    0 -0.14549471768E+02  0.35890023830E+02 -0.52203585448E+03  0.53149760559E+03  0.92024401374E+02 0.  0.
          5    1    1    2  502    0  0.21220873124E+02 -0.81318110652E+02 -0.45802444627E+03  0.46569458227E+03  0.47000000000E+01 0.  1.
         -5    1    1    2    0  502 -0.66714013564E+01  0.45428086822E+02 -0.20679392479E+03  0.21188212760E+03  0.47000000000E+01 0.  1.
        -11    1    3    3    0    0  0.14607149875E+02  0.59983050025E+02 -0.30397301583E+03  0.31017886690E+03  0.00000000000E+00 0.  1.
         11    1    3    3    0    0 -0.29156621642E+02 -0.24093026194E+02 -0.21806283865E+03  0.22131873869E+03  0.00000000000E+00 0. -1.
<mgrwt>
<rscale>  0 0.12230815E+03</rscale>
<asrwt>0</asrwt>
<pdfrwt beam="2">  1        1 0.18430218E+00 0.13086914E+03</pdfrwt>
<pdfrwt beam="1">  1       -1 0.17092378E-02 0.13086914E+03</pdfrwt>
<totfact> 0.95849879E+03</totfact>
</mgrwt>
</event>
<event>
 7    1  0.5107591E-006  0.3058377E+03  0.7546771E-02  0.1083732E+00
          1   -1    0    0  501    0  0.00000000000E+00  0.00000000000E+00  0.17344772989E+04  0.17344772989E+04  0.00000000000E+00 0. -1.
         -1   -1    0    0    0  501 -0.00000000000E+00 -0.00000000000E+00 -0.60926929724E+02  0.60926929724E+02  0.00000000000E+00 0.  1.
         23    2    1    2    0    0 -0.56788459737E+02 -0.27329195305E+03  0.11672623439E+04  0.12039109642E+04  0.94798784125E+02 0.  0.
          5    1    1    2  502    0  0.19573890666E+02  0.13900938443E+03  0.37315830202E+03  0.39871788839E+03  0.47000000000E+01 0. -1.
         -5    1    1    2    0  502  0.37214569071E+02  0.13428256862E+03  0.13312972322E+03  0.19277537600E+03  0.47000000000E+01 0. -1.
        -11    1    3    3    0    0  0.21747676925E+02 -0.12298513121E+03  0.52239843753E+03  0.53712049997E+03  0.00000000000E+00 0. -1.
         11    1    3    3    0    0 -0.78536136662E+02 -0.15030682185E+03  0.64486390638E+03  0.66679046425E+03  0.00000000000E+00 0.  1.
<mgrwt>
<rscale>  0 0.30303718E+03</rscale>
<asrwt>0</asrwt>
<pdfrwt beam="1">  1        1 0.26684262E+00 0.30583773E+03</pdfrwt>
<pdfrwt beam="2">  1       -1 0.93733751E-02 0.30583773E+03</pdfrwt>
<totfact> 0.33716402E+02</totfact>
</mgrwt>
</event>
<event>
 7    1  0.5107591E-006  0.1955511E+03  0.7546771E-02  0.1157569E+00
         -2   -1    0    0    0  501 -0.00000000000E+00  0.00000000000E+00  0.58058468405E+02  0.58058468405E+02  0.00000000000E+00 0.  1.
          2   -1    0    0  501    0  0.00000000000E+00 -0.00000000000E+00 -0.77243841493E+03  0.77243841493E+03  0.00000000000E+00 0. -1.
         23    2    1    2    0    0  0.14885805775E+03  0.21369818156E+02 -0.53973468697E+03  0.56831143696E+03  0.95126056195E+02 0.  0.
          5    1    1    2  502    0 -0.53308082343E+02 -0.70076313379E+02 -0.76594508390E+02  0.11679576215E+03  0.47000000000E+01 0.  1.
         -5    1    1    2    0  502 -0.95549975409E+02  0.48706495223E+02 -0.98050751158E+02  0.14538968423E+03  0.47000000000E+01 0.  1.
        -11    1    3    3    0    0  0.43233052588E+02  0.51742894478E+02 -0.18279455935E+03  0.19483396750E+03  0.00000000000E+00 0. -1.
         11    1    3    3    0    0  0.10562500516E+03 -0.30373076322E+02 -0.35694012762E+03  0.37347746945E+03  0.00000000000E+00 0.  1.
<mgrwt>
<rscale>  0 0.19099261E+03</rscale>
<asrwt>0</asrwt>
<pdfrwt beam="2">  1        2 0.11883668E+00 0.19555112E+03</pdfrwt>
<pdfrwt beam="1">  1       -2 0.89320719E-02 0.19555112E+03</pdfrwt>
<totfact> 0.29198076E+03</totfact>
</mgrwt>
</event>
<event>
 7    1  0.5107591E-006  0.1392548E+03  0.7546771E-02  0.1226163E+00
          1   -1    0    0  501    0  0.00000000000E+00  0.00000000000E+00  0.60562381531E+03  0.60562381531E+03  0.00000000000E+00 0. -1.
         -1   -1    0    0    0  501 -0.00000000000E+00 -0.00000000000E+00 -0.41621718496E+02  0.41621718496E+02  0.00000000000E+00 0.  1.
         23    2    1    2    0    0 -0.25204144563E+02  0.55967738155E+02  0.46207108571E+03  0.47467138851E+03  0.89641520538E+02 0.  0.
          5    1    1    2  502    0 -0.62280366835E+01 -0.85062541178E+02  0.33596005977E+02  0.91788920738E+02  0.47000000000E+01 0. -1.
         -5    1    1    2    0  502  0.31432181247E+02  0.29094803023E+02  0.68335005120E+02  0.80785224551E+02  0.47000000000E+01 0. -1.
        -11    1    3    3    0    0 -0.44902958547E+02 -0.26024610229E+01  0.15257115065E+03  0.15906289480E+03  0.00000000000E+00 0. -1.
         11    1    3    3    0    0  0.19698813984E+02  0.58570199178E+02  0.30949993506E+03  0.31560849372E+03  0.00000000000E+00 0.  1.
<mgrwt>
<rscale>  0 0.13087534E+03</rscale>
<asrwt>0</asrwt>
<pdfrwt beam="1">  1        1 0.93172888E-01 0.13925482E+03</pdfrwt>
<pdfrwt beam="2">  1       -1 0.64033417E-02 0.13925482E+03</pdfrwt>
<totfact> 0.40831427E+03</totfact>
</mgrwt>
</event>
<event>
 7    1  0.5107591E-006  0.1469369E+03  0.7546771E-02  0.1223876E+00
         -1   -1    0    0    0  501 -0.00000000000E+00  0.00000000000E+00  0.64670790968E+02  0.64670790968E+02  0.00000000000E+00 0.  1.
          1   -1    0    0  501    0  0.00000000000E+00 -0.00000000000E+00 -0.24251078781E+03  0.24251078781E+03  0.00000000000E+00 0. -1.
         23    2    1    2    0    0 -0.27510832521E+02  0.30956216418E+02 -0.10582485473E+03  0.14354587699E+03  0.87700545497E+02 0.  0.
          5    1    1    2  502    0 -0.39001900367E+02  0.22606694383E+02  0.85660676034E+01  0.46126764219E+02  0.47000000000E+01 0. -1.
         -5    1    1    2    0  502  0.66512732888E+02 -0.53562910801E+02 -0.80581209706E+02  0.11750893756E+03  0.47000000000E+01 0.  1.
        -11    1    3    3    0    0  0.17956494721E+02  0.30227750434E+02 -0.85747277983E+01  0.36189481287E+02  0.00000000000E+00 0.  1.
         11    1    3    3    0    0 -0.45467327243E+02  0.72846598324E+00 -0.97250126936E+02  0.10735639570E+03  0.00000000000E+00 0. -1.
<mgrwt>
<rscale>  0 0.13244234E+03</rscale>
<asrwt>0</asrwt>
<pdfrwt beam="2">  1        1 0.37309353E-01 0.14693693E+03</pdfrwt>
<pdfrwt beam="1">  1       -1 0.99493522E-02 0.14693693E+03</pdfrwt>
<totfact> 0.67453176E+03</totfact>
</mgrwt>
</event>
<event>
 7    1  0.5107591E-006  0.1943663E+03  0.7546771E-02  0.1159833E+00
          2   -1    0    0  501    0  0.00000000000E+00  0.00000000000E+00  0.62232630117E+03  0.62232630117E+03  0.00000000000E+00 0. -1.
         -2   -1    0    0    0  501 -0.00000000000E+00 -0.00000000000E+00 -0.69178669197E+02  0.69178669197E+02  0.00000000000E+00 0.  1.
         23    2    1    2    0    0 -0.79888273321E+02  0.12558154862E+03  0.42566018552E+03  0.45905858667E+03  0.85996109759E+02 0.  0.
          5    1    1    2  502    0  0.74310829090E+02 -0.11904964805E+03  0.15146929010E+03  0.20654286205E+03  0.47000000000E+01 0. -1.
         -5    1    1    2    0  502  0.55774442307E+01 -0.65319005688E+01 -0.23981843643E+02  0.25903521646E+02  0.47000000000E+01 0. -1.
        -11    1    3    3    0    0 -0.13499573924E+02  0.69095591289E+02  0.10250171826E+03  0.12435047840E+03  0.00000000000E+00 0.  1.
         11    1    3    3    0    0 -0.66388699397E+02  0.56485957329E+02  0.32315846726E+03  0.33470810827E+03  0.00000000000E+00 0. -1.
<mgrwt>
<rscale>  0 0.18848732E+03</rscale>
<asrwt>0</asrwt>
<pdfrwt beam="1">  1        2 0.95742504E-01 0.19436634E+03</pdfrwt>
<pdfrwt beam="2">  1       -2 0.10642873E-01 0.19436634E+03</pdfrwt>
<totfact> 0.28691759E+03</totfact>
</mgrwt>
</event>
<event>
 7    1  0.5107591E-006  0.1280316E+03  0.7546771E-02  0.1244905E+00
          1   -1    0    0  501    0  0.00000000000E+00  0.00000000000E+00  0.17596776913E+03  0.17596776913E+03  0.00000000000E+00 0. -1.
         -1   -1    0    0    0  501 -0.00000000000E+00 -0.00000000000E+00 -0.75507388577E+02  0.75507388577E+02  0.00000000000E+00 0.  1.
         23    2    1    2    0    0  0.11880880878E+02 -0.24955561144E+02  0.74263565501E+02  0.12079090561E+03  0.91167046423E+02 0.  0.
          5    1    1    2  502    0  0.48078991297E+02 -0.21898706872E+01  0.40603768871E+02  0.63143811924E+02  0.47000000000E+01 0.  1.
         -5    1    1    2    0  502 -0.59959872175E+02  0.27145431831E+02 -0.14406953822E+02  0.67540440175E+02  0.47000000000E+01 0.  1.
        -11    1    3    3    0    0  0.17446769102E+02  0.36779333049E+01 -0.17208800886E+02  0.24780229487E+02  0.00000000000E+00 0.  1.
         11    1    3    3    0    0 -0.55658882234E+01 -0.28633494449E+02  0.91472366388E+02  0.96010676118E+02  0.00000000000E+00 0. -1.
<mgrwt>
<rscale>  0 0.11891072E+03</rscale>
<asrwt>0</asrwt>
<pdfrwt beam="1">  1        1 0.27071964E-01 0.12803164E+03</pdfrwt>
<pdfrwt beam="2">  1       -1 0.11616521E-01 0.12803164E+03</pdfrwt>
<totfact> 0.78483955E+03</totfact>
</mgrwt>
</event>
<event>
 7    1  0.5107591E-006  0.1528415E+03  0.7546771E-02  0.1205963E+00
          2   -1    0    0  501    0  0.00000000000E+00  0.00000000000E+00  0.56597210233E+03  0.56597210233E+03  0.00000000000E+00 0. -1.
         -2   -1    0    0    0  501 -0.00000000000E+00 -0.00000000000E+00 -0.34715890059E+02  0.34715890059E+02  0.00000000000E+00 0.  1.
         23    2    1    2    0    0 -0.33209372125E+02  0.81438892838E+02  0.27185698100E+03  0.29960910488E+03  0.90134576840E+02 0.  0.
          5    1    1    2  502    0 -0.96642865202E+01  0.25732815692E+02  0.10256986358E+03  0.10629319429E+03  0.47000000000E+01 0.  1.
         -5    1    1    2    0  502  0.42873658645E+02 -0.10717170853E+03  0.15682936769E+03  0.19478569322E+03  0.47000000000E+01 0.  1.
        -11    1    3    3    0    0 -0.67673995934E+01  0.52784346903E+02  0.24855091523E+03  0.25418407196E+03  0.00000000000E+00 0. -1.
         11    1    3    3    0    0 -0.26441972532E+02  0.28654545934E+02  0.23306065775E+02  0.45425032922E+02  0.00000000000E+00 0.  1.
<mgrwt>
<rscale>  0 0.14561861E+03</rscale>
<asrwt>0</asrwt>
<pdfrwt beam="1">  1        2 0.87072625E-01 0.15284154E+03</pdfrwt>
<pdfrwt beam="2">  1       -2 0.53409066E-02 0.15284154E+03</pdfrwt>
<totfact> 0.92052231E+03</totfact>
</mgrwt>
</event>
<event>
 7    1  0.5107591E-006  0.1168884E+03  0.7546771E-02  0.1258739E+00
          2   -1    0    0  501    0  0.00000000000E+00  0.00000000000E+00  0.40803685295E+03  0.40803685295E+03  0.00000000000E+00 0. -1.
         -2   -1    0    0    0  501 -0.00000000000E+00 -0.00000000000E+00 -0.32128054219E+02  0.32128054219E+02  0.00000000000E+00 0.  1.
         23    2    1    2    0    0  0.20441778148E+02 -0.90871510139E+01  0.25434713883E+03  0.27152285200E+03  0.92367470041E+02 0.  0.
          5    1    1    2  502    0 -0.49968848620E+02 -0.94854018352E+01  0.12323876431E+03  0.13340442912E+03  0.47000000000E+01 0. -1.
         -5    1    1    2    0  502  0.29527070472E+02  0.18572552849E+02 -0.16771044098E+01  0.35237626044E+02  0.47000000000E+01 0.  1.
        -11    1    3    3    0    0  0.21397719228E+02  0.34616239881E+02  0.18593996324E+03  0.19034131549E+03  0.00000000000E+00 0.  1.
         11    1    3    3    0    0 -0.95594107987E+00 -0.43703390895E+02  0.68407175592E+02  0.81181536519E+02  0.00000000000E+00 0. -1.
<mgrwt>
<rscale>  0 0.11099484E+03</rscale>
<asrwt>0</asrwt>
<pdfrwt beam="1">  1        2 0.62774896E-01 0.11688843E+03</pdfrwt>
<pdfrwt beam="2">  1       -2 0.49427779E-02 0.11688843E+03</pdfrwt>
<totfact> 0.14497277E+04</totfact>
</mgrwt>
</event>
<event>
 7    1  0.5107591E-006  0.1385606E+03  0.7546771E-02  0.1226680E+00
          1   -1    0    0  501    0  0.00000000000E+00  0.00000000000E+00  0.18439661492E+03  0.18439661492E+03  0.00000000000E+00 0. -1.
         -1   -1    0    0    0  501 -0.00000000000E+00 -0.00000000000E+00 -0.10437759217E+03  0.10437759217E+03  0.00000000000E+00 0.  1.
         23    2    1    2    0    0  0.18961837669E+02 -0.56697591616E+02  0.10094711278E+03  0.14864199439E+03  0.91268585692E+02 0.  0.
          5    1    1    2  502    0  0.30293079494E+02  0.72358467181E+02  0.10770999808E+02  0.79319120487E+02  0.47000000000E+01 0. -1.
         -5    1    1    2    0  502 -0.49254917163E+02 -0.15660875565E+02 -0.31699089841E+02  0.60813092217E+02  0.47000000000E+01 0. -1.
        -11    1    3    3    0    0  0.21900993661E+02 -0.30482691690E+02 -0.64218328175E+01  0.38080020388E+02  0.00000000000E+00 0.  1.
         11    1    3    3    0    0 -0.29391559920E+01 -0.26214899925E+02  0.10736894560E+03  0.11056197400E+03  0.00000000000E+00 0. -1.
<mgrwt>
<rscale>  0 0.13052452E+03</rscale>
<asrwt>0</asrwt>
<pdfrwt beam="1">  1        1 0.28368710E-01 0.13856064E+03</pdfrwt>
<pdfrwt beam="2">  1       -1 0.16058091E-01 0.13856064E+03</pdfrwt>
<totfact> 0.44966736E+03</totfact>
</mgrwt>
</event>
<event>
 7    1  0.5107591E-006  0.1676057E+03  0.7546771E-02  0.1184387E+00
          1   -1    0    0  501    0  0.00000000000E+00  0.00000000000E+00  0.51843626391E+03  0.51843626391E+03  0.00000000000E+00 0. -1.
         -1   -1    0    0    0  501 -0.00000000000E+00 -0.00000000000E+00 -0.59684139875E+02  0.59684139875E+02  0.00000000000E+00 0.  1.
         23    2    1    2    0    0  0.11986212635E+03  0.29970863502E+02  0.33938166846E+03  0.37235115032E+03  0.90555398858E+02 0.  0.
          5    1    1    2  502    0  0.19907282323E+02 -0.17348317717E+02  0.24332540721E+02  0.36213623887E+02  0.47000000000E+01 0. -1.
         -5    1    1    2    0  502 -0.13976940867E+03 -0.12622545785E+02  0.95037914849E+02  0.16955562958E+03  0.47000000000E+01 0.  1.
        -11    1    3    3    0    0  0.52445507009E+02  0.48736354962E+02  0.24243927904E+03  0.25278957162E+03  0.00000000000E+00 0. -1.
         11    1    3    3    0    0  0.67416619339E+02 -0.18765491459E+02  0.96942389427E+02  0.11956157870E+03  0.00000000000E+00 0.  1.
<mgrwt>
<rscale>  0 0.16387786E+03</rscale>
<asrwt>0</asrwt>
<pdfrwt beam="1">  1        1 0.79759422E-01 0.16760573E+03</pdfrwt>
<pdfrwt beam="2">  1       -1 0.91821757E-02 0.16760573E+03</pdfrwt>
<totfact> 0.29402754E+03</totfact>
</mgrwt>
</event>
<event>
 7    1  0.5107591E-006  0.1353650E+03  0.7546771E-02  0.1232442E+00
         -1   -1    0    0    0  501 -0.00000000000E+00  0.00000000000E+00  0.13389537129E+03  0.13389537129E+03  0.00000000000E+00 0.  1.
          1   -1    0    0  501    0  0.00000000000E+00 -0.00000000000E+00 -0.10816887667E+03  0.10816887667E+03  0.00000000000E+00 0. -1.
         23    2    1    2    0    0  0.15555611827E+02 -0.49589295560E+02 -0.19516054880E+01  0.10389859047E+03  0.89944610984E+02 0.  0.
          5    1    1    2  502    0  0.26508687587E+02 -0.11383690417E+02  0.52342471611E+02  0.59951007159E+02  0.47000000000E+01 0.  1.
         -5    1    1    2    0  502 -0.42064299414E+02  0.60972985977E+02 -0.24664371503E+02  0.78214650327E+02  0.47000000000E+01 0.  1.
        -11    1    3    3    0    0  0.42801424565E+02 -0.53342230888E+02 -0.19692707258E+02  0.71169925250E+02  0.00000000000E+00 0. -1.
         11    1    3    3    0    0 -0.27245812738E+02  0.37529353281E+01  0.17741101770E+02  0.32728665224E+02  0.00000000000E+00 0.  1.
<mgrwt>
<rscale>  0 0.12669601E+03</rscale>
<asrwt>0</asrwt>
<pdfrwt beam="2">  1        1 0.16641366E-01 0.13536496E+03</pdfrwt>
<pdfrwt beam="1">  1       -1 0.20599288E-01 0.13536496E+03</pdfrwt>
<totfact> 0.59327744E+03</totfact>
</mgrwt>
</event>
<event>
 6    1  0.5107591E-006  0.5007704E+03  0.7546771E-02  0.1013578E+00
          1   -1    0    0  501    0  0.00000000000E+00  0.00000000000E+00  0.10095029369E+04  0.10095029369E+04  0.00000000000E+00 0. -1.
         -1   -1    0    0    0  501 -0.00000000000E+00 -0.00000000000E+00 -0.62102600597E+02  0.62102600597E+02  0.00000000000E+00 0.  1.
          5    1    1    2  502    0  0.59088011348E+02  0.44783459711E+02  0.13872562877E+03  0.15736531202E+03  0.47000000000E+01 0.  1.
         -5    1    1    2    0  502  0.13854319535E+02 -0.61927366301E+02  0.24425522023E+03  0.25240769298E+03  0.47000000000E+01 0.  1.
        -11    1    1    2    0    0 -0.24262877708E+02 -0.10032558501E+03  0.23089537136E+02  0.10576879014E+03  0.00000000000E+00 0.  1.
         11    1    1    2    0    0 -0.48679453174E+02  0.11746949160E+03  0.54132995019E+03  0.55606374238E+03  0.00000000000E+00 0. -1.
<mgrwt>
<rscale>  0 0.50077044E+03</rscale>
<asrwt>0</asrwt>
<pdfrwt beam="1">  1        1 0.15530813E+00 0.50077044E+03</pdfrwt>
<pdfrwt beam="2">  1       -1 0.95542470E-02 0.50077044E+03</pdfrwt>
<totfact> 0.10233984E+03</totfact>
</mgrwt>
</event>
<event>
 7    1  0.5107591E-006  0.1367615E+03  0.7546771E-02  0.1229705E+00
          2   -1    0    0  501    0  0.00000000000E+00  0.00000000000E+00  0.82987745140E+03  0.82987745140E+03  0.00000000000E+00 0. -1.
         -2   -1    0    0    0  501 -0.00000000000E+00 -0.00000000000E+00 -0.18901034573E+02  0.18901034573E+02  0.00000000000E+00 0.  1.
         23    2    1    2    0    0 -0.55494401123E+02 -0.32185625258E+00  0.45792329708E+03  0.47016230485E+03  0.90989640895E+02 0.  0.
          5    1    1    2  502    0  0.76569688382E+02  0.17165574130E+02  0.11685584428E+03  0.14083661618E+03  0.47000000000E+01 0. -1.
         -5    1    1    2    0  502 -0.21075287259E+02 -0.16843717877E+02  0.23619727546E+03  0.23777956494E+03  0.47000000000E+01 0. -1.
        -11    1    3    3    0    0  0.22509865892E+02 -0.10456835585E+02  0.68100363053E+02  0.72482404215E+02  0.00000000000E+00 0.  1.
         11    1    3    3    0    0 -0.78004267016E+02  0.10134979332E+02  0.38982293403E+03  0.39767990064E+03  0.00000000000E+00 0. -1.
<mgrwt>
<rscale>  0 0.12849602E+03</rscale>
<asrwt>0</asrwt>
<pdfrwt beam="1">  1        2 0.12767343E+00 0.13676150E+03</pdfrwt>
<pdfrwt beam="2">  1       -2 0.29078521E-02 0.13676150E+03</pdfrwt>
<totfact> 0.14340658E+04</totfact>
</mgrwt>
</event>
<event>
 7    1  0.5107591E-006  0.1293734E+03  0.7546771E-02  0.1234893E+00
         -2   -1    0    0    0  501 -0.00000000000E+00  0.00000000000E+00  0.12948676599E+03  0.12948676599E+03  0.00000000000E+00 0.  1.
          2   -1    0    0  501    0  0.00000000000E+00 -0.00000000000E+00 -0.14599407777E+03  0.14599407777E+03  0.00000000000E+00 0. -1.
         23    2    1    2    0    0  0.50613115196E+02 -0.17407656800E+02 -0.72629617792E+02  0.13445893303E+03  0.99696686731E+02 0.  0.
          5    1    1    2  502    0 -0.24326365242E+01  0.32407518672E+02 -0.27773248456E+02  0.43007072868E+02  0.47000000000E+01 0. -1.
         -5    1    1    2    0  502 -0.48180478672E+02 -0.14999861872E+02  0.83895554467E+02  0.98014837859E+02  0.47000000000E+01 0.  1.
        -11    1    3    3    0    0 -0.27122688120E+02 -0.19729307730E+02 -0.33482024829E+02  0.47391262707E+02  0.00000000000E+00 0.  1.
         11    1    3    3    0    0  0.77735803316E+02  0.23216509299E+01 -0.39147592963E+02  0.87067670320E+02  0.00000000000E+00 0. -1.
<mgrwt>
<rscale>  0 0.12511301E+03</rscale>
<asrwt>0</asrwt>
<pdfrwt beam="2">  1        2 0.22460627E-01 0.12937336E+03</pdfrwt>
<pdfrwt beam="1">  1       -2 0.19921041E-01 0.12937336E+03</pdfrwt>
<totfact> 0.48949682E+03</totfact>
</mgrwt>
</event>
<event>
 7    1  0.5107591E-006  0.2438075E+03  0.7546771E-02  0.1119836E+00
         -2   -1    0    0    0  501 -0.00000000000E+00  0.00000000000E+00  0.66429030415E+02  0.66429030415E+02  0.00000000000E+00 0.  1.
          2   -1    0    0  501    0  0.00000000000E+00 -0.00000000000E+00 -0.11640139905E+04  0.11640139905E+04  0.00000000000E+00 0. -1.
         23    2    1    2    0    0  0.19613336827E+03 -0.73144331000E+02 -0.86049828152E+03  0.89036630976E+03  0.92067810643E+02 0.  0.
          5    1    1    2  502    0 -0.98967957635E+02  0.10185726410E+03 -0.13023128020E+03  0.19274811343E+03  0.47000000000E+01 0. -1.
         -5    1    1    2    0  502 -0.97165410632E+02 -0.28712933101E+02 -0.10685539841E+03  0.14732859777E+03  0.47000000000E+01 0. -1.
        -11    1    3    3    0    0  0.23637951610E+02  0.72799132382E+01 -0.32868381884E+02  0.41134905138E+02  0.00000000000E+00 0.  1.
         11    1    3    3    0    0  0.17249541666E+03 -0.80424244238E+02 -0.82762989964E+03  0.84923140462E+03  0.00000000000E+00 0. -1.
<mgrwt>
<rscale>  0 0.23993446E+03</rscale>
<asrwt>0</asrwt>
<pdfrwt beam="2">  1        2 0.17907907E+00 0.24380746E+03</pdfrwt>
<pdfrwt beam="1">  1       -2 0.10219851E-01 0.24380746E+03</pdfrwt>
<totfact> 0.13451172E+03</totfact>
</mgrwt>
</event>
<event>
 7    1  0.5107591E-006  0.2788041E+03  0.7546771E-02  0.1098281E+00
         -2   -1    0    0    0  501 -0.00000000000E+00  0.00000000000E+00  0.34525947631E+02  0.34525947631E+02  0.00000000000E+00 0.  1.
          2   -1    0    0  501    0  0.00000000000E+00 -0.00000000000E+00 -0.21419029108E+04  0.21419029108E+04  0.00000000000E+00 0. -1.
         23    2    1    2    0    0 -0.14341119494E+03  0.20381251060E+03 -0.10239380690E+04  0.10576922627E+04  0.90318564600E+02 0.  0.
          5    1    1    2  502    0  0.44593952653E+02 -0.15461871643E+03 -0.51196279029E+03  0.53667826184E+03  0.47000000000E+01 0. -1.
         -5    1    1    2    0  502  0.98817242286E+02 -0.49193794167E+02 -0.57147610388E+03  0.58205833390E+03  0.47000000000E+01 0. -1.
        -11    1    3    3    0    0 -0.10072653908E+03  0.97717406389E+02 -0.41436684421E+03  0.43748646695E+03  0.00000000000E+00 0.  1.
         11    1    3    3    0    0 -0.42684655863E+02  0.10609510421E+03 -0.60957122480E+03  0.62020579576E+03  0.00000000000E+00 0. -1.
<mgrwt>
<rscale>  0 0.27530608E+03</rscale>
<asrwt>0</asrwt>
<pdfrwt beam="2">  1        2 0.32952357E+00 0.27880411E+03</pdfrwt>
<pdfrwt beam="1">  1       -2 0.53116835E-02 0.27880411E+03</pdfrwt>
<totfact> 0.11148056E+03</totfact>
</mgrwt>
</event>
<event>
 7    1  0.5107591E-006  0.1846943E+03  0.7546771E-02  0.1168071E+00
          1   -1    0    0  501    0  0.00000000000E+00  0.00000000000E+00  0.29406077310E+03  0.29406077310E+03  0.00000000000E+00 0. -1.
         -1   -1    0    0    0  501 -0.00000000000E+00 -0.00000000000E+00 -0.13849662617E+03  0.13849662617E+03  0.00000000000E+00 0.  1.
         23    2    1    2    0    0 -0.12729850669E+03  0.49443358781E+02  0.18190652579E+03  0.24599402813E+03  0.93667081830E+02 0.  0.
          5    1    1    2  502    0 -0.15032040606E+02 -0.37817465412E+02  0.15025293116E+01  0.40993542532E+02  0.47000000000E+01 0. -1.
         -5    1    1    2    0  502  0.14233054729E+03 -0.11625893368E+02 -0.27844908170E+02  0.14556982861E+03  0.47000000000E+01 0.  1.
        -11    1    3    3    0    0 -0.54017743326E+02 -0.26028146565E+02  0.57531679660E+02  0.83097985367E+02  0.00000000000E+00 0.  1.
         11    1    3    3    0    0 -0.73280763360E+02  0.75471505345E+02  0.12437484613E+03  0.16289604276E+03  0.00000000000E+00 0. -1.
<mgrwt>
<rscale>  0 0.17972338E+03</rscale>
<asrwt>0</asrwt>
<pdfrwt beam="1">  1        1 0.45240119E-01 0.18469426E+03</pdfrwt>
<pdfrwt beam="2">  1       -1 0.21307173E-01 0.18469426E+03</pdfrwt>
<totfact> 0.16176676E+03</totfact>
</mgrwt>
</event>
<event>
 7    1  0.5107591E-006  0.1182349E+03  0.7546771E-02  0.1254017E+00
         -2   -1    0    0    0  501 -0.00000000000E+00  0.00000000000E+00  0.75183750196E+02  0.75183750196E+02  0.00000000000E+00 0.  1.
          2   -1    0    0  501    0  0.00000000000E+00 -0.00000000000E+00 -0.17636294184E+03  0.17636294184E+03  0.00000000000E+00 0. -1.
         23    2    1    2    0    0 -0.12813181061E+02  0.40190787996E+02 -0.85673784548E+02  0.13229947847E+03  0.91562424585E+02 0.  0.
          5    1    1    2  502    0 -0.10696187681E+01  0.31388210369E+02  0.20494870676E+02  0.37795417162E+02  0.47000000000E+01 0. -1.
         -5    1    1    2    0  502  0.13882799829E+02 -0.71578998365E+02 -0.36000277774E+02  0.81451796406E+02  0.47000000000E+01 0.  1.
        -11    1    3    3    0    0 -0.74182702881E+01  0.64135064186E+02 -0.29470985771E+02  0.70970953174E+02  0.00000000000E+00 0.  1.
         11    1    3    3    0    0 -0.53949107731E+01 -0.23944276190E+02 -0.56202798777E+02  0.61328525295E+02  0.00000000000E+00 0. -1.
<mgrwt>
<rscale>  0 0.11361553E+03</rscale>
<asrwt>0</asrwt>
<pdfrwt beam="2">  1        2 0.27132760E-01 0.11823485E+03</pdfrwt>
<pdfrwt beam="1">  1       -2 0.11566731E-01 0.11823485E+03</pdfrwt>
<totfact> 0.96001452E+03</totfact>
</mgrwt>
</event>
<event>
 7    1  0.5107591E-006  0.1256100E+03  0.7546771E-02  0.1249558E+00
         -3   -1    0    0    0  501 -0.00000000000E+00  0.00000000000E+00  0.89123601601E+02  0.89123601601E+02  0.00000000000E+00 0.  1.
          3   -1    0    0  501    0  0.00000000000E+00 -0.00000000000E+00 -0.13445541243E+03  0.13445541243E+03  0.00000000000E+00 0. -1.
         23    2    1    2    0    0 -0.90240099742E+01  0.84887919050E+01 -0.31835117218E+02  0.97246038711E+02  0.91048476169E+02 0.  0.
          5    1    1    2  502    0  0.66345504795E+02  0.65728197735E+00 -0.14546103894E+02  0.68086982343E+02  0.47000000000E+01 0.  1.
         -5    1    1    2    0  502 -0.57321494820E+02 -0.91460738823E+01  0.10494102840E+01  0.58245992977E+02  0.47000000000E+01 0.  1.
        -11    1    3    3    0    0 -0.14219950045E+02  0.46954543116E+02 -0.31736795939E+02  0.58430816484E+02  0.00000000000E+00 0. -1.
         11    1    3    3    0    0  0.51959400711E+01 -0.38465751211E+02 -0.98321279174E-01  0.38815222227E+02  0.00000000000E+00 0.  1.
<mgrwt>
<rscale>  0 0.11616684E+03</rscale>
<asrwt>0</asrwt>
<pdfrwt beam="2">  1        3 0.20685448E-01 0.12560995E+03</pdfrwt>
<pdfrwt beam="1">  1       -3 0.13711323E-01 0.12560995E+03</pdfrwt>
<totfact> 0.20690533E+03</totfact>
</mgrwt>
</event>
<event>
 7    1  0.5107591E-006  0.2005961E+03  0.7546771E-02  0.1153285E+00
         -2   -1    0    0    0  501 -0.00000000000E+00  0.00000000000E+00  0.29143541078E+03  0.29143541078E+03  0.00000000000E+00 0.  1.
          2   -1    0    0  501    0  0.00000000000E+00 -0.00000000000E+00 -0.12646399227E+03  0.12646399227E+03  0.00000000000E+00 0. -1.
         23    2    1    2    0    0 -0.49165233224E+02 -0.14898117606E+03  0.62966352937E+02  0.19285759040E+03  0.92826060958E+02 0.  0.
          5    1    1    2  502    0  0.38414278441E+02  0.14650316581E+02 -0.17438419617E+02  0.44905200621E+02  0.47000000000E+01 0.  1.
         -5    1    1    2    0  502  0.10750954783E+02  0.13433085948E+03  0.11944348519E+03  0.18013661203E+03  0.47000000000E+01 0.  1.
        -11    1    3    3    0    0  0.64934399833E+01 -0.10360813474E+03  0.62249248556E+02  0.12104453434E+03  0.00000000000E+00 0.  1.
         11    1    3    3    0    0 -0.55658673207E+02 -0.45373041323E+02  0.71710438063E+00  0.71813056061E+02  0.00000000000E+00 0. -1.
<mgrwt>
<rscale>  0 0.19585378E+03</rscale>
<asrwt>0</asrwt>
<pdfrwt beam="2">  1        2 0.19455999E-01 0.20059607E+03</pdfrwt>
<pdfrwt beam="1">  1       -2 0.44836217E-01 0.20059607E+03</pdfrwt>
<totfact> 0.13549248E+03</totfact>
</mgrwt>
</event>
<event>
 7    1  0.5107591E-006  0.1239668E+03  0.7546771E-02  0.1249005E+00
          1   -1    0    0  501    0  0.00000000000E+00  0.00000000000E+00  0.10775664605E+03  0.10775664605E+03  0.00000000000E+00 0. -1.
         -1   -1    0    0    0  501 -0.00000000000E+00 -0.00000000000E+00 -0.12407086412E+03  0.12407086412E+03  0.00000000000E+00 0.  1.
         23    2    1    2    0    0  0.35182006223E+02  0.96915244804E+00  0.27262435312E+02  0.10042470742E+03  0.90017601959E+02 0.  0.
          5    1    1    2  502    0  0.17136795399E+02 -0.40387238279E+02 -0.48470837859E+02  0.65546250046E+02  0.47000000000E+01 0. -1.
         -5    1    1    2    0  502 -0.52318801623E+02  0.39418085831E+02  0.48941844762E+01  0.65856552715E+02  0.47000000000E+01 0.  1.
        -11    1    3    3    0    0 -0.25112095705E+02  0.15392081264E+02  0.24594509444E+02  0.38372169747E+02  0.00000000000E+00 0. -1.
         11    1    3    3    0    0  0.60294101928E+02 -0.14422928816E+02  0.26679258681E+01  0.62052537671E+02  0.00000000000E+00 0.  1.
<mgrwt>
<rscale>  0 0.11648859E+03</rscale>
<asrwt>0</asrwt>
<pdfrwt beam="1">  1        1 0.16577945E-01 0.12396682E+03</pdfrwt>
<pdfrwt beam="2">  1       -1 0.19087825E-01 0.12396682E+03</pdfrwt>
<totfact> 0.66942815E+03</totfact>
</mgrwt>
</event>
<event>
 7    1  0.5107591E-006  0.1340416E+03  0.7546771E-02  0.1231624E+00
          3   -1    0    0  501    0  0.00000000000E+00  0.00000000000E+00  0.59675201630E+02  0.59675201630E+02  0.00000000000E+00 0. -1.
         -3   -1    0    0    0  501 -0.00000000000E+00 -0.00000000000E+00 -0.33250172081E+03  0.33250172081E+03  0.00000000000E+00 0.  1.
         23    2    1    2    0    0  0.21887296707E+02  0.63526907099E+02 -0.26881105722E+02  0.11207640379E+03  0.85579230887E+02 0.  0.
          5    1    1    2  502    0 -0.13446724523E+02 -0.91077892833E+02 -0.22774927763E+03  0.24569863741E+03  0.47000000000E+01 0.  1.
         -5    1    1    2    0  502 -0.84405721838E+01  0.27550985733E+02 -0.18196135821E+02  0.34401881235E+02  0.47000000000E+01 0. -1.
        -11    1    3    3    0    0  0.52680416961E+02  0.23003153630E+02 -0.93094597650E+01  0.58232614995E+02  0.00000000000E+00 0.  1.
         11    1    3    3    0    0 -0.30793120254E+02  0.40523753469E+02 -0.17571645957E+02  0.53843788795E+02  0.00000000000E+00 0. -1.
<mgrwt>
<rscale>  0 0.12723071E+03</rscale>
<asrwt>0</asrwt>
<pdfrwt beam="1">  1        3 0.91808001E-02 0.13404161E+03</pdfrwt>
<pdfrwt beam="2">  1       -3 0.51154112E-01 0.13404161E+03</pdfrwt>
<totfact> 0.74864125E+02</totfact>
</mgrwt>
</event>
<event>
 7    1  0.5107591E-006  0.1256352E+03  0.7546771E-02  0.1249132E+00
         -4   -1    0    0    0  501 -0.00000000000E+00  0.00000000000E+00  0.20091668663E+03  0.20091668663E+03  0.00000000000E+00 0.  1.
          4   -1    0    0  501    0  0.00000000000E+00 -0.00000000000E+00 -0.60245177157E+02  0.60245177157E+02  0.00000000000E+00 0. -1.
         23    2    1    2    0    0  0.96411693230E+01 -0.80946290120E+01  0.76278851438E+02  0.11998599874E+03  0.91758931730E+02 0.  0.
          5    1    1    2  502    0  0.18375440256E+02 -0.51999195693E+02  0.12238763923E+02  0.56687304572E+02  0.47000000000E+01 0.  1.
         -5    1    1    2    0  502 -0.28016609579E+02  0.60093824705E+02  0.52153894113E+02  0.84488560475E+02  0.47000000000E+01 0.  1.
        -11    1    3    3    0    0  0.29018452582E+02 -0.41147613498E+01  0.90821759986E+02  0.95433714893E+02  0.00000000000E+00 0.  1.
         11    1    3    3    0    0 -0.19377283259E+02 -0.39798676622E+01 -0.14542908548E+02  0.24552283848E+02  0.00000000000E+00 0. -1.
<mgrwt>
<rscale>  0 0.11641473E+03</rscale>
<asrwt>0</asrwt>
<pdfrwt beam="2">  1        4 0.92684889E-02 0.12563523E+03</pdfrwt>
<pdfrwt beam="1">  1       -4 0.30910259E-01 0.12563523E+03</pdfrwt>
<totfact> 0.14032049E+03</totfact>
</mgrwt>
</event>
<event>
 7    1  0.5107591E-006  0.1333090E+03  0.7546771E-02  0.1232037E+00
         -2   -1    0    0    0  501 -0.00000000000E+00  0.00000000000E+00  0.92466402035E+02  0.92466402035E+02  0.00000000000E+00 0.  1.
          2   -1    0    0  501    0  0.00000000000E+00 -0.00000000000E+00 -0.16891627734E+03  0.16891627734E+03  0.00000000000E+00 0. -1.
         23    2    1    2    0    0  0.43016018578E+02  0.17202837216E+02 -0.65224300966E+02  0.12760187899E+03  0.99406813767E+02 0.  0.
          5    1    1    2  502    0 -0.35469657667E+01  0.34800960667E+01  0.54119018579E+02  0.54549520683E+02  0.47000000000E+01 0. -1.
         -5    1    1    2    0  502 -0.39469052811E+02 -0.20682933282E+02 -0.65344592916E+02  0.79231279697E+02  0.47000000000E+01 0. -1.
        -11    1    3    3    0    0 -0.95290743301E+01 -0.29820437684E+02  0.35275533404E+00  0.31307925475E+02  0.00000000000E+00 0.  1.
         11    1    3    3    0    0  0.52545092908E+02  0.47023274899E+02 -0.65577056300E+02  0.96293953517E+02  0.00000000000E+00 0. -1.
<mgrwt>
<rscale>  0 0.12696058E+03</rscale>
<asrwt>0</asrwt>
<pdfrwt beam="2">  1        2 0.25987119E-01 0.13330900E+03</pdfrwt>
<pdfrwt beam="1">  1       -2 0.14225600E-01 0.13330900E+03</pdfrwt>
<totfact> 0.72882382E+03</totfact>
</mgrwt>
</event>
<event>
 7    1  0.5107591E-006  0.1406449E+03  0.7546771E-02  0.1222896E+00
          1   -1    0    0  501    0  0.00000000000E+00  0.00000000000E+00  0.18706719222E+03  0.18706719222E+03  0.00000000000E+00 0. -1.
         -1   -1    0    0    0  501 -0.00000000000E+00 -0.00000000000E+00 -0.85963256630E+02  0.85963256630E+02  0.00000000000E+00 0.  1.
         23    2    1    2    0    0  0.63244759836E+02  0.12490159899E+02  0.48751673799E+02  0.12295793804E+03  0.92660806641E+02 0.  0.
          5    1    1    2  502    0 -0.60996029551E+02  0.44598885841E+02  0.52717186683E+01  0.75891088126E+02  0.47000000000E+01 0.  1.
         -5    1    1    2    0  502 -0.22487302856E+01 -0.57089045739E+02  0.47080543126E+02  0.74181422690E+02  0.47000000000E+01 0.  1.
        -11    1    3    3    0    0  0.27074374031E+02  0.34010081794E+02  0.64701833136E+02  0.77948923046E+02  0.00000000000E+00 0. -1.
         11    1    3    3    0    0  0.36170385806E+02 -0.21519921896E+02 -0.15950159337E+02  0.45009014992E+02  0.00000000000E+00 0.  1.
<mgrwt>
<rscale>  0 0.13312128E+03</rscale>
<asrwt>0</asrwt>
<pdfrwt beam="1">  1        1 0.28779568E-01 0.14064494E+03</pdfrwt>
<pdfrwt beam="2">  1       -1 0.13225116E-01 0.14064494E+03</pdfrwt>
<totfact> 0.59897584E+03</totfact>
</mgrwt>
</event>
<event>
 7    1  0.5107591E-006  0.1342019E+03  0.7546771E-02  0.1235967E+00
         -2   -1    0    0    0  501 -0.00000000000E+00  0.00000000000E+00  0.10895794408E+03  0.10895794408E+03  0.00000000000E+00 0.  1.
          2   -1    0    0  501    0  0.00000000000E+00 -0.00000000000E+00 -0.16931307886E+03  0.16931307886E+03  0.00000000000E+00 0. -1.
         23    2    1    2    0    0 -0.34522439860E+02  0.34527643559E+02 -0.97449100028E+02  0.13903699914E+03  0.86319192593E+02 0.  0.
          5    1    1    2  502    0 -0.25014126898E+01  0.41718117737E+02 -0.84523357164E+01  0.42897440391E+02  0.47000000000E+01 0.  1.
         -5    1    1    2    0  502  0.37023852550E+02 -0.76245761296E+02  0.45546300962E+02  0.96336583418E+02  0.47000000000E+01 0.  1.
        -11    1    3    3    0    0 -0.55972020374E+02  0.40021428936E+02 -0.94205501344E+02  0.11665872587E+03  0.00000000000E+00 0.  1.
         11    1    3    3    0    0  0.21449580513E+02 -0.54937853773E+01 -0.32435986836E+01  0.22378273266E+02  0.00000000000E+00 0. -1.
<mgrwt>
<rscale>  0 0.12442727E+03</rscale>
<asrwt>0</asrwt>
<pdfrwt beam="2">  1        2 0.26048166E-01 0.13420190E+03</pdfrwt>
<pdfrwt beam="1">  1       -2 0.16762761E-01 0.13420190E+03</pdfrwt>
<totfact> 0.55577244E+03</totfact>
</mgrwt>
</event>
<event>
 7    1  0.5107591E-006  0.1608166E+03  0.7546771E-02  0.1196806E+00
          2   -1    0    0  501    0  0.00000000000E+00  0.00000000000E+00  0.43091763648E+03  0.43091763648E+03  0.00000000000E+00 0. -1.
         -2   -1    0    0    0  501 -0.00000000000E+00 -0.00000000000E+00 -0.11743592720E+03  0.11743592720E+03  0.00000000000E+00 0.  1.
         23    2    1    2    0    0 -0.61933261917E+02  0.80003033627E+02  0.35798718295E+03  0.38149223579E+03  0.84529808325E+02 0.  0.
          5    1    1    2  502    0  0.35866454091E+02 -0.11229680221E+03 -0.24264416948E+02  0.12044843812E+03  0.47000000000E+01 0.  1.
         -5    1    1    2    0  502  0.26066807827E+02  0.32293768584E+02 -0.20241056714E+02  0.46412889768E+02  0.47000000000E+01 0.  1.
        -11    1    3    3    0    0  0.85783049488E+01  0.12986453634E+02  0.66300669940E+01  0.16917242155E+02  0.00000000000E+00 0.  1.
         11    1    3    3    0    0 -0.70511566866E+02  0.67016579992E+02  0.35135711595E+03  0.36457499364E+03  0.00000000000E+00 0. -1.
<mgrwt>
<rscale>  0 0.15302380E+03</rscale>
<asrwt>0</asrwt>
<pdfrwt beam="1">  1        2 0.66295020E-01 0.16081656E+03</pdfrwt>
<pdfrwt beam="2">  1       -2 0.18067066E-01 0.16081656E+03</pdfrwt>
<totfact> 0.18155116E+03</totfact>
</mgrwt>
</event>
<event>
 7    1  0.5107591E-006  0.1446641E+03  0.7546771E-02  0.1217412E+00
          2   -1    0    0  501    0  0.00000000000E+00  0.00000000000E+00  0.21856928316E+03  0.21856928316E+03  0.00000000000E+00 0. -1.
         -2   -1    0    0    0  501 -0.00000000000E+00 -0.00000000000E+00 -0.10900158899E+03  0.10900158899E+03  0.00000000000E+00 0.  1.
         23    2    1    2    0    0 -0.14195489674E+02 -0.71422939792E+02  0.13759316074E+03  0.18021710363E+03  0.90794153462E+02 0.  0.
          5    1    1    2  502    0  0.65078634422E+02  0.34353067316E+02  0.88097290291E+01  0.74263471626E+02  0.47000000000E+01 0. -1.
         -5    1    1    2    0  502 -0.50883144749E+02  0.37069872476E+02 -0.36835195595E+02  0.73090296890E+02  0.47000000000E+01 0. -1.
        -11    1    3    3    0    0  0.12515224847E+02 -0.69127410420E+02  0.13634459604E+03  0.15337887271E+03  0.00000000000E+00 0. -1.
         11    1    3    3    0    0 -0.26710714521E+02 -0.22955293719E+01  0.12485647040E+01  0.26838230924E+02  0.00000000000E+00 0.  1.
<mgrwt>
<rscale>  0 0.13700875E+03</rscale>
<asrwt>0</asrwt>
<pdfrwt beam="1">  1        2 0.33626043E-01 0.14466412E+03</pdfrwt>
<pdfrwt beam="2">  1       -2 0.16769475E-01 0.14466412E+03</pdfrwt>
<totfact> 0.42278899E+03</totfact>
</mgrwt>
</event>
<event>
 7    1  0.5107591E-006  0.2422605E+03  0.7546771E-02  0.1122112E+00
         -2   -1    0    0    0  501 -0.00000000000E+00  0.00000000000E+00  0.10981476601E+03  0.10981476601E+03  0.00000000000E+00 0.  1.
          2   -1    0    0  501    0  0.00000000000E+00 -0.00000000000E+00 -0.59582867307E+03  0.59582867307E+03  0.00000000000E+00 0. -1.
         23    2    1    2    0    0  0.13161780541E+03 -0.16044323580E+03 -0.38424274957E+03  0.44287448348E+03  0.73688797650E+02 0.  0.
          5    1    1    2  502    0 -0.15275762775E+03  0.15901357238E+03 -0.93237083349E+02  0.23944822561E+03  0.47000000000E+01 0. -1.
         -5    1    1    2    0  502  0.21139822338E+02  0.14296634198E+01 -0.85340741316E+01  0.23320729989E+02  0.47000000000E+01 0. -1.
        -11    1    3    3    0    0 -0.61426324861E+01 -0.19957396704E+02 -0.20154314128E+02  0.29021130147E+02  0.00000000000E+00 0.  1.
         11    1    3    3    0    0  0.13776043790E+03 -0.14048583909E+03 -0.36408843545E+03  0.41385335333E+03  0.00000000000E+00 0. -1.
<mgrwt>
<rscale>  0 0.23655081E+03</rscale>
<asrwt>0</asrwt>
<pdfrwt beam="2">  1        2 0.91665948E-01 0.24226051E+03</pdfrwt>
<pdfrwt beam="1">  1       -2 0.16894580E-01 0.24226051E+03</pdfrwt>
<totfact> 0.14250031E+03</totfact>
</mgrwt>
</event>
<event>
 7    1  0.5107591E-006  0.2190203E+03  0.7546771E-02  0.1136864E+00
         -1   -1    0    0    0  501 -0.00000000000E+00  0.00000000000E+00  0.15855405404E+03  0.15855405404E+03  0.00000000000E+00 0.  1.
          1   -1    0    0  501    0  0.00000000000E+00 -0.00000000000E+00 -0.45643287019E+03  0.45643287019E+03  0.00000000000E+00 0. -1.
         23    2    1    2    0    0 -0.11140318641E+03  0.15178722989E+03 -0.33387026822E+03  0.39302913756E+03  0.86905200463E+02 0.  0.
          5    1    1    2  502    0  0.40537751978E+02  0.69400407027E+01 -0.89516170842E+01  0.42352035946E+02  0.47000000000E+01 0. -1.
         -5    1    1    2    0  502  0.70865434428E+02 -0.15872727060E+03  0.44943069154E+02  0.17960575072E+03  0.47000000000E+01 0.  1.
        -11    1    3    3    0    0 -0.38301318288E+02  0.48240971396E+02 -0.41240325341E+02  0.74127907957E+02  0.00000000000E+00 0.  1.
         11    1    3    3    0    0 -0.73101868118E+02  0.10354625850E+03 -0.29262994288E+03  0.31890122960E+03  0.00000000000E+00 0. -1.
<mgrwt>
<rscale>  0 0.21604787E+03</rscale>
<asrwt>0</asrwt>
<pdfrwt beam="2">  1        1 0.70220441E-01 0.21902026E+03</pdfrwt>
<pdfrwt beam="1">  1       -1 0.24392932E-01 0.21902026E+03</pdfrwt>
<totfact> 0.74254253E+02</totfact>
</mgrwt>
</event>
<event>
 7    1  0.5107591E-006  0.1254819E+03  0.7546771E-02  0.1250244E+00
          1   -1    0    0  501    0  0.00000000000E+00  0.00000000000E+00  0.17691872234E+03  0.17691872234E+03  0.00000000000E+00 0. -1.
         -1   -1    0    0    0  501 -0.00000000000E+00 -0.00000000000E+00 -0.70284002496E+02  0.70284002496E+02  0.00000000000E+00 0.  1.
         23    2    1    2    0    0  0.73551999530E+01 -0.81686679679E+01  0.74839536535E+02  0.11775531287E+03  0.90247057447E+02 0.  0.
          5    1    1    2  502    0  0.63826405292E+01 -0.48846066441E+02 -0.17707495170E+02  0.52557793828E+02  0.47000000000E+01 0.  1.
         -5    1    1    2    0  502 -0.13737840482E+02  0.57014734409E+02  0.49502678483E+02  0.76889618141E+02  0.47000000000E+01 0.  1.
        -11    1    3    3    0    0  0.44490846097E+02  0.71993554156E+01  0.18892469013E+02  0.48869126146E+02  0.00000000000E+00 0.  1.
         11    1    3    3    0    0 -0.37135646144E+02 -0.15368023384E+02  0.55947067522E+02  0.68886186725E+02  0.00000000000E+00 0. -1.
<mgrwt>
<rscale>  0 0.11576931E+03</rscale>
<asrwt>0</asrwt>
<pdfrwt beam="1">  1        1 0.27218265E-01 0.12548187E+03</pdfrwt>
<pdfrwt beam="2">  1       -1 0.10812924E-01 0.12548187E+03</pdfrwt>
<totfact> 0.86883361E+03</totfact>
</mgrwt>
</event>
<event>
 7    1  0.5107591E-006  0.1426998E+03  0.7546771E-02  0.1220369E+00
         -1   -1    0    0    0  501 -0.00000000000E+00  0.00000000000E+00  0.17010879284E+03  0.17010879284E+03  0.00000000000E+00 0.  1.
          1   -1    0    0  501    0  0.00000000000E+00 -0.00000000000E+00 -0.17897065054E+03  0.17897065054E+03  0.00000000000E+00 0. -1.
         23    2    1    2    0    0  0.68736747396E+02 -0.36072798684E+01 -0.12202455443E+03  0.16695581164E+03  0.90810232052E+02 0.  0.
          5    1    1    2  502    0  0.99386963854E+01  0.41983965313E+02  0.74705008181E+02  0.86396523522E+02  0.47000000000E+01 0. -1.
         -5    1    1    2    0  502 -0.78675443781E+02 -0.38376685445E+02  0.38457688556E+02  0.95727108224E+02  0.47000000000E+01 0. -1.
        -11    1    3    3    0    0  0.82954327876E+02  0.21715300769E+01 -0.12621137912E+03  0.15104783439E+03  0.00000000000E+00 0. -1.
         11    1    3    3    0    0 -0.14217580481E+02 -0.57788099453E+01  0.41868246853E+01  0.15907977246E+02  0.00000000000E+00 0.  1.
<mgrwt>
<rscale>  0 0.13489459E+03</rscale>
<asrwt>0</asrwt>
<pdfrwt beam="2">  1        1 0.27533946E-01 0.14269976E+03</pdfrwt>
<pdfrwt beam="1">  1       -1 0.26170584E-01 0.14269976E+03</pdfrwt>
<totfact> 0.21269006E+03</totfact>
</mgrwt>
</event>
<event>
 7    1  0.5107591E-006  0.2213737E+03  0.7546771E-02  0.1132863E+00
          2   -1    0    0  501    0  0.00000000000E+00  0.00000000000E+00  0.15090996004E+03  0.15090996004E+03  0.00000000000E+00 0. -1.
         -2   -1    0    0    0  501 -0.00000000000E+00 -0.00000000000E+00 -0.81184660290E+02  0.81184660290E+02  0.00000000000E+00 0.  1.
         23    2    1    2    0    0  0.24855714342E+02 -0.44868831497E+01  0.24115045558E+02  0.96663873091E+02  0.90135621609E+02 0.  0.
          5    1    1    2  502    0 -0.69537987976E+02  0.22397081115E+02  0.69963083676E+01  0.73540460599E+02  0.47000000000E+01 0. -1.
         -5    1    1    2    0  502  0.44682273634E+02 -0.17910197965E+02  0.38613945825E+02  0.61890286640E+02  0.47000000000E+01 0. -1.
        -11    1    3    3    0    0  0.15021785928E+02  0.10975638079E+02 -0.32339911470E+02  0.37309362868E+02  0.00000000000E+00 0.  1.
         11    1    3    3    0    0  0.98339284142E+01 -0.15462521229E+02  0.56454957028E+02  0.59354510224E+02  0.00000000000E+00 0. -1.
<mgrwt>
<rscale>  0 0.22137366E+03</rscale>
<asrwt>0</asrwt>
<pdfrwt beam="1">  1        2 0.23216917E-01 0.22137366E+03</pdfrwt>
<pdfrwt beam="2">  1       -2 0.12489948E-01 0.22137366E+03</pdfrwt>
<totfact> 0.10572713E+04</totfact>
</mgrwt>
</event>
<event>
 7    1  0.5107591E-006  0.1306322E+03  0.7546771E-02  0.1240211E+00
          1   -1    0    0  501    0  0.00000000000E+00  0.00000000000E+00  0.13208218479E+03  0.13208218479E+03  0.00000000000E+00 0. -1.
         -1   -1    0    0    0  501 -0.00000000000E+00 -0.00000000000E+00 -0.99794160270E+02  0.99794160270E+02  0.00000000000E+00 0.  1.
         23    2    1    2    0    0 -0.37349364594E+02 -0.67629756567E+01  0.20383463224E+02  0.10070281560E+03  0.91021198753E+02 0.  0.
          5    1    1    2  502    0  0.25846000391E+01 -0.54089461848E+02 -0.14299993239E+02  0.56204357900E+02  0.47000000000E+01 0. -1.
         -5    1    1    2    0  502  0.34764764554E+02  0.60852437504E+02  0.26204554531E+02  0.74969171550E+02  0.47000000000E+01 0. -1.
        -11    1    3    3    0    0 -0.97128997697E+01  0.20927763695E+02 -0.29409229678E+02  0.37379332598E+02  0.00000000000E+00 0.  1.
         11    1    3    3    0    0 -0.27636464824E+02 -0.27690739351E+02  0.49792692902E+02  0.63323483007E+02  0.00000000000E+00 0. -1.
<mgrwt>
<rscale>  0 0.12176630E+03</rscale>
<asrwt>0</asrwt>
<pdfrwt beam="1">  1        1 0.20320336E-01 0.13063222E+03</pdfrwt>
<pdfrwt beam="2">  1       -1 0.15352948E-01 0.13063222E+03</pdfrwt>
<totfact> 0.73137482E+03</totfact>
</mgrwt>
</event>
<event>
 7    1  0.5107591E-006  0.2077476E+03  0.7546771E-02  0.1146751E+00
          1   -1    0    0  501    0  0.00000000000E+00  0.00000000000E+00  0.50543638415E+03  0.50543638415E+03  0.00000000000E+00 0. -1.
         -1   -1    0    0    0  501 -0.00000000000E+00 -0.00000000000E+00 -0.82588921814E+02  0.82588921814E+02  0.00000000000E+00 0.  1.
         23    2    1    2    0    0 -0.15363625767E+03 -0.69712288279E+02  0.14095421848E+03  0.23784979857E+03  0.90777376962E+02 0.  0.
          5    1    1    2  502    0  0.11570480158E+03  0.92849492083E+02  0.15043643365E+03  0.21133348021E+03  0.47000000000E+01 0. -1.
         -5    1    1    2    0  502  0.37931456087E+02 -0.23137203804E+02  0.13145681021E+03  0.13884202718E+03  0.47000000000E+01 0.  1.
        -11    1    3    3    0    0 -0.35420350196E+02  0.20552465049E+02  0.45015402207E+02  0.60855496575E+02  0.00000000000E+00 0. -1.
         11    1    3    3    0    0 -0.11821590747E+03 -0.90264753328E+02  0.95938816271E+02  0.17699430200E+03  0.00000000000E+00 0.  1.
<mgrwt>
<rscale>  0 0.20358318E+03</rscale>
<asrwt>0</asrwt>
<pdfrwt beam="1">  1        1 0.77759442E-01 0.20774765E+03</pdfrwt>
<pdfrwt beam="2">  1       -1 0.12705988E-01 0.20774765E+03</pdfrwt>
<totfact> 0.18513171E+03</totfact>
</mgrwt>
</event>
<event>
 7    1  0.5107591E-006  0.1264249E+03  0.7546771E-02  0.1248901E+00
         -1   -1    0    0    0  501 -0.00000000000E+00  0.00000000000E+00  0.28230697425E+02  0.28230697425E+02  0.00000000000E+00 0.  1.
          1   -1    0    0  501    0  0.00000000000E+00 -0.00000000000E+00 -0.43688166817E+03  0.43688166817E+03  0.00000000000E+00 0. -1.
         23    2    1    2    0    0 -0.18943021951E+02  0.32459589711E+00 -0.21800808043E+03  0.23635931797E+03  0.89326707179E+02 0.  0.
          5    1    1    2  502    0  0.45899592724E+02 -0.43735924218E+02 -0.56214444544E+02  0.84863169012E+02  0.47000000000E+01 0. -1.
         -5    1    1    2    0  502 -0.26956570773E+02  0.43411328321E+02 -0.13442844576E+03  0.14388987860E+03  0.47000000000E+01 0. -1.
        -11    1    3    3    0    0  0.30967873717E+02 -0.15291378476E+02 -0.12470651989E+03  0.12940074019E+03  0.00000000000E+00 0. -1.
         11    1    3    3    0    0 -0.49910895668E+02  0.15615974373E+02 -0.93301560543E+02  0.10695857778E+03  0.00000000000E+00 0.  1.
<mgrwt>
<rscale>  0 0.11654897E+03</rscale>
<asrwt>0</asrwt>
<pdfrwt beam="2">  1        1 0.67212560E-01 0.12642486E+03</pdfrwt>
<pdfrwt beam="1">  1       -1 0.43431845E-02 0.12642486E+03</pdfrwt>
<totfact> 0.11079724E+04</totfact>
</mgrwt>
</event>
<event>
 7    1  0.5107591E-006  0.1157341E+03  0.7546771E-02  0.1259420E+00
         -1   -1    0    0    0  501 -0.00000000000E+00  0.00000000000E+00  0.19713963048E+03  0.19713963048E+03  0.00000000000E+00 0.  1.
          1   -1    0    0  501    0  0.00000000000E+00 -0.00000000000E+00 -0.64625304049E+02  0.64625304049E+02  0.00000000000E+00 0. -1.
         23    2    1    2    0    0 -0.30758458744E+02 -0.84530371579E+00  0.16706419522E+02  0.98040006112E+02  0.91574783770E+02 0.  0.
          5    1    1    2  502    0 -0.41844445583E+02  0.40406343822E+01  0.50796450094E+02  0.66103356151E+02  0.47000000000E+01 0. -1.
         -5    1    1    2    0  502  0.72602904326E+02 -0.31953306664E+01  0.65011456817E+02  0.97621572269E+02  0.47000000000E+01 0.  1.
        -11    1    3    3    0    0  0.19568350238E+02 -0.28844031918E+02 -0.73579843675E+01  0.35623565828E+02  0.00000000000E+00 0.  1.
         11    1    3    3    0    0 -0.50326808982E+02  0.27998728202E+02  0.24064403890E+02  0.62416440285E+02  0.00000000000E+00 0. -1.
<mgrwt>
<rscale>  0 0.11062343E+03</rscale>
<asrwt>0</asrwt>
<pdfrwt beam="2">  1        1 0.99423546E-02 0.11573410E+03</pdfrwt>
<pdfrwt beam="1">  1       -1 0.30329174E-01 0.11573410E+03</pdfrwt>
<totfact> 0.60859845E+03</totfact>
</mgrwt>
</event>
<event>
 7    1  0.5107591E-006  0.1321242E+03  0.7546771E-02  0.1243043E+00
         -1   -1    0    0    0  501 -0.00000000000E+00  0.00000000000E+00  0.66083616436E+02  0.66083616436E+02  0.00000000000E+00 0.  1.
          1   -1    0    0  501    0  0.00000000000E+00 -0.00000000000E+00 -0.20218192061E+03  0.20218192061E+03  0.00000000000E+00 0. -1.
         23    2    1    2    0    0  0.38884316831E+02  0.17891315449E+02 -0.92681061572E+02  0.12919054995E+03  0.79172784210E+02 0.  0.
          5    1    1    2  502    0 -0.49643036572E+02  0.39040566831E+02 -0.49842212060E+02  0.80591147415E+02  0.47000000000E+01 0.  1.
         -5    1    1    2    0  502  0.10758719740E+02 -0.56931882280E+02  0.64249694611E+01  0.58483839674E+02  0.47000000000E+01 0.  1.
        -11    1    3    3    0    0  0.49921124493E+02  0.25956711116E+02 -0.27565510541E+02  0.62655621408E+02  0.00000000000E+00 0.  1.
         11    1    3    3    0    0 -0.11036807662E+02 -0.80653956676E+01 -0.65115551031E+02  0.66534928547E+02  0.00000000000E+00 0. -1.
<mgrwt>
<rscale>  0 0.12003285E+03</rscale>
<asrwt>0</asrwt>
<pdfrwt beam="2">  1        1 0.31104910E-01 0.13212417E+03</pdfrwt>
<pdfrwt beam="1">  1       -1 0.10166710E-01 0.13212417E+03</pdfrwt>
<totfact> 0.81185673E+03</totfact>
</mgrwt>
</event>
<event>
 7    1  0.5107591E-006  0.1708938E+03  0.7546771E-02  0.1180969E+00
         -1   -1    0    0    0  501 -0.00000000000E+00  0.00000000000E+00  0.26525741769E+02  0.26525741769E+02  0.00000000000E+00 0.  1.
          1   -1    0    0  501    0  0.00000000000E+00 -0.00000000000E+00 -0.10257567735E+04  0.10257567735E+04  0.00000000000E+00 0. -1.
         23    2    1    2    0    0  0.12377647052E+03 -0.26383885495E+02 -0.54812909021E+03  0.56989505149E+03  0.91203871134E+02 0.  0.
          5    1    1    2  502    0 -0.68083307391E+01 -0.33989104496E+02 -0.57213572188E+02  0.67060386477E+02  0.47000000000E+01 0. -1.
         -5    1    1    2    0  502 -0.11696813978E+03  0.60372989991E+02 -0.39388836932E+03  0.41532707729E+03  0.47000000000E+01 0.  1.
        -11    1    3    3    0    0  0.88634711900E+02 -0.22179807269E+02 -0.50899508517E+03  0.51713059543E+03  0.00000000000E+00 0. -1.
         11    1    3    3    0    0  0.35141758620E+02 -0.42040782258E+01 -0.39134005038E+02  0.52764456057E+02  0.00000000000E+00 0.  1.
<mgrwt>
<rscale>  0 0.16704113E+03</rscale>
<asrwt>0</asrwt>
<pdfrwt beam="2">  1        1 0.15780871E+00 0.17089384E+03</pdfrwt>
<pdfrwt beam="1">  1       -1 0.40808840E-02 0.17089384E+03</pdfrwt>
<totfact> 0.36092533E+03</totfact>
</mgrwt>
</event>
<event>
 7    1  0.5107591E-006  0.1269712E+03  0.7546771E-02  0.1246421E+00
          1   -1    0    0  501    0  0.00000000000E+00  0.00000000000E+00  0.35143856981E+03  0.35143856981E+03  0.00000000000E+00 0. -1.
         -1   -1    0    0    0  501 -0.00000000000E+00 -0.00000000000E+00 -0.37322466658E+02  0.37322466658E+02  0.00000000000E+00 0.  1.
         23    2    1    2    0    0  0.22309093234E+02  0.47314070424E+00  0.18401498928E+03  0.20697002151E+03  0.92071461494E+02 0.  0.
          5    1    1    2  502    0  0.46306730327E+02 -0.69810474852E+01  0.18567665481E+02  0.50595419743E+02  0.47000000000E+01 0. -1.
         -5    1    1    2    0  502 -0.68615823561E+02  0.65079067810E+01  0.11153344839E+03  0.13119559522E+03  0.47000000000E+01 0. -1.
        -11    1    3    3    0    0  0.25048800705E+02  0.31200820674E+02  0.30299831855E+02  0.50189774236E+02  0.00000000000E+00 0.  1.
         11    1    3    3    0    0 -0.27397074710E+01 -0.30727679970E+02  0.15371515743E+03  0.15678024728E+03  0.00000000000E+00 0. -1.
<mgrwt>
<rscale>  0 0.11800721E+03</rscale>
<asrwt>0</asrwt>
<pdfrwt beam="1">  1        1 0.54067470E-01 0.12697115E+03</pdfrwt>
<pdfrwt beam="2">  1       -1 0.57419182E-02 0.12697115E+03</pdfrwt>
<totfact> 0.96461371E+03</totfact>
</mgrwt>
</event>
<event>
 7    1  0.5107591E-006  0.1460567E+03  0.7546771E-02  0.1216193E+00
         -1   -1    0    0    0  501 -0.00000000000E+00  0.00000000000E+00  0.38084542666E+02  0.38084542666E+02  0.00000000000E+00 0.  1.
          1   -1    0    0  501    0  0.00000000000E+00 -0.00000000000E+00 -0.45271229326E+03  0.45271229326E+03  0.00000000000E+00 0. -1.
         23    2    1    2    0    0 -0.47854938815E+02 -0.58467448199E+02 -0.19894972513E+03  0.23031734081E+03  0.88071259116E+02 0.  0.
          5    1    1    2  502    0 -0.36085744454E+02  0.49777900168E+00 -0.24924800496E+02  0.44110819721E+02  0.47000000000E+01 0.  1.
         -5    1    1    2    0  502  0.83940683269E+02  0.57969669198E+02 -0.19075322497E+03  0.21636867539E+03  0.47000000000E+01 0.  1.
        -11    1    3    3    0    0 -0.21766922963E+02  0.21952918606E+02 -0.63911390896E+02  0.70995742527E+02  0.00000000000E+00 0. -1.
         11    1    3    3    0    0 -0.26088015852E+02 -0.80420366805E+02 -0.13503833423E+03  0.15932159829E+03  0.00000000000E+00 0.  1.
<mgrwt>
<rscale>  0 0.13789300E+03</rscale>
<asrwt>0</asrwt>
<pdfrwt beam="2">  1        1 0.69648044E-01 0.14605669E+03</pdfrwt>
<pdfrwt beam="1">  1       -1 0.58591605E-02 0.14605669E+03</pdfrwt>
<totfact> 0.68641793E+03</totfact>
</mgrwt>
</event>
<event>
 7    1  0.5107591E-006  0.3740133E+03  0.7546771E-02  0.1054119E+00
         -1   -1    0    0    0  501 -0.00000000000E+00  0.00000000000E+00  0.23139388915E+03  0.23139388915E+03  0.00000000000E+00 0.  1.
          1   -1    0    0  501    0  0.00000000000E+00 -0.00000000000E+00 -0.59959527869E+03  0.59959527869E+03  0.00000000000E+00 0. -1.
         23    2    1    2    0    0  0.35060526249E+03  0.36570699804E+02 -0.23797405573E+03  0.43495237745E+03  0.91051926246E+02 0.  0.
          5    1    1    2  502    0 -0.34092059988E+03 -0.25085625277E+02 -0.91014304520E+02  0.35378218955E+03  0.47000000000E+01 0. -1.
         -5    1    1    2    0  502 -0.96846626176E+01 -0.11485074527E+02 -0.39213029287E+02  0.42254600847E+02  0.47000000000E+01 0. -1.
        -11    1    3    3    0    0  0.17052713994E+03 -0.76186062258E+01 -0.69093222596E+02  0.18415054175E+03  0.00000000000E+00 0.  1.
         11    1    3    3    0    0  0.18007812255E+03  0.44189306030E+02 -0.16888083313E+03  0.25080183570E+03  0.00000000000E+00 0. -1.
<mgrwt>
<rscale>  0 0.37150407E+03</rscale>
<asrwt>0</asrwt>
<pdfrwt beam="2">  1        1 0.92245426E-01 0.37401334E+03</pdfrwt>
<pdfrwt beam="1">  1       -1 0.35599060E-01 0.37401334E+03</pdfrwt>
<totfact> 0.26696178E+02</totfact>
</mgrwt>
</event>
<event>
 7    1  0.5107591E-006  0.1325611E+03  0.7546771E-02  0.1236771E+00
         -2   -1    0    0    0  501 -0.00000000000E+00  0.00000000000E+00  0.51147189242E+02  0.51147189242E+02  0.00000000000E+00 0.  1.
          2   -1    0    0  501    0  0.00000000000E+00 -0.00000000000E+00 -0.27222589313E+03  0.27222589313E+03  0.00000000000E+00 0. -1.
         23    2    1    2    0    0 -0.44156902449E+02 -0.10853439008E+01 -0.11789172242E+03  0.15538497438E+03  0.91077011605E+02 0.  0.
          5    1    1    2  502    0  0.35369716436E+01 -0.16103212827E+02 -0.11950248233E+03  0.12072595792E+03  0.47000000000E+01 0. -1.
         -5    1    1    2    0  502  0.40619930805E+02  0.17188556728E+02  0.16315500866E+02  0.47262150073E+02  0.47000000000E+01 0. -1.
        -11    1    3    3    0    0 -0.19878817499E+02 -0.11768572781E+02  0.97075216519E+01  0.25057986094E+02  0.00000000000E+00 0.  1.
         11    1    3    3    0    0 -0.24278084949E+02  0.10683228880E+02 -0.12759924407E+03  0.13032698829E+03  0.00000000000E+00 0. -1.
<mgrwt>
<rscale>  0 0.12391720E+03</rscale>
<asrwt>0</asrwt>
<pdfrwt beam="2">  1        2 0.41880906E-01 0.13256112E+03</pdfrwt>
<pdfrwt beam="1">  1       -2 0.78687984E-02 0.13256112E+03</pdfrwt>
<totfact> 0.11107419E+04</totfact>
</mgrwt>
</event>
<event>
 7    1  0.5107591E-006  0.1262307E+03  0.7546771E-02  0.1245097E+00
          2   -1    0    0  501    0  0.00000000000E+00  0.00000000000E+00  0.21712788789E+03  0.21712788789E+03  0.00000000000E+00 0. -1.
         -2   -1    0    0    0  501 -0.00000000000E+00 -0.00000000000E+00 -0.71325497404E+02  0.71325497404E+02  0.00000000000E+00 0.  1.
         23    2    1    2    0    0  0.92128260583E+01 -0.42679108843E+02  0.12667495517E+03  0.16078177348E+03  0.88869859461E+02 0.  0.
          5    1    1    2  502    0 -0.44436691885E+02  0.43910909976E+02  0.50332541905E+02  0.80363190425E+02  0.47000000000E+01 0. -1.
         -5    1    1    2    0  502  0.35223865827E+02 -0.12318011333E+01 -0.31205106585E+02  0.47308421394E+02  0.47000000000E+01 0.  1.
        -11    1    3    3    0    0 -0.85707521358E+01 -0.67736320276E+02  0.86129626769E+02  0.10990895998E+03  0.00000000000E+00 0.  1.
         11    1    3    3    0    0  0.17783578194E+02  0.25057211433E+02  0.40545328400E+02  0.50872813499E+02  0.00000000000E+00 0. -1.
<mgrwt>
<rscale>  0 0.11879560E+03</rscale>
<asrwt>0</asrwt>
<pdfrwt beam="1">  1        2 0.33404290E-01 0.12623067E+03</pdfrwt>
<pdfrwt beam="2">  1       -2 0.10973154E-01 0.12623067E+03</pdfrwt>
<totfact> 0.83799650E+03</totfact>
</mgrwt>
</event>
<event>
 7    1  0.5107591E-006  0.2599766E+03  0.7546771E-02  0.1110477E+00
          1   -1    0    0  501    0  0.00000000000E+00  0.00000000000E+00  0.27513872692E+03  0.27513872692E+03  0.00000000000E+00 0. -1.
         -1   -1    0    0    0  501 -0.00000000000E+00 -0.00000000000E+00 -0.34469212851E+03  0.34469212851E+03  0.00000000000E+00 0.  1.
         23    2    1    2    0    0  0.21502027612E+03  0.48597756052E+02  0.14786746442E+03  0.28092132258E+03  0.91959455257E+02 0.  0.
          5    1    1    2  502    0 -0.21257171197E+03 -0.44413686053E+01 -0.19730055835E+03  0.29009663702E+03  0.47000000000E+01 0. -1.
         -5    1    1    2    0  502 -0.24485641480E+01 -0.44156387447E+02 -0.20120307656E+02  0.48812895826E+02  0.47000000000E+01 0.  1.
        -11    1    3    3    0    0  0.19682516705E+03  0.13352696868E+02  0.10899707667E+03  0.22538589934E+03  0.00000000000E+00 0.  1.
         11    1    3    3    0    0  0.18195109067E+02  0.35245059184E+02  0.38870387747E+02  0.55535423240E+02  0.00000000000E+00 0. -1.
<mgrwt>
<rscale>  0 0.25452742E+03</rscale>
<asrwt>0</asrwt>
<pdfrwt beam="1">  1        1 0.42329035E-01 0.25997661E+03</pdfrwt>
<pdfrwt beam="2">  1       -1 0.53029558E-01 0.25997661E+03</pdfrwt>
<totfact> 0.36218340E+02</totfact>
</mgrwt>
</event>
<event>
 7    1  0.5107591E-006  0.1299693E+03  0.7546771E-02  0.1241802E+00
         -1   -1    0    0    0  501 -0.00000000000E+00  0.00000000000E+00  0.39739323091E+02  0.39739323091E+02  0.00000000000E+00 0.  1.
          1   -1    0    0  501    0  0.00000000000E+00 -0.00000000000E+00 -0.57069984946E+03  0.57069984946E+03  0.00000000000E+00 0. -1.
         23    2    1    2    0    0  0.28820878534E+02 -0.20913175326E+02 -0.44304006684E+03  0.45352513027E+03  0.90180591145E+02 0.  0.
          5    1    1    2  502    0 -0.68957912545E+02  0.20161326777E+02 -0.15004603989E+02  0.73545230578E+02  0.47000000000E+01 0. -1.
         -5    1    1    2    0  502  0.40137034011E+02  0.75184854980E+00 -0.72915855541E+02  0.83368811702E+02  0.47000000000E+01 0. -1.
        -11    1    3    3    0    0 -0.36756754882E+01  0.31821041504E+02 -0.10220893356E+03  0.10711094889E+03  0.00000000000E+00 0.  1.
         11    1    3    3    0    0  0.32496554022E+02 -0.52734216830E+02 -0.34083113328E+03  0.34641418138E+03  0.00000000000E+00 0. -1.
<mgrwt>
<rscale>  0 0.12078823E+03</rscale>
<asrwt>0</asrwt>
<pdfrwt beam="2">  1        1 0.87799978E-01 0.12996926E+03</pdfrwt>
<pdfrwt beam="1">  1       -1 0.61137419E-02 0.12996926E+03</pdfrwt>
<totfact> 0.47261247E+03</totfact>
</mgrwt>
</event>
<event>
 7    1  0.5107591E-006  0.1555295E+03  0.7546771E-02  0.1201906E+00
          1   -1    0    0  501    0  0.00000000000E+00  0.00000000000E+00  0.83783968697E+03  0.83783968697E+03  0.00000000000E+00 0. -1.
         -1   -1    0    0    0  501 -0.00000000000E+00 -0.00000000000E+00 -0.25457241892E+02  0.25457241892E+02  0.00000000000E+00 0.  1.
         23    2    1    2    0    0 -0.74935528142E+02  0.54322314236E+02  0.45956227131E+03  0.47771749706E+03  0.91925396840E+02 0.  0.
          5    1    1    2  502    0 -0.32982764537E+01 -0.43356146579E+00 -0.94308818956E+01  0.11049802552E+02  0.47000000000E+01 0.  1.
         -5    1    1    2    0  502  0.78233804596E+02 -0.53888752770E+02  0.36225105566E+03  0.37452962925E+03  0.47000000000E+01 0.  1.
        -11    1    3    3    0    0 -0.39275797279E+01 -0.12735259850E+02  0.76393653344E+01  0.15361400609E+02  0.00000000000E+00 0.  1.
         11    1    3    3    0    0 -0.71007948414E+02  0.67057574086E+02  0.45192290597E+03  0.46235609645E+03  0.00000000000E+00 0. -1.
<mgrwt>
<rscale>  0 0.14883958E+03</rscale>
<asrwt>0</asrwt>
<pdfrwt beam="1">  1        1 0.12889839E+00 0.15552949E+03</pdfrwt>
<pdfrwt beam="2">  1       -1 0.39164994E-02 0.15552949E+03</pdfrwt>
<totfact> 0.53169618E+03</totfact>
</mgrwt>
</event>
<event>
 7    1  0.5107591E-006  0.1267594E+03  0.7546771E-02  0.1247872E+00
         -1   -1    0    0    0  501 -0.00000000000E+00  0.00000000000E+00  0.36052740505E+03  0.36052740505E+03  0.00000000000E+00 0.  1.
          1   -1    0    0  501    0  0.00000000000E+00 -0.00000000000E+00 -0.41664513119E+02  0.41664513119E+02  0.00000000000E+00 0. -1.
         23    2    1    2    0    0  0.18048766847E+02  0.10830571755E+02  0.50432182518E+02  0.10533672903E+03  0.90051997089E+02 0.  0.
          5    1    1    2  502    0  0.31675912619E+02  0.30597685432E+02  0.18983131536E+03  0.19492973115E+03  0.47000000000E+01 0.  1.
         -5    1    1    2    0  502 -0.49724679466E+02 -0.41428257187E+02  0.78599394060E+02  0.10192545800E+03  0.47000000000E+01 0.  1.
        -11    1    3    3    0    0 -0.64934910370E+00 -0.39127088981E+02  0.21863823337E+02  0.44826080771E+02  0.00000000000E+00 0.  1.
         11    1    3    3    0    0  0.18698115951E+02  0.49957660736E+02  0.28568359181E+02  0.60510648258E+02  0.00000000000E+00 0. -1.
<mgrwt>
<rscale>  0 0.11715111E+03</rscale>
<asrwt>0</asrwt>
<pdfrwt beam="2">  1        1 0.64099253E-02 0.12675945E+03</pdfrwt>
<pdfrwt beam="1">  1       -1 0.55465753E-01 0.12675945E+03</pdfrwt>
<totfact> 0.38068971E+03</totfact>
</mgrwt>
</event>
<event>
 7    1  0.5107591E-006  0.4936114E+03  0.7546771E-02  0.1015850E+00
          1   -1    0    0  501    0  0.00000000000E+00  0.00000000000E+00  0.11564432992E+04  0.11564432992E+04  0.00000000000E+00 0. -1.
         -1   -1    0    0    0  501 -0.00000000000E+00 -0.00000000000E+00 -0.24354091046E+03  0.24354091046E+03  0.00000000000E+00 0.  1.
         23    2    1    2    0    0 -0.44652551624E+03  0.16467735618E+03  0.72075352412E+03  0.87029242884E+03  0.10686253262E+03 0.  0.
          5    1    1    2  502    0  0.13650407962E+03  0.56667734925E+00  0.18673320681E+02  0.13785669292E+03  0.47000000000E+01 0.  1.
         -5    1    1    2    0  502  0.31002143662E+03 -0.16524403353E+03  0.17347554396E+03  0.39183508793E+03  0.47000000000E+01 0. -1.
        -11    1    3    3    0    0 -0.11867479997E+02  0.21167293162E+02  0.13308798941E+02  0.27676985214E+02  0.00000000000E+00 0.  1.
         11    1    3    3    0    0 -0.43465803625E+03  0.14351006302E+03  0.70744472518E+03  0.84261544363E+03  0.00000000000E+00 0. -1.
<mgrwt>
<rscale>  0 0.49214547E+03</rscale>
<asrwt>0</asrwt>
<pdfrwt beam="1">  1        1 0.17791435E+00 0.49361138E+03</pdfrwt>
<pdfrwt beam="2">  1       -1 0.37467833E-01 0.49361138E+03</pdfrwt>
<totfact> 0.82957431E+01</totfact>
</mgrwt>
</event>
<event>
 7    1  0.5107591E-006  0.1162543E+03  0.7546771E-02  0.1258371E+00
         -1   -1    0    0    0  501 -0.00000000000E+00  0.00000000000E+00  0.45364534634E+02  0.45364534634E+02  0.00000000000E+00 0.  1.
          1   -1    0    0  501    0  0.00000000000E+00 -0.00000000000E+00 -0.35248324600E+03  0.35248324600E+03  0.00000000000E+00 0. -1.
         23    2    1    2    0    0  0.35636167629E+00  0.34328374697E+02 -0.25010288738E+03  0.26836469246E+03  0.91047183276E+02 0.  0.
          5    1    1    2  502    0  0.27084343639E+02 -0.62976184697E+02 -0.12803483885E+02  0.69896929181E+02  0.47000000000E+01 0. -1.
         -5    1    1    2    0  502 -0.27440705316E+02  0.28647810000E+02 -0.44212340102E+02  0.59586158991E+02  0.47000000000E+01 0.  1.
        -11    1    3    3    0    0 -0.15065128303E+02 -0.25016724915E+02 -0.13313089748E+03  0.13629611323E+03  0.00000000000E+00 0.  1.
         11    1    3    3    0    0  0.15421489979E+02  0.59345099611E+02 -0.11697198989E+03  0.13206857923E+03  0.00000000000E+00 0. -1.
<mgrwt>
<rscale>  0 0.11119621E+03</rscale>
<asrwt>0</asrwt>
<pdfrwt beam="2">  1        1 0.54228191E-01 0.11625432E+03</pdfrwt>
<pdfrwt beam="1">  1       -1 0.69791593E-02 0.11625432E+03</pdfrwt>
<totfact> 0.71422923E+03</totfact>
</mgrwt>
</event>
<event>
 7    1  0.5107591E-006  0.1329590E+03  0.7546771E-02  0.1236532E+00
          2   -1    0    0  501    0  0.00000000000E+00  0.00000000000E+00  0.57919935758E+03  0.57919935758E+03  0.00000000000E+00 0. -1.
         -2   -1    0    0    0  501 -0.00000000000E+00 -0.00000000000E+00 -0.28784964842E+02  0.28784964842E+02  0.00000000000E+00 0.  1.
         23    2    1    2    0    0 -0.36809302517E+01  0.45160113837E+02  0.37236320785E+03  0.38576747777E+03  0.90051114445E+02 0.  0.
          5    1    1    2  502    0 -0.54977801469E+02  0.26651869749E+01  0.57011993371E+02  0.79385888319E+02  0.47000000000E+01 0. -1.
         -5    1    1    2    0  502  0.58658731721E+02 -0.47825300812E+02  0.12103919151E+03  0.14283095633E+03  0.47000000000E+01 0. -1.
        -11    1    3    3    0    0 -0.52577014694E+01 -0.16776988744E+02  0.15112457845E+02  0.23183984951E+02  0.00000000000E+00 0.  1.
         11    1    3    3    0    0  0.15767712177E+01  0.61937102581E+02  0.35725075001E+03  0.36258349282E+03  0.00000000000E+00 0. -1.
<mgrwt>
<rscale>  0 0.12406857E+03</rscale>
<asrwt>0</asrwt>
<pdfrwt beam="1">  1        2 0.89107585E-01 0.13295902E+03</pdfrwt>
<pdfrwt beam="2">  1       -2 0.44284565E-02 0.13295902E+03</pdfrwt>
<totfact> 0.11772353E+04</totfact>
</mgrwt>
</event>
<event>
 7    1  0.5107591E-006  0.1261856E+03  0.7546771E-02  0.1248505E+00
         -1   -1    0    0    0  501 -0.00000000000E+00  0.00000000000E+00  0.27972917198E+02  0.27972917198E+02  0.00000000000E+00 0.  1.
          1   -1    0    0  501    0  0.00000000000E+00 -0.00000000000E+00 -0.44522487051E+03  0.44522487051E+03  0.00000000000E+00 0. -1.
         23    2    1    2    0    0 -0.14113787032E+02  0.98579936908E+01 -0.22427541676E+03  0.24262728059E+03  0.90951391964E+02 0.  0.
          5    1    1    2  502    0  0.45017524404E+02  0.44059584365E+02 -0.10922208498E+03  0.12617201879E+03  0.47000000000E+01 0.  1.
         -5    1    1    2    0  502 -0.30903737372E+02 -0.53917578056E+02 -0.83754451568E+02  0.10439848832E+03  0.47000000000E+01 0.  1.
        -11    1    3    3    0    0  0.33185684833E+02  0.25015552026E+02 -0.81969567557E+02  0.91902543634E+02  0.00000000000E+00 0.  1.
         11    1    3    3    0    0 -0.47299471865E+02 -0.15157558335E+02 -0.14230584920E+03  0.15072473696E+03  0.00000000000E+00 0. -1.
<mgrwt>
<rscale>  0 0.11678062E+03</rscale>
<asrwt>0</asrwt>
<pdfrwt beam="2">  1        1 0.68496129E-01 0.12618564E+03</pdfrwt>
<pdfrwt beam="1">  1       -1 0.43035260E-02 0.12618564E+03</pdfrwt>
<totfact> 0.10961208E+04</totfact>
</mgrwt>
</event>
<event>
 7    1  0.5107591E-006  0.2308373E+03  0.7546771E-02  0.1129481E+00
          1   -1    0    0  501    0  0.00000000000E+00  0.00000000000E+00  0.16461708485E+03  0.16461708485E+03  0.00000000000E+00 0. -1.
         -1   -1    0    0    0  501 -0.00000000000E+00 -0.00000000000E+00 -0.59399387782E+03  0.59399387782E+03  0.00000000000E+00 0.  1.
         23    2    1    2    0    0  0.42641340755E+02  0.18696282580E+03  0.57508015383E+02  0.21977639059E+03  0.90670325125E+02 0.  0.
          5    1    1    2  502    0  0.93518434834E+01 -0.25542784781E+02 -0.51246475637E+01  0.28075662834E+02  0.47000000000E+01 0. -1.
         -5    1    1    2    0  502 -0.51993184239E+02 -0.16142004102E+03 -0.48176016078E+03  0.51075890924E+03  0.47000000000E+01 0.  1.
        -11    1    3    3    0    0  0.66209821684E+02  0.91281551549E+02  0.21088934244E+02  0.11472055303E+03  0.00000000000E+00 0. -1.
         11    1    3    3    0    0 -0.23568480928E+02  0.95681274247E+02  0.36419081139E+02  0.10505583756E+03  0.00000000000E+00 0.  1.
<mgrwt>
<rscale>  0 0.22600834E+03</rscale>
<asrwt>0</asrwt>
<pdfrwt beam="1">  1        1 0.25325705E-01 0.23083734E+03</pdfrwt>
<pdfrwt beam="2">  1       -1 0.91383674E-01 0.23083734E+03</pdfrwt>
<totfact> 0.23333058E+02</totfact>
</mgrwt>
</event>
<event>
 7    1  0.5107591E-006  0.1432940E+03  0.7546771E-02  0.1221954E+00
          1   -1    0    0  501    0  0.00000000000E+00  0.00000000000E+00  0.11944422394E+03  0.11944422394E+03  0.00000000000E+00 0.  1.
         -1   -1    0    0    0  501 -0.00000000000E+00 -0.00000000000E+00 -0.14690813435E+03  0.14690813435E+03  0.00000000000E+00 0. -1.
         23    2    1    2    0    0  0.48809413410E+01 -0.69890202665E+02  0.28481345904E+02  0.11252442642E+03  0.83319238228E+02 0.  0.
          5    1    1    2  502    0  0.15349363834E+01  0.12490388657E+02 -0.87035635481E+02  0.88066211921E+02  0.47000000000E+01 0.  1.
         -5    1    1    2    0  502 -0.64158777244E+01  0.57399814008E+02  0.31090379161E+02  0.65761719955E+02  0.47000000000E+01 0.  1.
        -11    1    3    3    0    0 -0.10274157020E+02 -0.74706795635E+02  0.46419984139E+02  0.88552123317E+02  0.00000000000E+00 0.  1.
         11    1    3    3    0    0  0.15155098361E+02  0.48165929694E+01 -0.17938638235E+02  0.23972303100E+02  0.00000000000E+00 0. -1.
<mgrwt>
<rscale>  0 0.13377910E+03</rscale>
<asrwt>0</asrwt>
<pdfrwt beam="1">  1        1 0.18376035E-01 0.14329397E+03</pdfrwt>
<pdfrwt beam="2">  1       -1 0.22601251E-01 0.14329397E+03</pdfrwt>
<totfact> 0.45118699E+03</totfact>
</mgrwt>
</event>
<event>
 7    1  0.5107591E-006  0.2278135E+03  0.7546771E-02  0.1131132E+00
         -2   -1    0    0    0  501 -0.00000000000E+00  0.00000000000E+00  0.92372179104E+02  0.92372179104E+02  0.00000000000E+00 0.  1.
          2   -1    0    0  501    0  0.00000000000E+00 -0.00000000000E+00 -0.62809066438E+03  0.62809066438E+03  0.00000000000E+00 0. -1.
         23    2    1    2    0    0 -0.23060350350E+02  0.18906267885E+03 -0.40683528494E+03  0.45871898140E+03  0.92906827143E+02 0.  0.
          5    1    1    2  502    0 -0.27433802581E+02 -0.14503280450E+03 -0.45195377937E+02  0.15444040952E+03  0.47000000000E+01 0.  1.
         -5    1    1    2    0  502  0.50494152931E+02 -0.44029874354E+02 -0.83687822399E+02  0.10730345257E+03  0.47000000000E+01 0.  1.
        -11    1    3    3    0    0  0.20376932478E+02  0.31687845143E+02 -0.30414536831E+02  0.48418828545E+02  0.00000000000E+00 0.  1.
         11    1    3    3    0    0 -0.43437282828E+02  0.15737483371E+03 -0.37642074811E+03  0.41030015286E+03  0.00000000000E+00 0. -1.
<mgrwt>
<rscale>  0 0.22373049E+03</rscale>
<asrwt>0</asrwt>
<pdfrwt beam="2">  1        2 0.96629333E-01 0.22781345E+03</pdfrwt>
<pdfrwt beam="1">  1       -2 0.14211104E-01 0.22781345E+03</pdfrwt>
<totfact> 0.17842600E+03</totfact>
</mgrwt>
</event>
<event>
 7    1  0.5107591E-006  0.1482134E+03  0.7546771E-02  0.1212592E+00
          1   -1    0    0  501    0  0.00000000000E+00  0.00000000000E+00  0.21174679532E+03  0.21174679532E+03  0.00000000000E+00 0. -1.
         -1   -1    0    0    0  501 -0.00000000000E+00 -0.00000000000E+00 -0.86224018773E+02  0.86224018773E+02  0.00000000000E+00 0.  1.
         23    2    1    2    0    0  0.81867152258E+01  0.79222008962E+02  0.74989516164E+02  0.14137951220E+03  0.89563329128E+02 0.  0.
          5    1    1    2  502    0 -0.41505800874E+02  0.40340568777E+00  0.56128436100E+02  0.69967032103E+02  0.47000000000E+01 0.  1.
         -5    1    1    2    0  502  0.33319085648E+02 -0.79625414649E+02 -0.55951757123E+01  0.86624269796E+02  0.47000000000E+01 0.  1.
        -11    1    3    3    0    0 -0.17793570885E+02  0.33515687062E+02 -0.11946839364E+02  0.39782400819E+02  0.00000000000E+00 0.  1.
         11    1    3    3    0    0  0.25980286111E+02  0.45706321899E+02  0.86936355528E+02  0.10159711138E+03  0.00000000000E+00 0. -1.
<mgrwt>
<rscale>  0 0.14054905E+03</rscale>
<asrwt>0</asrwt>
<pdfrwt beam="1">  1        1 0.32576430E-01 0.14821345E+03</pdfrwt>
<pdfrwt beam="2">  1       -1 0.13265234E-01 0.14821345E+03</pdfrwt>
<totfact> 0.51255268E+03</totfact>
</mgrwt>
</event>
<event>
 7    1  0.5107591E-006  0.1466394E+03  0.7546771E-02  0.1214168E+00
         -2   -1    0    0    0  501 -0.00000000000E+00  0.00000000000E+00  0.63211380499E+03  0.63211380499E+03  0.00000000000E+00 0.  1.
          2   -1    0    0  501    0  0.00000000000E+00 -0.00000000000E+00 -0.44175818974E+02  0.44175818974E+02  0.00000000000E+00 0. -1.
         23    2    1    2    0    0 -0.76474390766E+02 -0.54793717820E+01  0.71449803524E+02  0.13938817202E+03  0.91900120332E+02 0.  0.
          5    1    1    2  502    0  0.17931637517E+02  0.60907242095E+00  0.15610840675E+01  0.18612941109E+02  0.47000000000E+01 0. -1.
         -5    1    1    2    0  502  0.58542753249E+02  0.48702993611E+01  0.51492709842E+03  0.51828851083E+03  0.47000000000E+01 0. -1.
        -11    1    3    3    0    0 -0.97539520681E+02 -0.10273511313E+02  0.58525534377E+02  0.11421357758E+03  0.00000000000E+00 0. -1.
         11    1    3    3    0    0  0.21065129915E+02  0.47941395315E+01  0.12924269147E+02  0.25174594439E+02  0.00000000000E+00 0.  1.
<mgrwt>
<rscale>  0 0.13937860E+03</rscale>
<asrwt>0</asrwt>
<pdfrwt beam="2">  1        2 0.67962803E-02 0.14663944E+03</pdfrwt>
<pdfrwt beam="1">  1       -2 0.97248271E-01 0.14663944E+03</pdfrwt>
<totfact> 0.93842423E+02</totfact>
</mgrwt>
</event>
<event>
 7    1  0.5107591E-006  0.1318153E+03  0.7546771E-02  0.1246052E+00
          1   -1    0    0  501    0  0.00000000000E+00  0.00000000000E+00  0.14469635315E+03  0.14469635315E+03  0.00000000000E+00 0. -1.
         -1   -1    0    0    0  501 -0.00000000000E+00 -0.00000000000E+00 -0.84196483595E+02  0.84196483595E+02  0.00000000000E+00 0.  1.
         23    2    1    2    0    0 -0.34521312189E+02 -0.23640865540E+02  0.37630933078E+01  0.85385616536E+02  0.74336606872E+02 0.  0.
          5    1    1    2  502    0 -0.16537681511E+02 -0.21195933626E+02  0.69087694441E+02  0.74282986176E+02  0.47000000000E+01 0. -1.
         -5    1    1    2    0  502  0.51058993700E+02  0.44836799166E+02 -0.12350918194E+02  0.69224234032E+02  0.47000000000E+01 0. -1.
        -11    1    3    3    0    0 -0.49950311525E+02 -0.36717009176E+02 -0.71502363982E+01  0.62404312870E+02  0.00000000000E+00 0.  1.
         11    1    3    3    0    0  0.15428999336E+02  0.13076143636E+02  0.10913329706E+02  0.22981303666E+02  0.00000000000E+00 0. -1.
<mgrwt>
<rscale>  0 0.11822651E+03</rscale>
<asrwt>0</asrwt>
<pdfrwt beam="1">  1        1 0.22260977E-01 0.13181525E+03</pdfrwt>
<pdfrwt beam="2">  1       -1 0.12953305E-01 0.13181525E+03</pdfrwt>
<totfact> 0.84991670E+03</totfact>
</mgrwt>
</event>
<event>
 7    1  0.5107591E-006  0.1253514E+03  0.7546771E-02  0.1251579E+00
         -1   -1    0    0    0  501 -0.00000000000E+00  0.00000000000E+00  0.18410581389E+03  0.18410581389E+03  0.00000000000E+00 0.  1.
          1   -1    0    0  501    0  0.00000000000E+00 -0.00000000000E+00 -0.74426719585E+02  0.74426719585E+02  0.00000000000E+00 0. -1.
         23    2    1    2    0    0  0.78196132491E+01  0.54132721798E+01 -0.45806289100E+01  0.88920462540E+02  0.88291656627E+02 0.  0.
          5    1    1    2  502    0  0.45292829863E+02  0.42060819346E+01  0.10515959799E+03  0.11467241435E+03  0.47000000000E+01 0.  1.
         -5    1    1    2    0  502 -0.53112443112E+02 -0.96193541145E+01  0.91001252214E+01  0.54939656587E+02  0.47000000000E+01 0.  1.
        -11    1    3    3    0    0  0.20141787772E+02  0.10351607016E+02  0.38045347078E+02  0.44275228026E+02  0.00000000000E+00 0.  1.
         11    1    3    3    0    0 -0.12322174522E+02 -0.49383348365E+01 -0.42625975988E+02  0.44645234514E+02  0.00000000000E+00 0. -1.
<mgrwt>
<rscale>  0 0.11500138E+03</rscale>
<asrwt>0</asrwt>
<pdfrwt beam="2">  1        1 0.11450265E-01 0.12535139E+03</pdfrwt>
<pdfrwt beam="1">  1       -1 0.28323971E-01 0.12535139E+03</pdfrwt>
<totfact> 0.56980464E+03</totfact>
</mgrwt>
</event>
<event>
 7    1  0.5107591E-006  0.1452072E+03  0.7546771E-02  0.1219384E+00
         -2   -1    0    0    0  501 -0.00000000000E+00  0.00000000000E+00  0.65123790910E+02  0.65123790910E+02  0.00000000000E+00 0.  1.
          2   -1    0    0  501    0  0.00000000000E+00 -0.00000000000E+00 -0.43148591638E+03  0.43148591638E+03  0.00000000000E+00 0. -1.
         23    2    1    2    0    0  0.21674217071E+02 -0.70634357270E+02 -0.32848591068E+03  0.34654395404E+03  0.82041053465E+02 0.  0.
          5    1    1    2  502    0 -0.33690333052E+02 -0.96750803553E+01 -0.56468116125E+02  0.66628701471E+02  0.47000000000E+01 0. -1.
         -5    1    1    2    0  502  0.12016115980E+02  0.80309437626E+02  0.18591901332E+02  0.83437051782E+02  0.47000000000E+01 0. -1.
        -11    1    3    3    0    0 -0.87700263247E+01 -0.71603854771E+02 -0.16259195960E+03  0.17787684140E+03  0.00000000000E+00 0.  1.
         11    1    3    3    0    0  0.30444243396E+02  0.96949750094E+00 -0.16589395108E+03  0.16866711264E+03  0.00000000000E+00 0. -1.
<mgrwt>
<rscale>  0 0.13559393E+03</rscale>
<asrwt>0</asrwt>
<pdfrwt beam="2">  1        2 0.66382449E-01 0.14520717E+03</pdfrwt>
<pdfrwt beam="1">  1       -2 0.10019045E-01 0.14520717E+03</pdfrwt>
<totfact> 0.46970058E+03</totfact>
</mgrwt>
</event>
<event>
 7    1  0.5107591E-006  0.1361372E+03  0.7546771E-02  0.1230066E+00
         -1   -1    0    0    0  501 -0.00000000000E+00  0.00000000000E+00  0.22873825854E+02  0.22873825854E+02  0.00000000000E+00 0.  1.
          1   -1    0    0  501    0  0.00000000000E+00 -0.00000000000E+00 -0.65968220547E+03  0.65968220547E+03  0.00000000000E+00 0. -1.
         23    2    1    2    0    0  0.33873723740E+02 -0.41968615548E+02 -0.32752312885E+03  0.34463486242E+03  0.92698406712E+02 0.  0.
          5    1    1    2  502    0  0.32959397816E+02 -0.16098559186E+02 -0.40276711017E+02  0.54678962706E+02  0.47000000000E+01 0. -1.
         -5    1    1    2    0  502 -0.66833121556E+02  0.58067174734E+02 -0.26900853974E+03  0.28324220620E+03  0.47000000000E+01 0. -1.
        -11    1    3    3    0    0 -0.28954151997E+02 -0.20352038217E+02 -0.17047566883E+03  0.17411060290E+03  0.00000000000E+00 0. -1.
         11    1    3    3    0    0  0.62827875737E+02 -0.21616577331E+02 -0.15704746002E+03  0.17052425952E+03  0.00000000000E+00 0.  1.
<mgrwt>
<rscale>  0 0.12825621E+03</rscale>
<asrwt>0</asrwt>
<pdfrwt beam="2">  1        1 0.10148958E+00 0.13613725E+03</pdfrwt>
<pdfrwt beam="1">  1       -1 0.35190497E-02 0.13613725E+03</pdfrwt>
<totfact> 0.87756678E+03</totfact>
</mgrwt>
</event>
<event>
 7    1  0.5107591E-006  0.1254572E+03  0.7546771E-02  0.1249509E+00
          1   -1    0    0  501    0  0.00000000000E+00  0.00000000000E+00  0.70664731504E+02  0.70664731504E+02  0.00000000000E+00 0. -1.
         -1   -1    0    0    0  501 -0.00000000000E+00 -0.00000000000E+00 -0.17009133294E+03  0.17009133294E+03  0.00000000000E+00 0.  1.
         23    2    1    2    0    0 -0.68890798269E+01 -0.82182619632E+01 -0.28373182527E+02  0.96575276099E+02  0.91688315593E+02 0.  0.
          5    1    1    2  502    0 -0.53517647577E+02  0.22913168080E+02 -0.54001812617E+02  0.79545192435E+02  0.47000000000E+01 0. -1.
         -5    1    1    2    0  502  0.60406727404E+02 -0.14694906117E+02 -0.17051606291E+02  0.64635595909E+02  0.47000000000E+01 0. -1.
        -11    1    3    3    0    0 -0.34811142564E+02 -0.21786580795E+02 -0.45359418132E+02  0.61187805669E+02  0.00000000000E+00 0.  1.
         11    1    3    3    0    0  0.27922062737E+02  0.13568318832E+02  0.16986235605E+02  0.35387470430E+02  0.00000000000E+00 0. -1.
<mgrwt>
<rscale>  0 0.11619509E+03</rscale>
<asrwt>0</asrwt>
<pdfrwt beam="1">  1        1 0.10871497E-01 0.12545721E+03</pdfrwt>
<pdfrwt beam="2">  1       -1 0.26167897E-01 0.12545721E+03</pdfrwt>
<totfact> 0.69551568E+03</totfact>
</mgrwt>
</event>
<event>
 7    1  0.5107591E-006  0.2704170E+03  0.7546771E-02  0.1101041E+00
         -2   -1    0    0    0  501 -0.00000000000E+00  0.00000000000E+00  0.13937535174E+02  0.13937535174E+02  0.00000000000E+00 0.  1.
          2   -1    0    0  501    0  0.00000000000E+00 -0.00000000000E+00 -0.13116619505E+04  0.13116619505E+04  0.00000000000E+00 0. -1.
         23    2    1    2    0    0  0.25266057953E+02 -0.24959955481E+02 -0.47389065126E+03  0.48397954342E+03  0.91665020771E+02 0.  0.
          5    1    1    2  502    0 -0.74555302218E+02  0.71844435385E+02 -0.52001066631E+03  0.53023890753E+03  0.47000000000E+01 0. -1.
         -5    1    1    2    0  502  0.49289244265E+02 -0.46884479905E+02 -0.30382309774E+03  0.31138103471E+03  0.47000000000E+01 0.  1.
        -11    1    3    3    0    0  0.60078493752E+02 -0.13018273155E+02 -0.29075289958E+03  0.29718033155E+03  0.00000000000E+00 0. -1.
         11    1    3    3    0    0 -0.34812435799E+02 -0.11941682326E+02 -0.18313775168E+03  0.18679921187E+03  0.00000000000E+00 0.  1.
<mgrwt>
<rscale>  0 0.27041697E+03</rscale>
<asrwt>0</asrwt>
<pdfrwt beam="2">  1        2 0.20179416E+00 0.27041697E+03</pdfrwt>
<pdfrwt beam="1">  1       -2 0.21442360E-02 0.27041697E+03</pdfrwt>
<totfact> 0.12042563E+04</totfact>
</mgrwt>
</event>
<event>
 7    1  0.5107591E-006  0.1632875E+03  0.7546771E-02  0.1192554E+00
         -1   -1    0    0    0  501 -0.00000000000E+00  0.00000000000E+00  0.46179268420E+02  0.46179268420E+02  0.00000000000E+00 0.  1.
          1   -1    0    0  501    0  0.00000000000E+00 -0.00000000000E+00 -0.63938141943E+03  0.63938141943E+03  0.00000000000E+00 0. -1.
         23    2    1    2    0    0 -0.65770112669E+02  0.81924389524E+02 -0.44164776822E+03  0.46277934762E+03  0.89859112469E+02 0.  0.
          5    1    1    2  502    0  0.98036463376E+02 -0.61494955786E+02 -0.77598626933E+02  0.13941454243E+03  0.47000000000E+01 0.  1.
         -5    1    1    2    0  502 -0.32266350707E+02 -0.20429433738E+02 -0.73955755861E+02  0.83366797802E+02  0.47000000000E+01 0.  1.
        -11    1    3    3    0    0  0.19056639653E+02 -0.10335302582E+00 -0.42992022914E+02  0.47026378034E+02  0.00000000000E+00 0.  1.
         11    1    3    3    0    0 -0.84826752322E+02  0.82027742550E+02 -0.39865574530E+03  0.41575296959E+03  0.00000000000E+00 0. -1.
<mgrwt>
<rscale>  0 0.15663103E+03</rscale>
<asrwt>0</asrwt>
<pdfrwt beam="2">  1        1 0.98366372E-01 0.16328746E+03</pdfrwt>
<pdfrwt beam="1">  1       -1 0.71045029E-02 0.16328746E+03</pdfrwt>
<totfact> 0.32614227E+03</totfact>
</mgrwt>
</event>
<event>
 7    1  0.5107591E-006  0.1432792E+03  0.7546771E-02  0.1219105E+00
         -1   -1    0    0    0  501 -0.00000000000E+00  0.00000000000E+00  0.57789127370E+02  0.57789127370E+02  0.00000000000E+00 0. -1.
          1   -1    0    0  501    0  0.00000000000E+00 -0.00000000000E+00 -0.39275519293E+03  0.39275519293E+03  0.00000000000E+00 0.  1.
         23    2    1    2    0    0  0.32487611973E+01  0.69959960773E+02 -0.26904327324E+03  0.29282702095E+03  0.91969727411E+02 0.  0.
          5    1    1    2  502    0  0.30128329559E+02 -0.86812784642E+02 -0.13264262668E+02  0.92963468542E+02  0.47000000000E+01 0. -1.
         -5    1    1    2    0  502 -0.33377090756E+02  0.16852823869E+02 -0.52658529652E+02  0.64753830812E+02  0.47000000000E+01 0. -1.
        -11    1    3    3    0    0 -0.14031780192E+02  0.13157592388E+02 -0.20877076504E+01  0.19348685124E+02  0.00000000000E+00 0. -1.
         11    1    3    3    0    0  0.17280541389E+02  0.56802368385E+02 -0.26695556559E+03  0.27347833582E+03  0.00000000000E+00 0.  1.
<mgrwt>
<rscale>  0 0.13579286E+03</rscale>
<asrwt>0</asrwt>
<pdfrwt beam="2">  1        1 0.60423876E-01 0.14327921E+03</pdfrwt>
<pdfrwt beam="1">  1       -1 0.88906349E-02 0.14327921E+03</pdfrwt>
<totfact> 0.43874902E+03</totfact>
</mgrwt>
</event>
<event>
 7    1  0.5107591E-006  0.1365845E+03  0.7546771E-02  0.1229914E+00
          3   -1    0    0  501    0  0.00000000000E+00  0.00000000000E+00  0.12198046947E+03  0.12198046947E+03  0.00000000000E+00 0. -1.
         -3   -1    0    0    0  501 -0.00000000000E+00 -0.00000000000E+00 -0.15522078989E+03  0.15522078989E+03  0.00000000000E+00 0.  1.
         23    2    1    2    0    0  0.55037170240E+02  0.13005344233E+01  0.49543714523E+02  0.11748736310E+03  0.91202627926E+02 0.  0.
          5    1    1    2  502    0 -0.31524745846E+02 -0.34649257654E+02  0.18371866723E+02  0.50537076918E+02  0.47000000000E+01 0. -1.
         -5    1    1    2    0  502 -0.23512424394E+02  0.33348723230E+02 -0.10115590166E+03  0.10917681935E+03  0.47000000000E+01 0. -1.
        -11    1    3    3    0    0 -0.74469679139E+01  0.20255116977E+02 -0.14521186495E+02  0.26011381203E+02  0.00000000000E+00 0.  1.
         11    1    3    3    0    0  0.62484138154E+02 -0.18954582554E+02  0.64064901018E+02  0.91475981892E+02  0.00000000000E+00 0. -1.
<mgrwt>
<rscale>  0 0.12835695E+03</rscale>
<asrwt>0</asrwt>
<pdfrwt beam="1">  1        3 0.18766226E-01 0.13658452E+03</pdfrwt>
<pdfrwt beam="2">  1       -3 0.23880121E-01 0.13658452E+03</pdfrwt>
<totfact> 0.94708403E+02</totfact>
</mgrwt>
</event>
<event>
 7    1  0.5107591E-006  0.1282707E+03  0.7546771E-02  0.1242454E+00
          1   -1    0    0  501    0  0.00000000000E+00  0.00000000000E+00  0.14927333153E+03  0.14927333153E+03  0.00000000000E+00 0. -1.
         -1   -1    0    0    0  501 -0.00000000000E+00 -0.00000000000E+00 -0.94063419317E+02  0.94063419317E+02  0.00000000000E+00 0.  1.
         23    2    1    2    0    0 -0.16760359737E+02  0.23404023982E+02  0.57680171849E+02  0.11504223100E+03  0.95284073647E+02 0.  0.
          5    1    1    2  502    0  0.76469865403E+01  0.91189666718E+01 -0.60037067474E+02  0.61385433347E+02  0.47000000000E+01 0. -1.
         -5    1    1    2    0  502  0.91133731969E+01 -0.32522990654E+02  0.57566807834E+02  0.66909086500E+02  0.47000000000E+01 0. -1.
        -11    1    3    3    0    0  0.15878999615E+02 -0.21695171579E+02  0.52683930937E+02  0.59147440161E+02  0.00000000000E+00 0. -1.
         11    1    3    3    0    0 -0.32639359352E+02  0.45099195561E+02  0.49962409118E+01  0.55894790835E+02  0.00000000000E+00 0.  1.
<mgrwt>
<rscale>  0 0.12039054E+03</rscale>
<asrwt>0</asrwt>
<pdfrwt beam="1">  1        1 0.22965128E-01 0.12827074E+03</pdfrwt>
<pdfrwt beam="2">  1       -1 0.14471295E-01 0.12827074E+03</pdfrwt>
<totfact> 0.68643071E+03</totfact>
</mgrwt>
</event>
<event>
 7    1  0.5107591E-006  0.2767422E+03  0.7546771E-02  0.1121229E+00
         -2   -1    0    0    0  501 -0.00000000000E+00  0.00000000000E+00  0.39192381934E+03  0.39192381934E+03  0.00000000000E+00 0.  1.
          2   -1    0    0  501    0  0.00000000000E+00 -0.00000000000E+00 -0.12216040759E+03  0.12216040759E+03  0.00000000000E+00 0. -1.
         23    2    1    2    0    0 -0.90983074387E+02  0.74883181108E+02  0.45043796738E+02  0.15759419430E+03  0.94454093683E+02 0.  0.
          5    1    1    2  502    0  0.75413855704E+02 -0.42648125728E+02 -0.35522512214E+02  0.93755272567E+02  0.47000000000E+01 0. -1.
         -5    1    1    2    0  502  0.15569218683E+02 -0.32235055380E+02  0.26024212722E+03  0.26273476006E+03  0.47000000000E+01 0.  1.
        -11    1    3    3    0    0 -0.22362376697E+02 -0.22298361495E+02  0.14614426264E+02  0.34797618768E+02  0.00000000000E+00 0.  1.
         11    1    3    3    0    0 -0.68620697690E+02  0.97181542602E+02  0.30429370474E+02  0.12279657553E+03  0.00000000000E+00 0. -1.
<mgrwt>
<rscale>  0 0.23785649E+03</rscale>
<asrwt>0</asrwt>
<pdfrwt beam="2">  1        2 0.18793909E-01 0.27674219E+03</pdfrwt>
<pdfrwt beam="1">  1       -2 0.60295972E-01 0.27674219E+03</pdfrwt>
<totfact> 0.78215272E+02</totfact>
</mgrwt>
</event>
<event>
 7    1  0.5107591E-006  0.1717055E+03  0.7546771E-02  0.1182474E+00
         -2   -1    0    0    0  501 -0.00000000000E+00  0.00000000000E+00  0.24564356717E+03  0.24564356717E+03  0.00000000000E+00 0.  1.
          2   -1    0    0  501    0  0.00000000000E+00 -0.00000000000E+00 -0.10451002775E+03  0.10451002775E+03  0.00000000000E+00 0. -1.
         23    2    1    2    0    0  0.88050336325E+02 -0.78129054370E+02  0.62324236122E+02  0.16122586557E+03  0.90843042977E+02 0.  0.
          5    1    1    2  502    0 -0.86575074470E+02 -0.43476852807E+01  0.25047066128E+02  0.90352594918E+02  0.47000000000E+01 0. -1.
         -5    1    1    2    0  502 -0.14752618554E+01  0.82476739651E+02  0.53762237171E+02  0.98575134424E+02  0.47000000000E+01 0. -1.
        -11    1    3    3    0    0  0.16930765907E+02 -0.75653442627E+02  0.33161881564E+02  0.84319657283E+02  0.00000000000E+00 0. -1.
         11    1    3    3    0    0  0.71119570418E+02 -0.24756117435E+01  0.29162354558E+02  0.76906208288E+02  0.00000000000E+00 0.  1.
<mgrwt>
<rscale>  0 0.16563818E+03</rscale>
<asrwt>0</asrwt>
<pdfrwt beam="2">  1        2 0.16078466E-01 0.17170551E+03</pdfrwt>
<pdfrwt beam="1">  1       -2 0.37791318E-01 0.17170551E+03</pdfrwt>
<totfact> 0.23302753E+03</totfact>
</mgrwt>
</event>
<event>
 7    1  0.5107591E-006  0.2299912E+03  0.7546771E-02  0.1129725E+00
         -2   -1    0    0    0  501 -0.00000000000E+00  0.00000000000E+00  0.45591003244E+03  0.45591003244E+03  0.00000000000E+00 0.  1.
          2   -1    0    0  501    0  0.00000000000E+00 -0.00000000000E+00 -0.11105219787E+03  0.11105219787E+03  0.00000000000E+00 0. -1.
         23    2    1    2    0    0 -0.18408709053E+03 -0.58166847232E+02  0.21529853977E+03  0.30298958010E+03  0.90431108628E+02 0.  0.
          5    1    1    2  502    0  0.18623079344E+03  0.56188639438E+02  0.74058063863E+02  0.20819644197E+03  0.47000000000E+01 0.  1.
         -5    1    1    2    0  502 -0.21437029078E+01  0.19782077944E+01  0.55501230940E+02  0.55776208226E+02  0.47000000000E+01 0.  1.
        -11    1    3    3    0    0 -0.15245062133E+03 -0.81976036605E+02  0.16681406398E+03  0.24039175207E+03  0.00000000000E+00 0. -1.
         11    1    3    3    0    0 -0.31636469203E+02  0.23809189373E+02  0.48484475790E+02  0.62597828036E+02  0.00000000000E+00 0.  1.
<mgrwt>
<rscale>  0 0.22567020E+03</rscale>
<asrwt>0</asrwt>
<pdfrwt beam="2">  1        2 0.17084954E-01 0.22999119E+03</pdfrwt>
<pdfrwt beam="1">  1       -2 0.70140004E-01 0.22999119E+03</pdfrwt>
<totfact> 0.63319883E+02</totfact>
</mgrwt>
</event>
<event>
 7    1  0.5107591E-006  0.1524572E+03  0.7546771E-02  0.1206068E+00
         -3   -1    0    0    0  501 -0.00000000000E+00  0.00000000000E+00  0.33791473692E+03  0.33791473692E+03  0.00000000000E+00 0.  1.
          3   -1    0    0  501    0  0.00000000000E+00 -0.00000000000E+00 -0.57731821445E+02  0.57731821445E+02  0.00000000000E+00 0. -1.
         23    2    1    2    0    0 -0.86493668891E+02  0.11738217260E+02  0.11821159388E+03  0.17321029224E+03  0.91699966776E+02 0.  0.
          5    1    1    2  502    0  0.75367428138E+02 -0.33898772854E+02  0.17532549037E+03  0.19388267999E+03  0.47000000000E+01 0.  1.
         -5    1    1    2    0  502  0.11126240753E+02  0.22160555594E+02 -0.13354168778E+02  0.28553586137E+02  0.47000000000E+01 0.  1.
        -11    1    3    3    0    0 -0.69736915954E+02  0.38780043869E+02  0.41020606563E+02  0.89720785842E+02  0.00000000000E+00 0. -1.
         11    1    3    3    0    0 -0.16756752937E+02 -0.27041826609E+02  0.77190987315E+02  0.83489506394E+02  0.00000000000E+00 0.  1.
<mgrwt>
<rscale>  0 0.14553591E+03</rscale>
<asrwt>0</asrwt>
<pdfrwt beam="2">  1        3 0.88818189E-02 0.15245715E+03</pdfrwt>
<pdfrwt beam="1">  1       -3 0.51986881E-01 0.15245715E+03</pdfrwt>
<totfact> 0.78001293E+02</totfact>
</mgrwt>
</event>
<event>
 7    1  0.5107591E-006  0.1257773E+03  0.7546771E-02  0.1248752E+00
         -2   -1    0    0    0  501 -0.00000000000E+00  0.00000000000E+00  0.34853393960E+02  0.34853393960E+02  0.00000000000E+00 0. -1.
          2   -1    0    0  501    0  0.00000000000E+00 -0.00000000000E+00 -0.35050286066E+03  0.35050286066E+03  0.00000000000E+00 0.  1.
         23    2    1    2    0    0  0.12650717860E+02  0.56849069259E+01 -0.16188973053E+03  0.18670582299E+03  0.91969672505E+02 0.  0.
          5    1    1    2  502    0 -0.24486970854E+02  0.33807832765E+00 -0.17300896667E+03  0.17479679227E+03  0.47000000000E+01 0.  1.
         -5    1    1    2    0  502  0.11836252993E+02 -0.60229852536E+01  0.19249230493E+02  0.23853639363E+02  0.47000000000E+01 0.  1.
        -11    1    3    3    0    0 -0.25415032788E+02  0.18472935453E+02 -0.13444347733E+03  0.13806600535E+03  0.00000000000E+00 0.  1.
         11    1    3    3    0    0  0.38065750649E+02 -0.12788028527E+02 -0.27446253194E+02  0.48639817644E+02  0.00000000000E+00 0. -1.
<mgrwt>
<rscale>  0 0.11663629E+03</rscale>
<asrwt>0</asrwt>
<pdfrwt beam="2">  1        2 0.53923517E-01 0.12577733E+03</pdfrwt>
<pdfrwt beam="1">  1       -2 0.53620606E-02 0.12577733E+03</pdfrwt>
<totfact> 0.15172201E+04</totfact>
</mgrwt>
</event>
<event>
 7    1  0.5107591E-006  0.3331222E+03  0.7546771E-02  0.1069764E+00
          2   -1    0    0  501    0  0.00000000000E+00  0.00000000000E+00  0.85984216653E+03  0.85984216653E+03  0.00000000000E+00 0. -1.
         -2   -1    0    0    0  501 -0.00000000000E+00 -0.00000000000E+00 -0.32264756074E+02  0.32264756074E+02  0.00000000000E+00 0.  1.
         23    2    1    2    0    0 -0.20304365785E+02 -0.18748969709E+02  0.37505236130E+03  0.38712054587E+03  0.91838184762E+02 0.  0.
          5    1    1    2  502    0 -0.57182958696E+02 -0.74053037571E+01  0.40735189722E+03  0.41143940922E+03  0.47000000000E+01 0. -1.
         -5    1    1    2    0  502  0.77487324481E+02  0.26154273466E+02  0.45173151931E+02  0.93546967515E+02  0.47000000000E+01 0.  1.
        -11    1    3    3    0    0 -0.25994891984E+01  0.35676901990E+02  0.19288622137E+03  0.19617515917E+03  0.00000000000E+00 0.  1.
         11    1    3    3    0    0 -0.17704876587E+02 -0.54425871699E+02  0.18216613994E+03  0.19094538671E+03  0.00000000000E+00 0. -1.
<mgrwt>
<rscale>  0 0.33312219E+03</rscale>
<asrwt>0</asrwt>
<pdfrwt beam="1">  1        2 0.13228339E+00 0.33312219E+03</pdfrwt>
<pdfrwt beam="2">  1       -2 0.49638093E-02 0.33312219E+03</pdfrwt>
<totfact> 0.64149619E+03</totfact>
</mgrwt>
</event>
<event>
 7    1  0.5107591E-006  0.2224951E+03  0.7546771E-02  0.1137995E+00
         -1   -1    0    0    0  501 -0.00000000000E+00  0.00000000000E+00  0.59090618497E+03  0.59090618497E+03  0.00000000000E+00 0.  1.
          1   -1    0    0  501    0  0.00000000000E+00 -0.00000000000E+00 -0.99552563219E+02  0.99552563219E+02  0.00000000000E+00 0. -1.
         23    2    1    2    0    0  0.11473044284E+03 -0.14392383481E+03  0.54204144081E+02  0.19994499043E+03  0.56238467436E+02 0.  0.
          5    1    1    2  502    0 -0.12122224369E+03  0.11703973003E+03  0.25156120863E+03  0.30281720964E+03  0.47000000000E+01 0.  1.
         -5    1    1    2    0  502  0.64918008463E+01  0.26884104784E+02  0.18558826905E+03  0.18769654812E+03  0.47000000000E+01 0.  1.
        -11    1    3    3    0    0  0.37013562315E+02 -0.80980547103E+02  0.44290522003E+02  0.99445981033E+02  0.00000000000E+00 0.  1.
         11    1    3    3    0    0  0.77716880527E+02 -0.62943287711E+02  0.99136220778E+01  0.10049900940E+03  0.00000000000E+00 0. -1.
<mgrwt>
<rscale>  0 0.21457253E+03</rscale>
<asrwt>0</asrwt>
<pdfrwt beam="2">  1        1 0.15315779E-01 0.22249513E+03</pdfrwt>
<pdfrwt beam="1">  1       -1 0.90908642E-01 0.22249513E+03</pdfrwt>
<totfact> 0.45187652E+02</totfact>
</mgrwt>
</event>
<event>
 7    1  0.5107591E-006  0.2055371E+03  0.7546771E-02  0.1149599E+00
         -2   -1    0    0    0  501 -0.00000000000E+00  0.00000000000E+00  0.50217010268E+02  0.50217010268E+02  0.00000000000E+00 0. -1.
          2   -1    0    0  501    0  0.00000000000E+00 -0.00000000000E+00 -0.95277174927E+03  0.95277174927E+03  0.00000000000E+00 0.  1.
         23    2    1    2    0    0 -0.14557627211E+03  0.73680265947E+02 -0.65826668139E+03  0.68373624991E+03  0.86942527120E+02 0.  0.
          5    1    1    2  502    0  0.14401467185E+03 -0.63618957040E+02 -0.12948230205E+03  0.20390035298E+03  0.47000000000E+01 0. -1.
         -5    1    1    2    0  502  0.15616002630E+01 -0.10061308907E+02 -0.11480575556E+03  0.11535215664E+03  0.47000000000E+01 0. -1.
        -11    1    3    3    0    0 -0.80918117991E+02 -0.53404712478E+01 -0.33778708746E+03  0.34738505855E+03  0.00000000000E+00 0.  1.
         11    1    3    3    0    0 -0.64658154120E+02  0.79020737195E+02 -0.32047959393E+03  0.33635119136E+03  0.00000000000E+00 0. -1.
<mgrwt>
<rscale>  0 0.20016567E+03</rscale>
<asrwt>0</asrwt>
<pdfrwt beam="2">  1        2 0.14658027E+00 0.20553713E+03</pdfrwt>
<pdfrwt beam="1">  1       -2 0.77256937E-02 0.20553713E+03</pdfrwt>
<totfact> 0.27899904E+03</totfact>
</mgrwt>
</event>
<event>
 7    1  0.5107591E-006  0.1538052E+03  0.7546771E-02  0.1205603E+00
          1   -1    0    0  501    0  0.00000000000E+00  0.00000000000E+00  0.93396972845E+01  0.93396972845E+01  0.00000000000E+00 0. -1.
         -1   -1    0    0    0  501 -0.00000000000E+00 -0.00000000000E+00 -0.27362430167E+04  0.27362430167E+04  0.00000000000E+00 0.  1.
         23    2    1    2    0    0 -0.10039704038E+02  0.85157369191E+02 -0.58219506475E+03  0.59536655234E+03  0.90319793202E+02 0.  0.
          5    1    1    2  502    0 -0.29692935278E+02 -0.92662117141E+02 -0.98780945861E+03  0.99260140786E+03  0.47000000000E+01 0. -1.
         -5    1    1    2    0  502  0.39732639316E+02  0.75047479494E+01 -0.11568987961E+04  0.11576147538E+04  0.47000000000E+01 0.  1.
        -11    1    3    3    0    0 -0.17624113390E+02 -0.15144686923E+02 -0.86381625976E+02  0.89452536135E+02  0.00000000000E+00 0.  1.
         11    1    3    3    0    0  0.75844093528E+01  0.10030205611E+03 -0.49581343877E+03  0.50591401621E+03  0.00000000000E+00 0. -1.
<mgrwt>
<rscale>  0 0.14590010E+03</rscale>
<asrwt>0</asrwt>
<pdfrwt beam="1">  1        1 0.14368760E-02 0.15380521E+03</pdfrwt>
<pdfrwt beam="2">  1       -1 0.42096061E+00 0.15380521E+03</pdfrwt>
<totfact> 0.62690412E+01</totfact>
</mgrwt>
</event>
<event>
 7    1  0.5107591E-006  0.1298933E+03  0.7546771E-02  0.1236841E+00
         -1   -1    0    0    0  501 -0.00000000000E+00  0.00000000000E+00  0.50666880332E+02  0.50666880332E+02  0.00000000000E+00 0.  1.
          1   -1    0    0  501    0  0.00000000000E+00 -0.00000000000E+00 -0.32654825664E+03  0.32654825664E+03  0.00000000000E+00 0. -1.
         23    2    1    2    0    0  0.33716044391E+02  0.10524260254E+02 -0.19933763482E+03  0.22644640928E+03  0.10146404247E+03 0.  0.
          5    1    1    2  502    0 -0.69151271262E+02  0.26295748985E+02 -0.25516364441E+02  0.78399869810E+02  0.47000000000E+01 0. -1.
         -5    1    1    2    0  502  0.35435226871E+02 -0.36820009239E+02 -0.51027377051E+02  0.72368857891E+02  0.47000000000E+01 0. -1.
        -11    1    3    3    0    0  0.17469803953E+02  0.54122603200E+02 -0.78303398586E+02  0.96777437750E+02  0.00000000000E+00 0.  1.
         11    1    3    3    0    0  0.16246240439E+02 -0.43598342946E+02 -0.12103423623E+03  0.12966897153E+03  0.00000000000E+00 0. -1.
<mgrwt>
<rscale>  0 0.12387322E+03</rscale>
<asrwt>0</asrwt>
<pdfrwt beam="2">  1        1 0.50238194E-01 0.12989328E+03</pdfrwt>
<pdfrwt beam="1">  1       -1 0.77949045E-02 0.12989328E+03</pdfrwt>
<totfact> 0.67037339E+03</totfact>
</mgrwt>
</event>
<event>
 7    1  0.5107591E-006  0.1350497E+03  0.7546771E-02  0.1232446E+00
          1   -1    0    0  501    0  0.00000000000E+00  0.00000000000E+00  0.42255699481E+03  0.42255699481E+03  0.00000000000E+00 0. -1.
         -1   -1    0    0    0  501 -0.00000000000E+00 -0.00000000000E+00 -0.35426211021E+02  0.35426211021E+02  0.00000000000E+00 0.  1.
         23    2    1    2    0    0 -0.46258373123E+02  0.21749877208E+02  0.21589349995E+03  0.23989920299E+03  0.91261876116E+02 0.  0.
          5    1    1    2  502    0 -0.32703778163E+02  0.26355786222E+02  0.48200736064E+02  0.64105893103E+02  0.47000000000E+01 0. -1.
         -5    1    1    2    0  502  0.78962151286E+02 -0.48105663430E+02  0.12303654778E+03  0.15397810974E+03  0.47000000000E+01 0. -1.
        -11    1    3    3    0    0 -0.52039524372E+02  0.42178156443E+02  0.89805562913E+02  0.11203636958E+03  0.00000000000E+00 0.  1.
         11    1    3    3    0    0  0.57811512492E+01 -0.20428279235E+02  0.12608793704E+03  0.12786283342E+03  0.00000000000E+00 0. -1.
<mgrwt>
<rscale>  0 0.12669383E+03</rscale>
<asrwt>0</asrwt>
<pdfrwt beam="1">  1        1 0.65008765E-01 0.13504971E+03</pdfrwt>
<pdfrwt beam="2">  1       -1 0.54501866E-02 0.13504971E+03</pdfrwt>
<totfact> 0.83061860E+03</totfact>
</mgrwt>
</event>
<event>
 7    1  0.5107591E-006  0.3265520E+03  0.7546771E-02  0.1072673E+00
          3   -1    0    0  501    0  0.00000000000E+00  0.00000000000E+00  0.48023776467E+03  0.48023776467E+03  0.00000000000E+00 0. -1.
         -3   -1    0    0    0  501 -0.00000000000E+00 -0.00000000000E+00 -0.55512181965E+02  0.55512181965E+02  0.00000000000E+00 0.  1.
         23    2    1    2    0    0 -0.26619107422E+02  0.37729489092E+02  0.26261025932E+03  0.28183325334E+03  0.91289337615E+02 0.  0.
          5    1    1    2  502    0  0.12089316972E+01  0.48925281631E+02  0.15568368596E+03  0.16326250266E+03  0.47000000000E+01 0. -1.
         -5    1    1    2    0  502  0.25410175725E+02 -0.86654770723E+02  0.64316374177E+01  0.90654190633E+02  0.47000000000E+01 0.  1.
        -11    1    3    3    0    0  0.92519514304E+01  0.71175899884E+01 -0.30136893985E+01  0.12055746194E+02  0.00000000000E+00 0.  1.
         11    1    3    3    0    0 -0.35871058853E+02  0.30611899104E+02  0.26562394872E+03  0.26977750715E+03  0.00000000000E+00 0. -1.
<mgrwt>
<rscale>  0 0.32655196E+03</rscale>
<asrwt>0</asrwt>
<pdfrwt beam="1">  1        3 0.73882730E-01 0.32655196E+03</pdfrwt>
<pdfrwt beam="2">  1       -3 0.85403360E-02 0.32655196E+03</pdfrwt>
<totfact> 0.43776147E+02</totfact>
</mgrwt>
</event>
<event>
 7    1  0.5107591E-006  0.1439841E+03  0.7546771E-02  0.1218704E+00
          3   -1    0    0  501    0  0.00000000000E+00  0.00000000000E+00  0.39055292382E+03  0.39055292382E+03  0.00000000000E+00 0. -1.
         -3   -1    0    0    0  501 -0.00000000000E+00 -0.00000000000E+00 -0.42966774553E+02  0.42966774553E+02  0.00000000000E+00 0.  1.
         23    2    1    2    0    0  0.42392832850E+02 -0.57524213100E+02  0.16321200552E+03  0.19958540031E+03  0.89944348918E+02 0.  0.
          5    1    1    2  502    0 -0.73682669576E+02  0.66066871009E+02  0.89341290695E+02  0.13340885827E+03  0.47000000000E+01 0.  1.
         -5    1    1    2    0  502  0.31289836726E+02 -0.85426579096E+01  0.95032853058E+02  0.10052543980E+03  0.47000000000E+01 0.  1.
        -11    1    3    3    0    0  0.20703571508E+01 -0.30449600609E+02  0.13020975723E+01  0.30547667899E+02  0.00000000000E+00 0.  1.
         11    1    3    3    0    0  0.40322475700E+02 -0.27074612491E+02  0.16190990794E+03  0.16903773241E+03  0.00000000000E+00 0. -1.
<mgrwt>
<rscale>  0 0.13607927E+03</rscale>
<asrwt>0</asrwt>
<pdfrwt beam="1">  1        3 0.60085063E-01 0.14398413E+03</pdfrwt>
<pdfrwt beam="2">  1       -3 0.66102733E-02 0.14398413E+03</pdfrwt>
<totfact> 0.93128614E+02</totfact>
</mgrwt>
</event>
<event>
 7    1  0.5107591E-006  0.1774816E+03  0.7546771E-02  0.1177553E+00
          2   -1    0    0  501    0  0.00000000000E+00  0.00000000000E+00  0.83926957803E+02  0.83926957803E+02  0.00000000000E+00 0. -1.
         -2   -1    0    0    0  501 -0.00000000000E+00 -0.00000000000E+00 -0.32650833723E+03  0.32650833723E+03  0.00000000000E+00 0.  1.
         23    2    1    2    0    0  0.12435416286E+03 -0.20303656374E+02 -0.83089784559E+02  0.17181991612E+03  0.82109530481E+02 0.  0.
          5    1    1    2  502    0  0.23872890748E+02  0.53701647277E+01 -0.81913368780E+01  0.26228640485E+02  0.47000000000E+01 0.  1.
         -5    1    1    2    0  502 -0.14822705360E+03  0.14933491647E+02 -0.15130025799E+03  0.21238673843E+03  0.47000000000E+01 0.  1.
        -11    1    3    3    0    0  0.52239695597E+02 -0.39602939924E+01  0.95868716862E+01  0.53259532793E+02  0.00000000000E+00 0. -1.
         11    1    3    3    0    0  0.72114467259E+02 -0.16343362382E+02 -0.92676656245E+02  0.11856038333E+03  0.00000000000E+00 0.  1.
<mgrwt>
<rscale>  0 0.17028337E+03</rscale>
<asrwt>0</asrwt>
<pdfrwt beam="1">  1        2 0.12911840E-01 0.17748163E+03</pdfrwt>
<pdfrwt beam="2">  1       -2 0.50232052E-01 0.17748163E+03</pdfrwt>
<totfact> 0.17452766E+03</totfact>
</mgrwt>
</event>
<event>
 7    1  0.5107591E-006  0.1353422E+03  0.7546771E-02  0.1231310E+00
         -2   -1    0    0    0  501 -0.00000000000E+00  0.00000000000E+00  0.21486443728E+03  0.21486443728E+03  0.00000000000E+00 0.  1.
          2   -1    0    0  501    0  0.00000000000E+00 -0.00000000000E+00 -0.12260250460E+03  0.12260250460E+03  0.00000000000E+00 0. -1.
         23    2    1    2    0    0 -0.51579210528E+02 -0.48800792944E+01 -0.69103351851E+02  0.12685765464E+03  0.92915882230E+02 0.  0.
          5    1    1    2  502    0  0.69922730971E+02 -0.43644561265E+02  0.88378697945E+02  0.12094180536E+03  0.47000000000E+01 0. -1.
         -5    1    1    2    0  502 -0.18343520443E+02  0.48524640559E+02  0.72986586591E+02  0.89667481875E+02  0.47000000000E+01 0. -1.
        -11    1    3    3    0    0 -0.62755467653E+02  0.23935447312E+02 -0.22300220064E+02  0.70770432903E+02  0.00000000000E+00 0.  1.
         11    1    3    3    0    0  0.11176257125E+02 -0.28815526606E+02 -0.46803131787E+02  0.56087221735E+02  0.00000000000E+00 0. -1.
<mgrwt>
<rscale>  0 0.12743661E+03</rscale>
<asrwt>0</asrwt>
<pdfrwt beam="2">  1        2 0.18861924E-01 0.13534222E+03</pdfrwt>
<pdfrwt beam="1">  1       -2 0.33056067E-01 0.13534222E+03</pdfrwt>
<totfact> 0.24567541E+03</totfact>
</mgrwt>
</event>
<event>
 7    1  0.5107591E-006  0.1715761E+03  0.7546771E-02  0.1182714E+00
          1   -1    0    0  501    0  0.00000000000E+00  0.00000000000E+00  0.22490232985E+03  0.22490232985E+03  0.00000000000E+00 0. -1.
         -1   -1    0    0    0  501 -0.00000000000E+00 -0.00000000000E+00 -0.11743162922E+03  0.11743162922E+03  0.00000000000E+00 0.  1.
         23    2    1    2    0    0 -0.11051627604E+03  0.40035993813E+02  0.19469051793E+02  0.14950591997E+03  0.90311948591E+02 0.  0.
          5    1    1    2  502    0  0.23548596274E+02 -0.19483794102E+02  0.98020204522E+02  0.10278231907E+03  0.47000000000E+01 0. -1.
         -5    1    1    2    0  502  0.86967679766E+02 -0.20552199712E+02 -0.10018555692E+02  0.90045720026E+02  0.47000000000E+01 0. -1.
        -11    1    3    3    0    0 -0.20638748047E+02  0.38905774726E+02  0.37484775414E+02  0.57833602825E+02  0.00000000000E+00 0. -1.
         11    1    3    3    0    0 -0.89877527993E+02  0.11302190872E+01 -0.18015723620E+02  0.91672317146E+02  0.00000000000E+00 0.  1.
<mgrwt>
<rscale>  0 0.16541646E+03</rscale>
<asrwt>0</asrwt>
<pdfrwt beam="1">  1        1 0.34600358E-01 0.17157611E+03</pdfrwt>
<pdfrwt beam="2">  1       -1 0.18066405E-01 0.17157611E+03</pdfrwt>
<totfact> 0.29421344E+03</totfact>
</mgrwt>
</event>
<event>
 7    1  0.5107591E-006  0.1310631E+03  0.7546771E-02  0.1239469E+00
         -2   -1    0    0    0  501 -0.00000000000E+00  0.00000000000E+00  0.17061823965E+04  0.17061823965E+04  0.00000000000E+00 0.  1.
          2   -1    0    0  501    0  0.00000000000E+00 -0.00000000000E+00 -0.86591420456E+01  0.86591420456E+01  0.00000000000E+00 0. -1.
         23    2    1    2    0    0 -0.30907424399E+00 -0.39406975774E+02  0.46997532958E+03  0.48031675644E+03  0.90963568758E+02 0.  0.
          5    1    1    2  502    0  0.22607685936E+02 -0.24325674358E+02  0.86883489603E+03  0.86948203688E+03  0.47000000000E+01 0.  1.
         -5    1    1    2    0  502 -0.22298611692E+02  0.63732650132E+02  0.35871302885E+03  0.36504274523E+03  0.47000000000E+01 0.  1.
        -11    1    3    3    0    0  0.45258266673E+02 -0.19331069020E+02  0.22153547101E+03  0.22693603911E+03  0.00000000000E+00 0. -1.
         11    1    3    3    0    0 -0.45567340917E+02 -0.20075906754E+02  0.24843985857E+03  0.25338071734E+03  0.00000000000E+00 0.  1.
<mgrwt>
<rscale>  0 0.12222638E+03</rscale>
<asrwt>0</asrwt>
<pdfrwt beam="2">  1        2 0.13321771E-02 0.13106308E+03</pdfrwt>
<pdfrwt beam="1">  1       -2 0.26248933E+00 0.13106308E+03</pdfrwt>
<totfact> 0.57220096E+02</totfact>
</mgrwt>
</event>
<event>
 7    1  0.5107591E-006  0.1512754E+03  0.7546771E-02  0.1207824E+00
          2   -1    0    0  501    0  0.00000000000E+00  0.00000000000E+00  0.80023710492E+02  0.80023710492E+02  0.00000000000E+00 0. -1.
         -2   -1    0    0    0  501 -0.00000000000E+00 -0.00000000000E+00 -0.24547007771E+03  0.24547007771E+03  0.00000000000E+00 0.  1.
         23    2    1    2    0    0 -0.11666689324E+02 -0.84385648081E+02 -0.46965456427E+02  0.13334285003E+03  0.91200396456E+02 0.  0.
          5    1    1    2  502    0  0.20130917266E+02 -0.27327723979E+02 -0.50478397359E+02  0.61009974002E+02  0.47000000000E+01 0.  1.
         -5    1    1    2    0  502 -0.84642279422E+01  0.11171337206E+03 -0.68002513436E+02  0.13114096418E+03  0.47000000000E+01 0.  1.
        -11    1    3    3    0    0 -0.14780309390E+02 -0.65533282680E+02  0.14713665214E+02  0.68771801114E+02  0.00000000000E+00 0. -1.
         11    1    3    3    0    0  0.31136200668E+01 -0.18852365402E+02 -0.61679121641E+02  0.64571048912E+02  0.00000000000E+00 0.  1.
<mgrwt>
<rscale>  0 0.14417112E+03</rscale>
<asrwt>0</asrwt>
<pdfrwt beam="1">  1        2 0.12311340E-01 0.15127543E+03</pdfrwt>
<pdfrwt beam="2">  1       -2 0.37764627E-01 0.15127543E+03</pdfrwt>
<totfact> 0.31816054E+03</totfact>
</mgrwt>
</event>
<event>
 7    1  0.5107591E-006  0.1288712E+03  0.7546771E-02  0.1242084E+00
         -1   -1    0    0    0  501 -0.00000000000E+00  0.00000000000E+00  0.51372738054E+03  0.51372738054E+03  0.00000000000E+00 0.  1.
          1   -1    0    0  501    0  0.00000000000E+00 -0.00000000000E+00 -0.43778302653E+02  0.43778302653E+02  0.00000000000E+00 0. -1.
         23    2    1    2    0    0 -0.26480855449E+02  0.16799541377E+02  0.36675711963E+02  0.10547295522E+03  0.93786865491E+02 0.  0.
          5    1    1    2  502    0 -0.44981180527E+02  0.13877238828E+02  0.11474112681E+03  0.12411083974E+03  0.47000000000E+01 0.  1.
         -5    1    1    2    0  502  0.71462035976E+02 -0.30676780205E+02  0.31853223912E+03  0.32792188824E+03  0.47000000000E+01 0.  1.
        -11    1    3    3    0    0 -0.19022519805E+02  0.36529387466E+02 -0.19426112761E+02  0.45537086703E+02  0.00000000000E+00 0. -1.
         11    1    3    3    0    0 -0.74583356441E+01 -0.19729846089E+02  0.56101824724E+02  0.59935868515E+02  0.00000000000E+00 0.  1.
<mgrwt>
<rscale>  0 0.12061631E+03</rscale>
<asrwt>0</asrwt>
<pdfrwt beam="2">  1        1 0.67351239E-02 0.12887117E+03</pdfrwt>
<pdfrwt beam="1">  1       -1 0.79034977E-01 0.12887117E+03</pdfrwt>
<totfact> 0.17899919E+03</totfact>
</mgrwt>
</event>
<event>
 7    1  0.5107591E-006  0.1728070E+03  0.7546771E-02  0.1180571E+00
          2   -1    0    0  501    0  0.00000000000E+00  0.00000000000E+00  0.85151284521E+02  0.85151284521E+02  0.00000000000E+00 0. -1.
         -2   -1    0    0    0  501 -0.00000000000E+00 -0.00000000000E+00 -0.31568834318E+03  0.31568834318E+03  0.00000000000E+00 0.  1.
         23    2    1    2    0    0 -0.64302052053E+02 -0.10051116424E+03 -0.81665591936E+02  0.17274976892E+03  0.94530237079E+02 0.  0.
          5    1    1    2  502    0  0.60637057143E+02  0.12940949555E+03 -0.11806487982E+03  0.18543213337E+03  0.47000000000E+01 0. -1.
         -5    1    1    2    0  502  0.36649949099E+01 -0.28898331316E+02 -0.30806586894E+02  0.42657725403E+02  0.47000000000E+01 0. -1.
        -11    1    3    3    0    0 -0.29204171623E+01 -0.78780499974E+02 -0.16331643708E+02  0.80508500165E+02  0.00000000000E+00 0.  1.
         11    1    3    3    0    0 -0.61381634890E+02 -0.21730664263E+02 -0.65333948228E+02  0.92241268759E+02  0.00000000000E+00 0. -1.
<mgrwt>
<rscale>  0 0.16741499E+03</rscale>
<asrwt>0</asrwt>
<pdfrwt beam="1">  1        2 0.13100198E-01 0.17280703E+03</pdfrwt>
<pdfrwt beam="2">  1       -2 0.48567437E-01 0.17280703E+03</pdfrwt>
<totfact> 0.18316824E+03</totfact>
</mgrwt>
</event>
<event>
 7    1  0.5107591E-006  0.1429727E+03  0.7546771E-02  0.1224262E+00
         -2   -1    0    0    0  501 -0.00000000000E+00  0.00000000000E+00  0.94938472363E+02  0.94938472363E+02  0.00000000000E+00 0.  1.
          2   -1    0    0  501    0  0.00000000000E+00 -0.00000000000E+00 -0.29836659808E+03  0.29836659808E+03  0.00000000000E+00 0. -1.
         23    2    1    2    0    0 -0.54425245893E+02  0.43051215306E+02 -0.22562161509E+03  0.24862011080E+03  0.78046984358E+02 0.  0.
          5    1    1    2  502    0  0.56207052353E+01 -0.78108076961E+02 -0.48951963904E+01  0.78603542933E+02  0.47000000000E+01 0. -1.
         -5    1    1    2    0  502  0.48804540658E+02  0.35056861655E+02  0.27088685766E+02  0.66081416710E+02  0.47000000000E+01 0. -1.
        -11    1    3    3    0    0 -0.40526610853E+02  0.28302594171E+00 -0.37558516896E+02  0.55255121775E+02  0.00000000000E+00 0.  1.
         11    1    3    3    0    0 -0.13898635040E+02  0.42768189365E+02 -0.18806309819E+03  0.19336498902E+03  0.00000000000E+00 0. -1.
<mgrwt>
<rscale>  0 0.13217587E+03</rscale>
<asrwt>0</asrwt>
<pdfrwt beam="2">  1        2 0.45902554E-01 0.14297268E+03</pdfrwt>
<pdfrwt beam="1">  1       -2 0.14605919E-01 0.14297268E+03</pdfrwt>
<totfact> 0.38044035E+03</totfact>
</mgrwt>
</event>
<event>
 7    1  0.5107591E-006  0.2267093E+03  0.7546771E-02  0.1131722E+00
         -1   -1    0    0    0  501 -0.00000000000E+00  0.00000000000E+00  0.83221839044E+02  0.83221839044E+02  0.00000000000E+00 0.  1.
          1   -1    0    0  501    0  0.00000000000E+00 -0.00000000000E+00 -0.66084547954E+03  0.66084547954E+03  0.00000000000E+00 0. -1.
         23    2    1    2    0    0 -0.10812320578E+03  0.15518272719E+03 -0.41195011066E+03  0.46327414971E+03  0.95643806274E+02 0.  0.
          5    1    1    2  502    0  0.11927342081E+03 -0.10236964953E+03 -0.16308607625E+03  0.22654988925E+03  0.47000000000E+01 0. -1.
         -5    1    1    2    0  502 -0.11150215030E+02 -0.52813077663E+02 -0.25874535925E+01  0.54243279616E+02  0.47000000000E+01 0. -1.
        -11    1    3    3    0    0 -0.12104016673E+03  0.13119507037E+03 -0.30972371245E+03  0.35747957494E+03  0.00000000000E+00 0. -1.
         11    1    3    3    0    0  0.12916960950E+02  0.23987656819E+02 -0.10222639821E+03  0.10579457477E+03  0.00000000000E+00 0.  1.
<mgrwt>
<rscale>  0 0.22292407E+03</rscale>
<asrwt>0</asrwt>
<pdfrwt beam="2">  1        1 0.10166853E+00 0.22670925E+03</pdfrwt>
<pdfrwt beam="1">  1       -1 0.12803360E-01 0.22670925E+03</pdfrwt>
<totfact> 0.12675550E+03</totfact>
</mgrwt>
</event>
<event>
 7    1  0.5107591E-006  0.1535826E+03  0.7546771E-02  0.1204230E+00
          2   -1    0    0  501    0  0.00000000000E+00  0.00000000000E+00  0.50172109115E+03  0.50172109115E+03  0.00000000000E+00 0. -1.
         -2   -1    0    0    0  501 -0.00000000000E+00 -0.00000000000E+00 -0.44585936793E+02  0.44585936793E+02  0.00000000000E+00 0.  1.
         23    2    1    2    0    0  0.85151215126E+02 -0.26688246035E+02  0.30042566907E+03  0.32688623914E+03  0.92930289974E+02 0.  0.
          5    1    1    2  502    0 -0.11640679390E+03  0.31730348805E+02  0.13268278549E+03  0.17939946563E+03  0.47000000000E+01 0. -1.
         -5    1    1    2    0  502  0.31255578778E+02 -0.50421027708E+01  0.24026699803E+02  0.40021323173E+02  0.47000000000E+01 0. -1.
        -11    1    3    3    0    0  0.29419565586E+02 -0.51948610859E+02  0.92072092272E+02  0.10973349163E+03  0.00000000000E+00 0.  1.
         11    1    3    3    0    0  0.55731649540E+02  0.25260364824E+02  0.20835357679E+03  0.21715274752E+03  0.00000000000E+00 0. -1.
<mgrwt>
<rscale>  0 0.14698292E+03</rscale>
<asrwt>0</asrwt>
<pdfrwt beam="1">  1        2 0.77187856E-01 0.15358262E+03</pdfrwt>
<pdfrwt beam="2">  1       -2 0.68593752E-02 0.15358262E+03</pdfrwt>
<totfact> 0.71972540E+03</totfact>
</mgrwt>
</event>
<event>
 7    1  0.5107591E-006  0.1704409E+03  0.7546771E-02  0.1185128E+00
         -2   -1    0    0    0  501 -0.00000000000E+00  0.00000000000E+00  0.22119657814E+03  0.22119657814E+03  0.00000000000E+00 0. -1.
          2   -1    0    0  501    0  0.00000000000E+00 -0.00000000000E+00 -0.11676552104E+03  0.11676552104E+03  0.00000000000E+00 0.  1.
         23    2    1    2    0    0  0.29499903343E+02  0.11207044394E+03  0.11270464319E+02  0.14372257457E+03  0.84256313542E+02 0.  0.
          5    1    1    2  502    0 -0.25712247871E+02 -0.35458103419E+02  0.10739887583E+03  0.11608189057E+03  0.47000000000E+01 0.  1.
         -5    1    1    2    0  502 -0.37876554711E+01 -0.76612340523E+02 -0.14238283049E+02  0.78157634039E+02  0.47000000000E+01 0.  1.
        -11    1    3    3    0    0  0.10540876506E+02  0.22603463843E+02 -0.33607651955E+02  0.41850936969E+02  0.00000000000E+00 0.  1.
         11    1    3    3    0    0  0.18959026836E+02  0.89466980099E+02  0.44878116274E+02  0.10187163760E+03  0.00000000000E+00 0. -1.
<mgrwt>
<rscale>  0 0.16320247E+03</rscale>
<asrwt>0</asrwt>
<pdfrwt beam="2">  1        2 0.17963926E-01 0.17044089E+03</pdfrwt>
<pdfrwt beam="1">  1       -2 0.34030243E-01 0.17044089E+03</pdfrwt>
<totfact> 0.24899152E+03</totfact>
</mgrwt>
</event>
<event>
 7    1  0.5107591E-006  0.1581328E+03  0.7546771E-02  0.1198452E+00
          2   -1    0    0  501    0  0.00000000000E+00  0.00000000000E+00  0.93600126995E+03  0.93600126995E+03  0.00000000000E+00 0. -1.
         -2   -1    0    0    0  501 -0.00000000000E+00 -0.00000000000E+00 -0.22779354141E+02  0.22779354141E+02  0.00000000000E+00 0.  1.
         23    2    1    2    0    0  0.52058517384E+02 -0.81677537293E+02  0.43269856727E+03  0.45290645986E+03  0.92276226268E+02 0.  0.
          5    1    1    2  502    0 -0.81488074800E+02  0.90916937876E+02  0.42466421458E+03  0.44189136796E+03  0.47000000000E+01 0.  1.
         -5    1    1    2    0  502  0.29429557416E+02 -0.92394005830E+01  0.55859133954E+02  0.63982796273E+02  0.47000000000E+01 0.  1.
        -11    1    3    3    0    0  0.12950512703E+02 -0.17748569811E+02  0.10944975016E+02  0.24546282564E+02  0.00000000000E+00 0.  1.
         11    1    3    3    0    0  0.39108004681E+02 -0.63928967483E+02  0.42175359226E+03  0.42836017730E+03  0.00000000000E+00 0. -1.
<mgrwt>
<rscale>  0 0.15165670E+03</rscale>
<asrwt>0</asrwt>
<pdfrwt beam="1">  1        2 0.14400017E+00 0.15813280E+03</pdfrwt>
<pdfrwt beam="2">  1       -2 0.35045168E-02 0.15813280E+03</pdfrwt>
<totfact> 0.93930439E+03</totfact>
</mgrwt>
</event>
<event>
 7    1  0.5107591E-006  0.1258400E+03  0.7546771E-02  0.1249266E+00
         -2   -1    0    0    0  501 -0.00000000000E+00  0.00000000000E+00  0.32246236812E+02  0.32246236812E+02  0.00000000000E+00 0.  1.
          2   -1    0    0  501    0  0.00000000000E+00 -0.00000000000E+00 -0.36816260270E+03  0.36816260270E+03  0.00000000000E+00 0. -1.
         23    2    1    2    0    0  0.58343522145E+02 -0.10469382208E+02 -0.14933728338E+03  0.17535891673E+03  0.70253476267E+02 0.  0.
          5    1    1    2  502    0 -0.24663510474E+02  0.48860222800E+02 -0.15588302905E+03  0.16527921486E+03  0.47000000000E+01 0. -1.
         -5    1    1    2    0  502 -0.33680011671E+02 -0.38390840593E+02 -0.30696053462E+02  0.59770707924E+02  0.47000000000E+01 0.  1.
        -11    1    3    3    0    0 -0.11944211118E+02  0.13095289614E+02 -0.26332837599E+02  0.31742229369E+02  0.00000000000E+00 0. -1.
         11    1    3    3    0    0  0.70287733263E+02 -0.23564671821E+02 -0.12300444578E+03  0.14361668736E+03  0.00000000000E+00 0.  1.
<mgrwt>
<rscale>  0 0.11633639E+03</rscale>
<asrwt>0</asrwt>
<pdfrwt beam="2">  1        2 0.56640401E-01 0.12584003E+03</pdfrwt>
<pdfrwt beam="1">  1       -2 0.49609595E-02 0.12584003E+03</pdfrwt>
<totfact> 0.16184531E+04</totfact>
</mgrwt>
</event>
<event>
 7    1  0.5107591E-006  0.1303376E+03  0.7546771E-02  0.1238480E+00
         -2   -1    0    0    0  501 -0.00000000000E+00  0.00000000000E+00  0.19796737636E+03  0.19796737636E+03  0.00000000000E+00 0.  1.
          2   -1    0    0  501    0  0.00000000000E+00 -0.00000000000E+00 -0.74563149065E+02  0.74563149065E+02  0.00000000000E+00 0. -1.
         23    2    1    2    0    0 -0.14938610365E+02  0.33828441143E+02  0.16926056364E+02  0.10422874409E+03  0.95966734865E+02 0.  0.
          5    1    1    2  502    0 -0.44054489621E+02  0.21567764930E+02  0.40477006765E+02  0.63768680530E+02  0.47000000000E+01 0. -1.
         -5    1    1    2    0  502  0.58993099986E+02 -0.55396206073E+02  0.66001164170E+02  0.10453310081E+03  0.47000000000E+01 0. -1.
        -11    1    3    3    0    0  0.39846972896E+02  0.69192351267E+01 -0.14989572921E+01  0.40471025891E+02  0.00000000000E+00 0. -1.
         11    1    3    3    0    0 -0.54785583261E+02  0.26909206017E+02  0.18425013656E+02  0.63757718199E+02  0.00000000000E+00 0.  1.
<mgrwt>
<rscale>  0 0.12284240E+03</rscale>
<asrwt>0</asrwt>
<pdfrwt beam="2">  1        2 0.11471254E-01 0.13033760E+03</pdfrwt>
<pdfrwt beam="1">  1       -2 0.30456519E-01 0.13033760E+03</pdfrwt>
<totfact> 0.50957784E+03</totfact>
</mgrwt>
</event>
<event>
 7    1  0.5107591E-006  0.1332562E+03  0.7546771E-02  0.1235463E+00
         -2   -1    0    0    0  501 -0.00000000000E+00  0.00000000000E+00  0.61082118703E+02  0.61082118703E+02  0.00000000000E+00 0.  1.
          2   -1    0    0  501    0  0.00000000000E+00 -0.00000000000E+00 -0.25916646433E+03  0.25916646433E+03  0.00000000000E+00 0. -1.
         23    2    1    2    0    0 -0.66993146549E+01  0.45712790741E+02 -0.14346962499E+03  0.17623474359E+03  0.91326948372E+02 0.  0.
          5    1    1    2  502    0  0.40610233936E+02 -0.45777054545E+02 -0.80404416552E+02  0.10115181671E+03  0.47000000000E+01 0.  1.
         -5    1    1    2    0  502 -0.33910919281E+02  0.64263803197E-01  0.25789695922E+02  0.42862022725E+02  0.47000000000E+01 0.  1.
        -11    1    3    3    0    0 -0.26356932382E+01  0.70971570345E+02 -0.75714108830E+02  0.10381010043E+03  0.00000000000E+00 0.  1.
         11    1    3    3    0    0 -0.40636214167E+01 -0.25258779604E+02 -0.67755516162E+02  0.72424643157E+02  0.00000000000E+00 0. -1.
<mgrwt>
<rscale>  0 0.12474859E+03</rscale>
<asrwt>0</asrwt>
<pdfrwt beam="2">  1        2 0.39871763E-01 0.13325621E+03</pdfrwt>
<pdfrwt beam="1">  1       -2 0.93972492E-02 0.13325621E+03</pdfrwt>
<totfact> 0.88879247E+03</totfact>
</mgrwt>
</event>
<event>
 7    1  0.5107591E-006  0.1643910E+03  0.7546771E-02  0.1190712E+00
         -3   -1    0    0    0  501 -0.00000000000E+00  0.00000000000E+00  0.22332254578E+02  0.22332254578E+02  0.00000000000E+00 0.  1.
          3   -1    0    0  501    0  0.00000000000E+00 -0.00000000000E+00 -0.10449118529E+04  0.10449118529E+04  0.00000000000E+00 0. -1.
         23    2    1    2    0    0  0.72325385530E+02 -0.78538590102E+02 -0.46424609772E+03  0.48521258465E+03  0.92236335204E+02 0.  0.
          5    1    1    2  502    0 -0.33958844892E+02  0.10070580240E+03 -0.26873317261E+03  0.28902330329E+03  0.47000000000E+01 0.  1.
         -5    1    1    2    0  502 -0.38366540638E+02 -0.22167212299E+02 -0.28960032803E+03  0.29300821957E+03  0.47000000000E+01 0.  1.
        -11    1    3    3    0    0  0.93350865687E+02 -0.63613773779E+02 -0.40778503397E+03  0.42314268311E+03  0.00000000000E+00 0. -1.
         11    1    3    3    0    0 -0.21025480157E+02 -0.14924816323E+02 -0.56461063748E+02  0.62069901544E+02  0.00000000000E+00 0.  1.
<mgrwt>
<rscale>  0 0.15822814E+03</rscale>
<asrwt>0</asrwt>
<pdfrwt beam="2">  1        3 0.16075560E+00 0.16439098E+03</pdfrwt>
<pdfrwt beam="1">  1       -3 0.34357330E-02 0.16439098E+03</pdfrwt>
<totfact> 0.28449020E+02</totfact>
</mgrwt>
</event>
<event>
 7    1  0.5107591E-006  0.1283884E+03  0.7546771E-02  0.1250713E+00
          2   -1    0    0  501    0  0.00000000000E+00  0.00000000000E+00  0.19386868202E+03  0.19386868202E+03  0.00000000000E+00 0.  1.
         -2   -1    0    0    0  501 -0.00000000000E+00 -0.00000000000E+00 -0.58269686379E+02  0.58269686379E+02  0.00000000000E+00 0. -1.
         23    2    1    2    0    0 -0.15923232485E+02  0.24618780174E+02  0.49990206599E+02  0.97825580110E+02  0.78811101364E+02 0.  0.
          5    1    1    2  502    0  0.56884706688E+02  0.26126642064E+02  0.37312917867E+02  0.73026126286E+02  0.47000000000E+01 0.  1.
         -5    1    1    2    0  502 -0.40961474203E+02 -0.50745422237E+02  0.48295871171E+02  0.81286662000E+02  0.47000000000E+01 0.  1.
        -11    1    3    3    0    0 -0.10823998444E+02  0.26766627407E+01 -0.20765907967E+02  0.23570031808E+02  0.00000000000E+00 0. -1.
         11    1    3    3    0    0 -0.50992340402E+01  0.21942117433E+02  0.70756114565E+02  0.74255548302E+02  0.00000000000E+00 0.  1.
<mgrwt>
<rscale>  0 0.11549894E+03</rscale>
<asrwt>0</asrwt>
<pdfrwt beam="1">  1        2 0.29825951E-01 0.12838836E+03</pdfrwt>
<pdfrwt beam="2">  1       -2 0.89645672E-02 0.12838836E+03</pdfrwt>
<totfact> 0.13016103E+04</totfact>
</mgrwt>
</event>
<event>
 7    1  0.5107591E-006  0.1384178E+03  0.7546771E-02  0.1227707E+00
          1   -1    0    0  501    0  0.00000000000E+00  0.00000000000E+00  0.60962934075E+03  0.60962934075E+03  0.00000000000E+00 0. -1.
         -1   -1    0    0    0  501 -0.00000000000E+00 -0.00000000000E+00 -0.25330605356E+02  0.25330605356E+02  0.00000000000E+00 0.  1.
         23    2    1    2    0    0 -0.59373871744E+02  0.23453122115E+01  0.30443939637E+03  0.32274089920E+03  0.89149227823E+02 0.  0.
          5    1    1    2  502    0 -0.83884119489E+01 -0.37929755456E+02  0.25873741307E+02  0.46910257867E+02  0.47000000000E+01 0. -1.
         -5    1    1    2    0  502  0.67762283693E+02  0.35584443244E+02  0.25398559772E+03  0.26530878904E+03  0.47000000000E+01 0. -1.
        -11    1    3    3    0    0 -0.14565650577E+02  0.35547336608E+02  0.20644406457E+03  0.20998791182E+03  0.00000000000E+00 0. -1.
         11    1    3    3    0    0 -0.44808221167E+02 -0.33202024396E+02  0.97995331803E+02  0.11275298738E+03  0.00000000000E+00 0.  1.
<mgrwt>
<rscale>  0 0.12983112E+03</rscale>
<asrwt>0</asrwt>
<pdfrwt beam="1">  1        1 0.93789118E-01 0.13841779E+03</pdfrwt>
<pdfrwt beam="2">  1       -1 0.38970167E-02 0.13841779E+03</pdfrwt>
<totfact> 0.84380148E+03</totfact>
</mgrwt>
</event>
<event>
 7    1  0.5107591E-006  0.1296895E+03  0.7546771E-02  0.1242993E+00
         -1   -1    0    0    0  501 -0.00000000000E+00  0.00000000000E+00  0.63267342120E+02  0.63267342120E+02  0.00000000000E+00 0.  1.
          1   -1    0    0  501    0  0.00000000000E+00 -0.00000000000E+00 -0.22202478988E+03  0.22202478988E+03  0.00000000000E+00 0. -1.
         23    2    1    2    0    0 -0.43938375907E+01 -0.34276016635E+02 -0.11293165574E+03  0.14774443575E+03  0.88773353545E+02 0.  0.
          5    1    1    2  502    0 -0.26920830218E+01 -0.40395336843E+02  0.12262489860E+02  0.42561593101E+02  0.47000000000E+01 0. -1.
         -5    1    1    2    0  502  0.70859206125E+01  0.74671353479E+02 -0.58088281879E+02  0.94986103157E+02  0.47000000000E+01 0. -1.
        -11    1    3    3    0    0 -0.23089785115E+02 -0.42962048597E+02 -0.11697538460E+03  0.12673640518E+03  0.00000000000E+00 0. -1.
         11    1    3    3    0    0  0.18695947524E+02  0.86860319616E+01  0.40437288567E+01  0.21008030563E+02  0.00000000000E+00 0.  1.
<mgrwt>
<rscale>  0 0.12006283E+03</rscale>
<asrwt>0</asrwt>
<pdfrwt beam="2">  1        1 0.34157660E-01 0.12968950E+03</pdfrwt>
<pdfrwt beam="1">  1       -1 0.97334371E-02 0.12968950E+03</pdfrwt>
<totfact> 0.77149022E+03</totfact>
</mgrwt>
</event>
<event>
 7    1  0.5107591E-006  0.1420454E+03  0.7546771E-02  0.1221599E+00
          2   -1    0    0  501    0  0.00000000000E+00  0.00000000000E+00  0.24968913554E+03  0.24968913554E+03  0.00000000000E+00 0. -1.
         -2   -1    0    0    0  501 -0.00000000000E+00 -0.00000000000E+00 -0.83669374903E+02  0.83669374903E+02  0.00000000000E+00 0.  1.
         23    2    1    2    0    0 -0.53083263108E+02  0.41664639983E+02  0.15405238325E+03  0.19080989364E+03  0.90124933719E+02 0.  0.
          5    1    1    2  502    0  0.79926105923E+02 -0.64377970878E+02  0.23226102737E+02  0.10532923331E+03  0.47000000000E+01 0. -1.
         -5    1    1    2    0  502 -0.26842842815E+02  0.22713330895E+02 -0.11258725353E+02  0.37219383489E+02  0.47000000000E+01 0. -1.
        -11    1    3    3    0    0 -0.47596763222E+02 -0.15555457024E+02  0.10032736357E+03  0.11212940735E+03  0.00000000000E+00 0.  1.
         11    1    3    3    0    0 -0.54864998863E+01  0.57220097007E+02  0.53725019685E+02  0.78680486289E+02  0.00000000000E+00 0. -1.
<mgrwt>
<rscale>  0 0.13402762E+03</rscale>
<asrwt>0</asrwt>
<pdfrwt beam="1">  1        2 0.38413713E-01 0.14204538E+03</pdfrwt>
<pdfrwt beam="2">  1       -2 0.12872212E-01 0.14204538E+03</pdfrwt>
<totfact> 0.56398439E+03</totfact>
</mgrwt>
</event>
<event>
 7    1  0.5107591E-006  0.1344936E+03  0.7546771E-02  0.1232446E+00
          1   -1    0    0  501    0  0.00000000000E+00  0.00000000000E+00  0.17173497863E+03  0.17173497863E+03  0.00000000000E+00 0. -1.
         -1   -1    0    0    0  501 -0.00000000000E+00 -0.00000000000E+00 -0.85916089886E+02  0.85916089886E+02  0.00000000000E+00 0.  1.
         23    2    1    2    0    0 -0.23448194098E+02 -0.43744224152E+02  0.56363908044E+02  0.11996981454E+03  0.93554750370E+02 0.  0.
          5    1    1    2  502    0 -0.30815026649E+02  0.59632443421E+02  0.42339220617E+02  0.79500275334E+02  0.47000000000E+01 0. -1.
         -5    1    1    2    0  502  0.54263220746E+02 -0.15888219269E+02 -0.12884239922E+02  0.58180978641E+02  0.47000000000E+01 0. -1.
        -11    1    3    3    0    0 -0.13331500352E+02 -0.53526323832E+02  0.77166144888E+02  0.94854679175E+02  0.00000000000E+00 0. -1.
         11    1    3    3    0    0 -0.10116693746E+02  0.97820996798E+01 -0.20802236844E+02  0.25115135361E+02  0.00000000000E+00 0.  1.
<mgrwt>
<rscale>  0 0.12669380E+03</rscale>
<asrwt>0</asrwt>
<pdfrwt beam="1">  1        1 0.26420766E-01 0.13449361E+03</pdfrwt>
<pdfrwt beam="2">  1       -1 0.13217860E-01 0.13449361E+03</pdfrwt>
<totfact> 0.66511633E+03</totfact>
</mgrwt>
</event>
<event>
 7    1  0.5107591E-006  0.1257943E+03  0.7546771E-02  0.1249697E+00
         -2   -1    0    0    0  501 -0.00000000000E+00  0.00000000000E+00  0.80179842323E+02  0.80179842323E+02  0.00000000000E+00 0.  1.
          2   -1    0    0  501    0  0.00000000000E+00 -0.00000000000E+00 -0.15667402665E+03  0.15667402665E+03  0.00000000000E+00 0. -1.
         23    2    1    2    0    0 -0.13517016428E+02 -0.22627875086E+01 -0.61827442727E+02  0.11020747244E+03  0.90195478635E+02 0.  0.
          5    1    1    2  502    0 -0.36182764694E+02 -0.42836930578E+02  0.51686555810E+01  0.56506637510E+02  0.47000000000E+01 0. -1.
         -5    1    1    2    0  502  0.49699781122E+02  0.45099718086E+02 -0.19835397182E+02  0.70139759027E+02  0.47000000000E+01 0. -1.
        -11    1    3    3    0    0 -0.40799490246E+02  0.21494148000E+02 -0.57598665689E+02  0.73784843239E+02  0.00000000000E+00 0. -1.
         11    1    3    3    0    0  0.27282473819E+02 -0.23756935509E+02 -0.42287770376E+01  0.36422629197E+02  0.00000000000E+00 0.  1.
<mgrwt>
<rscale>  0 0.11608630E+03</rscale>
<asrwt>0</asrwt>
<pdfrwt beam="2">  1        2 0.24103696E-01 0.12579426E+03</pdfrwt>
<pdfrwt beam="1">  1       -2 0.12335360E-01 0.12579426E+03</pdfrwt>
<totfact> 0.99173586E+03</totfact>
</mgrwt>
</event>
<event>
 7    1  0.5107591E-006  0.1339917E+03  0.7546771E-02  0.1233891E+00
          1   -1    0    0  501    0  0.00000000000E+00  0.00000000000E+00  0.20353310557E+03  0.20353310557E+03  0.00000000000E+00 0. -1.
         -1   -1    0    0    0  501 -0.00000000000E+00 -0.00000000000E+00 -0.84637308589E+02  0.84637308589E+02  0.00000000000E+00 0.  1.
         23    2    1    2    0    0 -0.35515878864E+02  0.32691848003E+02  0.11371530922E+03  0.15407859988E+03  0.92080990511E+02 0.  0.
          5    1    1    2  502    0 -0.26922765355E+02  0.31427353255E+02  0.14235892151E+02  0.44014366431E+02  0.47000000000E+01 0.  1.
         -5    1    1    2    0  502  0.62438644219E+02 -0.64119201258E+02 -0.90554043887E+01  0.90077447846E+02  0.47000000000E+01 0.  1.
        -11    1    3    3    0    0 -0.62705947122E-01 -0.26177603170E+02  0.69088396873E+01  0.27074026401E+02  0.00000000000E+00 0.  1.
         11    1    3    3    0    0 -0.35453172917E+02  0.58869451173E+02  0.10680646953E+03  0.12700457348E+03  0.00000000000E+00 0. -1.
<mgrwt>
<rscale>  0 0.12575691E+03</rscale>
<asrwt>0</asrwt>
<pdfrwt beam="1">  1        1 0.31312785E-01 0.13399171E+03</pdfrwt>
<pdfrwt beam="2">  1       -1 0.13021125E-01 0.13399171E+03</pdfrwt>
<totfact> 0.55079755E+03</totfact>
</mgrwt>
</event>
<event>
 7    1  0.5107591E-006  0.1341830E+03  0.7546771E-02  0.1233866E+00
          2   -1    0    0  501    0  0.00000000000E+00  0.00000000000E+00  0.47178040791E+03  0.47178040791E+03  0.00000000000E+00 0. -1.
         -2   -1    0    0    0  501 -0.00000000000E+00 -0.00000000000E+00 -0.33968315247E+02  0.33968315247E+02  0.00000000000E+00 0.  1.
         23    2    1    2    0    0  0.35229206769E+02 -0.33759475283E+02  0.28033622869E+03  0.29885812707E+03  0.91361807201E+02 0.  0.
          5    1    1    2  502    0 -0.42657264674E+02  0.71557034257E+02  0.62374235304E+02  0.10417622863E+03  0.47000000000E+01 0.  1.
         -5    1    1    2    0  502  0.74280579051E+01 -0.37797558973E+02  0.95101628665E+02  0.10271436746E+03  0.47000000000E+01 0.  1.
        -11    1    3    3    0    0  0.64644608634E+02 -0.36062999259E+02  0.20441352093E+03  0.21740366345E+03  0.00000000000E+00 0.  1.
         11    1    3    3    0    0 -0.29415401865E+02  0.23035239755E+01  0.75922707763E+02  0.81454463621E+02  0.00000000000E+00 0. -1.
<mgrwt>
<rscale>  0 0.12577282E+03</rscale>
<asrwt>0</asrwt>
<pdfrwt beam="1">  1        2 0.72581597E-01 0.13418298E+03</pdfrwt>
<pdfrwt beam="2">  1       -2 0.52258950E-02 0.13418298E+03</pdfrwt>
<totfact> 0.11533899E+04</totfact>
</mgrwt>
</event>
<event>
 7    1  0.5107591E-006  0.3509076E+03  0.7546771E-02  0.1063348E+00
          2   -1    0    0  501    0  0.00000000000E+00  0.00000000000E+00  0.15038312355E+03  0.15038312355E+03  0.00000000000E+00 0. -1.
         -2   -1    0    0    0  501 -0.00000000000E+00 -0.00000000000E+00 -0.10522286238E+04  0.10522286238E+04  0.00000000000E+00 0.  1.
         23    2    1    2    0    0 -0.20950612147E+03  0.25222376889E+03 -0.14794908006E+03  0.37104940413E+03  0.90989480099E+02 0.  0.
          5    1    1    2  502    0  0.84482629377E+02 -0.22954349748E+02 -0.23066783360E+03  0.24676700812E+03  0.47000000000E+01 0. -1.
         -5    1    1    2    0  502  0.12502349210E+03 -0.22926941914E+03 -0.52322858662E+03  0.58479533512E+03  0.47000000000E+01 0. -1.
        -11    1    3    3    0    0 -0.13268712055E+03  0.95237849253E+02 -0.50567634709E+02  0.17097720775E+03  0.00000000000E+00 0. -1.
         11    1    3    3    0    0 -0.76819000926E+02  0.15698591963E+03 -0.97381445349E+02  0.20007219638E+03  0.00000000000E+00 0.  1.
<mgrwt>
<rscale>  0 0.34821930E+03</rscale>
<asrwt>0</asrwt>
<pdfrwt beam="1">  1        2 0.23135865E-01 0.35090756E+03</pdfrwt>
<pdfrwt beam="2">  1       -2 0.16188133E+00 0.35090756E+03</pdfrwt>
<totfact> 0.60778286E+01</totfact>
</mgrwt>
</event>
<event>
 7    1  0.5107591E-006  0.1412846E+03  0.7546771E-02  0.1222705E+00
          4   -1    0    0  501    0  0.00000000000E+00  0.00000000000E+00  0.34354553216E+03  0.34354553216E+03  0.00000000000E+00 0. -1.
         -4   -1    0    0    0  501 -0.00000000000E+00 -0.00000000000E+00 -0.46614466249E+02  0.46614466249E+02  0.00000000000E+00 0.  1.
         23    2    1    2    0    0 -0.41793067963E+02  0.50879058060E+02  0.12958040334E+03  0.17114499302E+03  0.90355899801E+02 0.  0.
          5    1    1    2  502    0 -0.37113238643E+02 -0.31241559593E+02  0.10720935155E+03  0.11776825798E+03  0.47000000000E+01 0. -1.
         -5    1    1    2    0  502  0.78906306606E+02 -0.19637498468E+02  0.60141311023E+02  0.10124674740E+03  0.47000000000E+01 0. -1.
        -11    1    3    3    0    0 -0.59187998902E+02  0.28613932766E+02  0.12670438564E+03  0.14274444893E+03  0.00000000000E+00 0. -1.
         11    1    3    3    0    0  0.17394930938E+02  0.22265125294E+02  0.28760177022E+01  0.28400544089E+02  0.00000000000E+00 0.  1.
<mgrwt>
<rscale>  0 0.13325476E+03</rscale>
<asrwt>0</asrwt>
<pdfrwt beam="1">  1        4 0.52853157E-01 0.14128457E+03</pdfrwt>
<pdfrwt beam="2">  1       -4 0.71714566E-02 0.14128457E+03</pdfrwt>
<totfact> 0.76432605E+02</totfact>
</mgrwt>
</event>
<event>
 7    1  0.5107591E-006  0.1866568E+03  0.7546771E-02  0.1166624E+00
         -2   -1    0    0    0  501 -0.00000000000E+00  0.00000000000E+00  0.31865243170E+03  0.31865243170E+03  0.00000000000E+00 0.  1.
          2   -1    0    0  501    0  0.00000000000E+00 -0.00000000000E+00 -0.98714884054E+02  0.98714884054E+02  0.00000000000E+00 0. -1.
         23    2    1    2    0    0  0.12910449915E+03  0.50458809553E+02  0.80376774308E+02  0.18430511926E+03  0.91070785523E+02 0.  0.
          5    1    1    2  502    0 -0.57688670924E+01 -0.48598473926E+02  0.34077812915E+01  0.49282800943E+02  0.47000000000E+01 0. -1.
         -5    1    1    2    0  502 -0.12333563206E+03 -0.18603356270E+01  0.13615299205E+03  0.18377939555E+03  0.47000000000E+01 0. -1.
        -11    1    3    3    0    0  0.76404930019E+02  0.60274610515E+02  0.86688420175E+02  0.13032890775E+03  0.00000000000E+00 0.  1.
         11    1    3    3    0    0  0.52699569134E+02 -0.98158009620E+01 -0.63116458669E+01  0.53976211510E+02  0.00000000000E+00 0. -1.
<mgrwt>
<rscale>  0 0.18122380E+03</rscale>
<asrwt>0</asrwt>
<pdfrwt beam="2">  1        2 0.15186905E-01 0.18665685E+03</pdfrwt>
<pdfrwt beam="1">  1       -2 0.49023450E-01 0.18665685E+03</pdfrwt>
<totfact> 0.15130027E+03</totfact>
</mgrwt>
</event>
<event>
 7    1  0.5107591E-006  0.1610576E+03  0.7546771E-02  0.1195192E+00
          2   -1    0    0  501    0  0.00000000000E+00  0.00000000000E+00  0.19739834819E+03  0.19739834819E+03  0.00000000000E+00 0. -1.
         -2   -1    0    0    0  501 -0.00000000000E+00 -0.00000000000E+00 -0.13129761513E+03  0.13129761513E+03  0.00000000000E+00 0.  1.
         23    2    1    2    0    0 -0.40986001312E+02 -0.92924593378E+02  0.93926991117E+02  0.16525227356E+03  0.90394700602E+02 0.  0.
          5    1    1    2  502    0  0.69435717159E+02  0.83769078120E+02  0.16117072956E+02  0.11009281224E+03  0.47000000000E+01 0. -1.
         -5    1    1    2    0  502 -0.28449715846E+02  0.91555152578E+01 -0.43943331017E+02  0.53350877521E+02  0.47000000000E+01 0. -1.
        -11    1    3    3    0    0 -0.23856990241E+02  0.13929159500E+02  0.16358328105E+02  0.32105643835E+02  0.00000000000E+00 0. -1.
         11    1    3    3    0    0 -0.17129011072E+02 -0.10685375288E+03  0.77568663013E+02  0.13314662972E+03  0.00000000000E+00 0.  1.
<mgrwt>
<rscale>  0 0.15438010E+03</rscale>
<asrwt>0</asrwt>
<pdfrwt beam="1">  1        2 0.30368977E-01 0.16105756E+03</pdfrwt>
<pdfrwt beam="2">  1       -2 0.20199633E-01 0.16105756E+03</pdfrwt>
<totfact> 0.34735257E+03</totfact>
</mgrwt>
</event>
<event>
 7    1  0.5107591E-006  0.1298748E+03  0.7546771E-02  0.1241571E+00
          2   -1    0    0  501    0  0.00000000000E+00  0.00000000000E+00  0.42573741614E+03  0.42573741614E+03  0.00000000000E+00 0. -1.
         -2   -1    0    0    0  501 -0.00000000000E+00 -0.00000000000E+00 -0.35069437479E+02  0.35069437479E+02  0.00000000000E+00 0.  1.
         23    2    1    2    0    0 -0.80035055839E+00  0.35060337419E+02  0.25474683952E+03  0.27281209356E+03  0.91107729245E+02 0.  0.
          5    1    1    2  502    0 -0.50830798078E+02  0.18773048828E+02  0.47438740438E+02  0.72171472826E+02  0.47000000000E+01 0.  1.
         -5    1    1    2    0  502  0.51631148637E+02 -0.53833386247E+02  0.88482398706E+02  0.11582328723E+03  0.47000000000E+01 0.  1.
        -11    1    3    3    0    0 -0.24972921664E+02 -0.17968369267E+02  0.40978101947E+02  0.51241720792E+02  0.00000000000E+00 0.  1.
         11    1    3    3    0    0  0.24172571106E+02  0.53028706686E+02  0.21376873757E+03  0.22157037277E+03  0.00000000000E+00 0. -1.
<mgrwt>
<rscale>  0 0.12092975E+03</rscale>
<asrwt>0</asrwt>
<pdfrwt beam="1">  1        2 0.65498060E-01 0.12987484E+03</pdfrwt>
<pdfrwt beam="2">  1       -2 0.53952984E-02 0.12987484E+03</pdfrwt>
<totfact> 0.12252618E+04</totfact>
</mgrwt>
</event>
<event>
 7    1  0.5107591E-006  0.1555015E+03  0.7546771E-02  0.1205356E+00
         -1   -1    0    0    0  501 -0.00000000000E+00  0.00000000000E+00  0.35308507142E+02  0.35308507142E+02  0.00000000000E+00 0.  1.
          1   -1    0    0  501    0  0.00000000000E+00 -0.00000000000E+00 -0.58692107506E+03  0.58692107506E+03  0.00000000000E+00 0. -1.
         23    2    1    2    0    0 -0.64621564034E+02  0.66222957034E+02 -0.32972278641E+03  0.35127611859E+03  0.78207218578E+02 0.  0.
          5    1    1    2  502    0  0.30916097117E+02  0.54900812162E+01 -0.17687047244E+03  0.17969752384E+03  0.47000000000E+01 0.  1.
         -5    1    1    2    0  502  0.33705466916E+02 -0.71713038250E+02 -0.45019309072E+02  0.91255939776E+02  0.47000000000E+01 0.  1.
        -11    1    3    3    0    0  0.21956056849E+01 -0.15059151465E+02 -0.55848904928E+02  0.57885221852E+02  0.00000000000E+00 0. -1.
         11    1    3    3    0    0 -0.66817169719E+02  0.81282108499E+02 -0.27387388148E+03  0.29339089673E+03  0.00000000000E+00 0.  1.
<mgrwt>
<rscale>  0 0.14609436E+03</rscale>
<asrwt>0</asrwt>
<pdfrwt beam="2">  1        1 0.90295548E-01 0.15550146E+03</pdfrwt>
<pdfrwt beam="1">  1       -1 0.54320781E-02 0.15550146E+03</pdfrwt>
<totfact> 0.54745720E+03</totfact>
</mgrwt>
</event>
<event>
 7    1  0.7141987E-006  0.4439416E+03  0.7546771E-02  0.1030203E+00
         -2   -1    0    0    0  501 -0.00000000000E+00  0.00000000000E+00  0.35675882888E+03  0.35675882888E+03  0.00000000000E+00 0.  1.
          2   -1    0    0  501    0  0.00000000000E+00 -0.00000000000E+00 -0.59141153667E+03  0.59141153667E+03  0.00000000000E+00 0. -1.
         23    2    1    2    0    0 -0.45720125697E+02  0.42351995040E+03 -0.25360084536E+03  0.50382459179E+03  0.89812873517E+02 0.  0.
          5    1    1    2  502    0  0.48978493721E+02 -0.40835068660E+03 -0.97112489048E+01  0.41141897677E+03  0.47000000000E+01 0. -1.
         -5    1    1    2    0  502 -0.32583680240E+01 -0.15169263800E+02  0.28659386477E+02  0.32926796985E+02  0.47000000000E+01 0. -1.
        -11    1    3    3    0    0 -0.59964091252E+01  0.65618880295E+02 -0.81235210434E+02  0.10459901428E+03  0.00000000000E+00 0. -1.
         11    1    3    3    0    0 -0.39723716572E+02  0.35790107010E+03 -0.17236563493E+03  0.39922557752E+03  0.00000000000E+00 0.  1.
<mgrwt>
<rscale>  0 0.44177682E+03</rscale>
<asrwt>0</asrwt>
<pdfrwt beam="2">  1        2 0.90986389E-01 0.44394159E+03</pdfrwt>
<pdfrwt beam="1">  1       -2 0.54885975E-01 0.44394159E+03</pdfrwt>
<totfact> 0.16217131E+02</totfact>
</mgrwt>
</event>
<event>
 7    1  0.5107591E-006  0.2303309E+03  0.7546771E-02  0.1126407E+00
          2   -1    0    0  501    0  0.00000000000E+00  0.00000000000E+00  0.19547553716E+03  0.19547553716E+03  0.00000000000E+00 0. -1.
         -2   -1    0    0    0  501 -0.00000000000E+00 -0.00000000000E+00 -0.67850332842E+02  0.67850332842E+02  0.00000000000E+00 0.  1.
         23    2    1    2    0    0  0.13364343286E+02 -0.26594280075E+02  0.77446559771E+02  0.12538459999E+03  0.94007802282E+02 0.  0.
          5    1    1    2  502    0 -0.32712956310E+02  0.71245362197E+02  0.39448866947E+02  0.87888237259E+02  0.47000000000E+01 0. -1.
         -5    1    1    2    0  502  0.19348613025E+02 -0.44651082122E+02  0.10729777602E+02  0.50053032755E+02  0.47000000000E+01 0. -1.
        -11    1    3    3    0    0  0.12067131968E+02  0.12072407811E+02  0.84371899271E+02  0.86081217991E+02  0.00000000000E+00 0. -1.
         11    1    3    3    0    0  0.12972113178E+01 -0.38666687886E+02 -0.69253395004E+01  0.39303381997E+02  0.00000000000E+00 0.  1.
<mgrwt>
<rscale>  0 0.23033089E+03</rscale>
<asrwt>0</asrwt>
<pdfrwt beam="1">  1        2 0.30073159E-01 0.23033089E+03</pdfrwt>
<pdfrwt beam="2">  1       -2 0.10438513E-01 0.23033089E+03</pdfrwt>
<totfact> 0.10607883E+04</totfact>
</mgrwt>
</event>
<event>
 7    1  0.5107591E-006  0.1969610E+03  0.7546771E-02  0.1156752E+00
          2   -1    0    0  501    0  0.00000000000E+00  0.00000000000E+00  0.16285255458E+04  0.16285255458E+04  0.00000000000E+00 0. -1.
         -2   -1    0    0    0  501 -0.00000000000E+00 -0.00000000000E+00 -0.21928041645E+02  0.21928041645E+02  0.00000000000E+00 0.  1.
         23    2    1    2    0    0  0.64103657209E+02 -0.13799522067E+03  0.87379673771E+03  0.89164491902E+03  0.91421895581E+02 0.  0.
          5    1    1    2  502    0 -0.39312696852E+02 -0.11879514600E+00  0.32737796040E+03  0.32976343218E+03  0.47000000000E+01 0.  1.
         -5    1    1    2    0  502 -0.24790960356E+02  0.13811401582E+03  0.40542280601E+03  0.42904523621E+03  0.47000000000E+01 0.  1.
        -11    1    3    3    0    0  0.74013267499E+02 -0.56709521263E+02  0.53710268907E+03  0.54513597586E+03  0.00000000000E+00 0. -1.
         11    1    3    3    0    0 -0.99096102906E+01 -0.81285699406E+02  0.33669404864E+03  0.34650894317E+03  0.00000000000E+00 0.  1.
<mgrwt>
<rscale>  0 0.19190712E+03</rscale>
<asrwt>0</asrwt>
<pdfrwt beam="1">  1        2 0.25054230E+00 0.19696099E+03</pdfrwt>
<pdfrwt beam="2">  1       -2 0.33735461E-02 0.19696099E+03</pdfrwt>
<totfact> 0.41260320E+03</totfact>
</mgrwt>
</event>
<event>
 7    1  0.5107591E-006  0.2194742E+03  0.7546771E-02  0.1137719E+00
         -1   -1    0    0    0  501 -0.00000000000E+00  0.00000000000E+00  0.76627956080E+03  0.76627956080E+03  0.00000000000E+00 0.  1.
          1   -1    0    0  501    0  0.00000000000E+00 -0.00000000000E+00 -0.70446064460E+02  0.70446064460E+02  0.00000000000E+00 0. -1.
         23    2    1    2    0    0 -0.13697361736E+03  0.11732826108E+03  0.15965098564E+03  0.25736337946E+03  0.90662997798E+02 0.  0.
          5    1    1    2  502    0  0.26742622782E+01 -0.14979855676E+02 -0.12825504152E+01  0.15977568350E+02  0.47000000000E+01 0.  1.
         -5    1    1    2    0  502  0.13429935509E+03 -0.10234840540E+03  0.53746506111E+03  0.56338467745E+03  0.47000000000E+01 0.  1.
        -11    1    3    3    0    0 -0.60675349828E+02  0.63533995971E-01  0.35371096754E+02  0.70232589293E+02  0.00000000000E+00 0. -1.
         11    1    3    3    0    0 -0.76298267536E+02  0.11726472708E+03  0.12427988889E+03  0.18713079017E+03  0.00000000000E+00 0.  1.
<mgrwt>
<rscale>  0 0.21493156E+03</rscale>
<asrwt>0</asrwt>
<pdfrwt beam="2">  1        1 0.10837857E-01 0.21947421E+03</pdfrwt>
<pdfrwt beam="1">  1       -1 0.11788916E+00 0.21947421E+03</pdfrwt>
<totfact> 0.39787689E+02</totfact>
</mgrwt>
</event>
<event>
 7    1  0.5107591E-006  0.2310386E+03  0.7546771E-02  0.1125911E+00
         -2   -1    0    0    0  501 -0.00000000000E+00  0.00000000000E+00  0.64764241929E+02  0.64764241929E+02  0.00000000000E+00 0.  1.
          2   -1    0    0  501    0  0.00000000000E+00 -0.00000000000E+00 -0.20605059024E+03  0.20605059024E+03  0.00000000000E+00 0. -1.
         23    2    1    2    0    0  0.10018184544E+02 -0.31836954876E+02 -0.86583018308E+02  0.13034572454E+03  0.91539243660E+02 0.  0.
          5    1    1    2  502    0  0.44226887043E+02 -0.18400479293E+02 -0.44747504946E+02  0.65719284648E+02  0.47000000000E+01 0. -1.
         -5    1    1    2    0  502 -0.54245071587E+02  0.50237434169E+02 -0.99558250623E+01  0.74749822983E+02  0.47000000000E+01 0. -1.
        -11    1    3    3    0    0  0.14273488607E+02  0.25913994436E+02 -0.45494928988E+01  0.29932682311E+02  0.00000000000E+00 0.  1.
         11    1    3    3    0    0 -0.42553040637E+01 -0.57750949312E+02 -0.82033525409E+02  0.10041304223E+03  0.00000000000E+00 0. -1.
<mgrwt>
<rscale>  0 0.23103861E+03</rscale>
<asrwt>0</asrwt>
<pdfrwt beam="2">  1        2 0.31700091E-01 0.23103861E+03</pdfrwt>
<pdfrwt beam="1">  1       -2 0.99637295E-02 0.23103861E+03</pdfrwt>
<totfact> 0.10785050E+04</totfact>
</mgrwt>
</event>
<event>
 7    1  0.5107591E-006  0.1398945E+03  0.7546771E-02  0.1224367E+00
         -2   -1    0    0    0  501 -0.00000000000E+00  0.00000000000E+00  0.45913629196E+02  0.45913629196E+02  0.00000000000E+00 0.  1.
          2   -1    0    0  501    0  0.00000000000E+00 -0.00000000000E+00 -0.36661978060E+03  0.36661978060E+03  0.00000000000E+00 0. -1.
         23    2    1    2    0    0 -0.33153044314E+02 -0.53353254508E+02 -0.19479971742E+03  0.22432364846E+03  0.91806727629E+02 0.  0.
          5    1    1    2  502    0  0.66678517843E+02  0.94804594525E+01 -0.22985645118E+02  0.71318537104E+02  0.47000000000E+01 0.  1.
         -5    1    1    2    0  502 -0.33525473530E+02  0.43872795055E+02 -0.10292078887E+03  0.11689122423E+03  0.47000000000E+01 0.  1.
        -11    1    3    3    0    0  0.14853398346E+02 -0.57903854961E+02 -0.80500673206E+02  0.10026882989E+03  0.00000000000E+00 0.  1.
         11    1    3    3    0    0 -0.48006442660E+02  0.45506004530E+01 -0.11429904421E+03  0.12405481857E+03  0.00000000000E+00 0. -1.
<mgrwt>
<rscale>  0 0.13210373E+03</rscale>
<asrwt>0</asrwt>
<pdfrwt beam="2">  1        2 0.56403042E-01 0.13989455E+03</pdfrwt>
<pdfrwt beam="1">  1       -2 0.70636354E-02 0.13989455E+03</pdfrwt>
<totfact> 0.95992977E+03</totfact>
</mgrwt>
</event>
<event>
 7    1  0.5107591E-006  0.1269593E+03  0.7546771E-02  0.1240697E+00
          2   -1    0    0  501    0  0.00000000000E+00  0.00000000000E+00  0.21515161523E+03  0.21515161523E+03  0.00000000000E+00 0. -1.
         -2   -1    0    0    0  501 -0.00000000000E+00 -0.00000000000E+00 -0.63554831772E+02  0.63554831772E+02  0.00000000000E+00 0.  1.
         23    2    1    2    0    0  0.60775137381E+01  0.21363862451E+02  0.78561212303E+02  0.13223846673E+03  0.10402786748E+03 0.  0.
          5    1    1    2  502    0  0.38712716259E+02 -0.57297623995E+02  0.41592850055E+02  0.80831598347E+02  0.47000000000E+01 0. -1.
         -5    1    1    2    0  502 -0.44790229997E+02  0.35933761544E+02  0.31442721102E+02  0.65636381925E+02  0.47000000000E+01 0. -1.
        -11    1    3    3    0    0  0.21566132286E+02 -0.13136620644E+02 -0.16341375178E+02  0.30078387696E+02  0.00000000000E+00 0.  1.
         11    1    3    3    0    0 -0.15488618548E+02  0.34500483095E+02  0.94902587481E+02  0.10216007904E+03  0.00000000000E+00 0. -1.
<mgrwt>
<rscale>  0 0.12146636E+03</rscale>
<asrwt>0</asrwt>
<pdfrwt beam="1">  1        2 0.33100248E-01 0.12695934E+03</pdfrwt>
<pdfrwt beam="2">  1       -2 0.97776665E-02 0.12695934E+03</pdfrwt>
<totfact> 0.10150971E+04</totfact>
</mgrwt>
</event>
<event>
 7    1  0.5107591E-006  0.1430441E+03  0.7546771E-02  0.1217243E+00
          1   -1    0    0  501    0  0.00000000000E+00  0.00000000000E+00  0.62299665709E+03  0.62299665709E+03  0.00000000000E+00 0. -1.
         -1   -1    0    0    0  501 -0.00000000000E+00 -0.00000000000E+00 -0.35498507831E+02  0.35498507831E+02  0.00000000000E+00 0.  1.
         23    2    1    2    0    0  0.34670967001E+01  0.78872994763E+02  0.42579081468E+03  0.44259963508E+03  0.91452988188E+02 0.  0.
          5    1    1    2  502    0  0.31510473046E+02  0.16545140394E+02  0.71153283304E+02  0.79696494949E+02  0.47000000000E+01 0. -1.
         -5    1    1    2    0  502 -0.34977569747E+02 -0.95418135157E+02  0.90554051279E+02  0.13619903489E+03  0.47000000000E+01 0.  1.
        -11    1    3    3    0    0 -0.12949734322E+02 -0.16294229994E+02  0.42401127322E+02  0.47234025324E+02  0.00000000000E+00 0.  1.
         11    1    3    3    0    0  0.16416831023E+02  0.95167224757E+02  0.38338968736E+03  0.39536560976E+03  0.00000000000E+00 0. -1.
<mgrwt>
<rscale>  0 0.13713049E+03</rscale>
<asrwt>0</asrwt>
<pdfrwt beam="1">  1        1 0.95845632E-01 0.14304411E+03</pdfrwt>
<pdfrwt beam="2">  1       -1 0.54613094E-02 0.14304411E+03</pdfrwt>
<totfact> 0.49848672E+03</totfact>
</mgrwt>
</event>
<event>
 6    1  0.5107591E-006  0.2426798E+03  0.7546771E-02  0.1177491E+00
         -2   -1    0    0    0  501 -0.00000000000E+00  0.00000000000E+00  0.54077916467E+03  0.54077916467E+03  0.00000000000E+00 0.  1.
          2   -1    0    0  501    0  0.00000000000E+00 -0.00000000000E+00 -0.43336676256E+02  0.43336676256E+02  0.00000000000E+00 0. -1.
          5    1    1    2  502    0  0.51190377208E+02 -0.47688429976E+02  0.92011770556E+01  0.70720525532E+02  0.47000000000E+01 0. -1.
         -5    1    1    2    0  502 -0.34886777966E+02 -0.35430906239E+01  0.42684116644E+03  0.42830492891E+03  0.47000000000E+01 0.  1.
        -11    1    1    2    0    0  0.15975923633E+01  0.33445678922E+02  0.31590378561E+02  0.46033876195E+02  0.00000000000E+00 0. -1.
         11    1    1    2    0    0 -0.17901191605E+02  0.17785841678E+02  0.29809766359E+02  0.39056510283E+02  0.00000000000E+00 0.  1.
<mgrwt>
<rscale>  0 0.17034233E+03</rscale>
<asrwt>0</asrwt>
<pdfrwt beam="2">  1        2 0.66671813E-02 0.24267979E+03</pdfrwt>
<pdfrwt beam="1">  1       -2 0.83196790E-01 0.24267979E+03</pdfrwt>
<totfact> 0.13961825E+03</totfact>
</mgrwt>
</event>
<event>
 7    1  0.5107591E-006  0.1361418E+03  0.7546771E-02  0.1230359E+00
          1   -1    0    0  501    0  0.00000000000E+00  0.00000000000E+00  0.45780549884E+02  0.45780549884E+02  0.00000000000E+00 0. -1.
         -1   -1    0    0    0  501 -0.00000000000E+00 -0.00000000000E+00 -0.32187535397E+03  0.32187535397E+03  0.00000000000E+00 0.  1.
         23    2    1    2    0    0  0.24716194530E+02 -0.47940760219E+02 -0.11759565733E+03  0.15871438075E+03  0.91936441468E+02 0.  0.
          5    1    1    2  502    0 -0.40841873567E+02  0.72680180888E+02 -0.52104871819E+02  0.98424971413E+02  0.47000000000E+01 0. -1.
         -5    1    1    2    0  502  0.16125679036E+02 -0.24739420669E+02 -0.10639427494E+03  0.11051655170E+03  0.47000000000E+01 0. -1.
        -11    1    3    3    0    0  0.38095440696E+00 -0.71843900294E+02 -0.71403142290E+02  0.10129215105E+03  0.00000000000E+00 0. -1.
         11    1    3    3    0    0  0.24335240124E+02  0.23903140074E+02 -0.46192515042E+02  0.57422229696E+02  0.00000000000E+00 0.  1.
<mgrwt>
<rscale>  0 0.12806282E+03</rscale>
<asrwt>0</asrwt>
<pdfrwt beam="1">  1        1 0.70431616E-02 0.13614177E+03</pdfrwt>
<pdfrwt beam="2">  1       -1 0.49519285E-01 0.13614177E+03</pdfrwt>
<totfact> 0.41492186E+03</totfact>
</mgrwt>
</event>
<event>
 7    1  0.5107591E-006  0.2030472E+03  0.7546771E-02  0.1151433E+00
         -2   -1    0    0    0  501 -0.00000000000E+00  0.00000000000E+00  0.15860038184E+03  0.15860038184E+03  0.00000000000E+00 0.  1.
          2   -1    0    0  501    0  0.00000000000E+00 -0.00000000000E+00 -0.27055381027E+03  0.27055381027E+03  0.00000000000E+00 0. -1.
         23    2    1    2    0    0  0.12290118607E+03 -0.10246095474E+03 -0.13049122764E+03  0.22526251638E+03  0.90068263069E+02 0.  0.
          5    1    1    2  502    0  0.56803715217E+01 -0.47557616376E+01  0.34548048894E+02  0.35644656987E+02  0.47000000000E+01 0.  1.
         -5    1    1    2    0  502 -0.12858155759E+03  0.10721671638E+03 -0.16010249686E+02  0.16824701875E+03  0.47000000000E+01 0.  1.
        -11    1    3    3    0    0  0.89829526118E+02 -0.10922723278E+03 -0.12908657656E+03  0.19147656878E+03  0.00000000000E+00 0.  1.
         11    1    3    3    0    0  0.33071659949E+02  0.67662780461E+01 -0.14046510767E+01  0.33785947597E+02  0.00000000000E+00 0. -1.
<mgrwt>
<rscale>  0 0.19800495E+03</rscale>
<asrwt>0</asrwt>
<pdfrwt beam="2">  1        2 0.41623663E-01 0.20304720E+03</pdfrwt>
<pdfrwt beam="1">  1       -2 0.24400059E-01 0.20304720E+03</pdfrwt>
<totfact> 0.17989402E+03</totfact>
</mgrwt>
</event>
<event>
 7    1  0.5107591E-006  0.1598110E+03  0.7546771E-02  0.1196541E+00
          1   -1    0    0  501    0  0.00000000000E+00  0.00000000000E+00  0.52033910683E+03  0.52033910683E+03  0.00000000000E+00 0. -1.
         -1   -1    0    0    0  501 -0.00000000000E+00 -0.00000000000E+00 -0.49201239727E+02  0.49201239727E+02  0.00000000000E+00 0.  1.
         23    2    1    2    0    0  0.39050566903E+02 -0.91592316562E+02  0.32898989094E+03  0.35565813741E+03  0.91346938325E+02 0.  0.
          5    1    1    2  502    0  0.18019765298E+02  0.43045019628E+02 -0.65033338308E+01  0.47349435129E+02  0.47000000000E+01 0. -1.
         -5    1    1    2    0  502 -0.57070332201E+02  0.48547296934E+02  0.14865130999E+03  0.16653277401E+03  0.47000000000E+01 0. -1.
        -11    1    3    3    0    0 -0.23565077831E+01 -0.58494959968E+02  0.27032483774E+03  0.27659127132E+03  0.00000000000E+00 0. -1.
         11    1    3    3    0    0  0.41407074686E+02 -0.33097356594E+02  0.58665053200E+02  0.79066866098E+02  0.00000000000E+00 0.  1.
<mgrwt>
<rscale>  0 0.15324549E+03</rscale>
<asrwt>0</asrwt>
<pdfrwt beam="1">  1        1 0.80052167E-01 0.15981099E+03</pdfrwt>
<pdfrwt beam="2">  1       -1 0.75694218E-02 0.15981099E+03</pdfrwt>
<totfact> 0.39166831E+03</totfact>
</mgrwt>
</event>
<event>
 7    1  0.5107591E-006  0.2310031E+03  0.7546771E-02  0.1125936E+00
         -2   -1    0    0    0  501 -0.00000000000E+00  0.00000000000E+00  0.50136300627E+02  0.50136300627E+02  0.00000000000E+00 0. -1.
          2   -1    0    0  501    0  0.00000000000E+00 -0.00000000000E+00 -0.26608671708E+03  0.26608671708E+03  0.00000000000E+00 0.  1.
         23    2    1    2    0    0 -0.23151379103E+02  0.19456164970E+02 -0.12718269828E+03  0.15995526991E+03  0.92172235093E+02 0.  0.
          5    1    1    2  502    0 -0.41382663910E+02  0.21950478378E+02 -0.54877391738E+02  0.72304678253E+02  0.47000000000E+01 0.  1.
         -5    1    1    2    0  502  0.64534043013E+02 -0.41406643348E+02 -0.33890326439E+02  0.83963069543E+02  0.47000000000E+01 0.  1.
        -11    1    3    3    0    0  0.83442642794E+00 -0.29347768151E+02 -0.88440052698E+02  0.93186000473E+02  0.00000000000E+00 0.  1.
         11    1    3    3    0    0 -0.23985805531E+02  0.48803933121E+02 -0.38742645580E+02  0.66769269440E+02  0.00000000000E+00 0. -1.
<mgrwt>
<rscale>  0 0.23100306E+03</rscale>
<asrwt>0</asrwt>
<pdfrwt beam="2">  1        2 0.40936418E-01 0.23100306E+03</pdfrwt>
<pdfrwt beam="1">  1       -2 0.77132770E-02 0.23100306E+03</pdfrwt>
<totfact> 0.12223685E+04</totfact>
</mgrwt>
</event>
<event>
 7    1  0.5107591E-006  0.1404661E+03  0.7546771E-02  0.1224606E+00
          2   -1    0    0  501    0  0.00000000000E+00  0.00000000000E+00  0.12458122445E+03  0.12458122445E+03  0.00000000000E+00 0. -1.
         -2   -1    0    0    0  501 -0.00000000000E+00 -0.00000000000E+00 -0.13159049765E+03  0.13159049765E+03  0.00000000000E+00 0.  1.
         23    2    1    2    0    0 -0.38870023697E+02 -0.50958729163E+02  0.24868363104E+02  0.11213382057E+03  0.88588302907E+02 0.  0.
          5    1    1    2  502    0 -0.11313645239E+02 -0.14152341395E+02 -0.55340026268E+02  0.58419995232E+02  0.47000000000E+01 0. -1.
         -5    1    1    2    0  502  0.50183668936E+02  0.65111070558E+02  0.23462389959E+02  0.85617906303E+02  0.47000000000E+01 0. -1.
        -11    1    3    3    0    0 -0.65006284246E+02 -0.49798182927E+02  0.26088116965E+02  0.85943387535E+02  0.00000000000E+00 0. -1.
         11    1    3    3    0    0  0.26136260549E+02 -0.11605462352E+01 -0.12197538608E+01  0.26190433034E+02  0.00000000000E+00 0.  1.
<mgrwt>
<rscale>  0 0.13193953E+03</rscale>
<asrwt>0</asrwt>
<pdfrwt beam="1">  1        2 0.19166342E-01 0.14046613E+03</pdfrwt>
<pdfrwt beam="2">  1       -2 0.20244692E-01 0.14046613E+03</pdfrwt>
<totfact> 0.57247587E+03</totfact>
</mgrwt>
</event>
<event>
 7    1  0.5107591E-006  0.3801986E+03  0.7546771E-02  0.1051770E+00
          1   -1    0    0  501    0  0.00000000000E+00  0.00000000000E+00  0.65724675915E+03  0.65724675915E+03  0.00000000000E+00 0. -1.
         -1   -1    0    0    0  501 -0.00000000000E+00 -0.00000000000E+00 -0.21445655539E+03  0.21445655539E+03  0.00000000000E+00 0.  1.
         23    2    1    2    0    0  0.35246546211E+03 -0.68492708779E+02  0.22834492624E+03  0.43519701607E+03  0.91279156009E+02 0.  0.
          5    1    1    2  502    0 -0.48211263876E+02  0.46996272844E+02  0.75465555571E+01  0.67911826117E+02  0.47000000000E+01 0. -1.
         -5    1    1    2    0  502 -0.30425419824E+03  0.21496435935E+02  0.20689872196E+03  0.36859447236E+03  0.47000000000E+01 0. -1.
        -11    1    3    3    0    0  0.20598814433E+03 -0.91743822759E+01  0.89286200697E+02  0.22469381507E+03  0.00000000000E+00 0. -1.
         11    1    3    3    0    0  0.14647731778E+03 -0.59318326503E+02  0.13905872554E+03  0.21050320100E+03  0.00000000000E+00 0.  1.
<mgrwt>
<rscale>  0 0.37774517E+03</rscale>
<asrwt>0</asrwt>
<pdfrwt beam="1">  1        1 0.10111489E+00 0.38019859E+03</pdfrwt>
<pdfrwt beam="2">  1       -1 0.32993316E-01 0.38019859E+03</pdfrwt>
<totfact> 0.26735216E+02</totfact>
</mgrwt>
</event>
<event>
 7    1  0.5107591E-006  0.2616074E+03  0.7546771E-02  0.1108384E+00
         -2   -1    0    0    0  501 -0.00000000000E+00  0.00000000000E+00  0.88121522080E+02  0.88121522080E+02  0.00000000000E+00 0. -1.
          2   -1    0    0  501    0  0.00000000000E+00 -0.00000000000E+00 -0.11516753794E+04  0.11516753794E+04  0.00000000000E+00 0.  1.
         23    2    1    2    0    0 -0.20948982205E+03 -0.94487596257E+02 -0.89514955637E+03  0.92867242717E+03  0.91246135885E+02 0.  0.
          5    1    1    2  502    0  0.15514498817E+03  0.60759369308E+02 -0.45965722131E+02  0.17290635016E+03  0.47000000000E+01 0. -1.
         -5    1    1    2    0  502  0.54344833881E+02  0.33728226949E+02 -0.12243857880E+03  0.13821812414E+03  0.47000000000E+01 0. -1.
        -11    1    3    3    0    0 -0.26815702923E+02  0.16802898823E+02 -0.83067656176E+02  0.88891252858E+02  0.00000000000E+00 0. -1.
         11    1    3    3    0    0 -0.18267411913E+03 -0.11129049508E+03 -0.81208190020E+03  0.83978117431E+03  0.00000000000E+00 0.  1.
<mgrwt>
<rscale>  0 0.25794551E+03</rscale>
<asrwt>0</asrwt>
<pdfrwt beam="2">  1        2 0.17718082E+00 0.26160740E+03</pdfrwt>
<pdfrwt beam="1">  1       -2 0.13557158E-01 0.26160740E+03</pdfrwt>
<totfact> 0.86510421E+02</totfact>
</mgrwt>
</event>
<event>
 7    1  0.5107591E-006  0.1364713E+03  0.7546771E-02  0.1229379E+00
         -3   -1    0    0    0  501 -0.00000000000E+00  0.00000000000E+00  0.82316836635E+02  0.82316836635E+02  0.00000000000E+00 0.  1.
          3   -1    0    0  501    0  0.00000000000E+00 -0.00000000000E+00 -0.21731690710E+03  0.21731690710E+03  0.00000000000E+00 0. -1.
         23    2    1    2    0    0 -0.26655228650E+02  0.47810659648E+02 -0.12141722034E+03  0.16248820919E+03  0.93080160840E+02 0.  0.
          5    1    1    2  502    0 -0.48021122554E+02 -0.45631613704E+01  0.50758354344E+01  0.48730942515E+02  0.47000000000E+01 0. -1.
         -5    1    1    2    0  502  0.74676351205E+02 -0.43247498278E+02 -0.18658685565E+02  0.88414592028E+02  0.47000000000E+01 0. -1.
        -11    1    3    3    0    0  0.11978415919E+02 -0.17428386464E+02 -0.22795025140E+01  0.21270336959E+02  0.00000000000E+00 0.  1.
         11    1    3    3    0    0 -0.38633644569E+02  0.65239046112E+02 -0.11913771782E+03  0.14121787223E+03  0.00000000000E+00 0. -1.
<mgrwt>
<rscale>  0 0.12871214E+03</rscale>
<asrwt>0</asrwt>
<pdfrwt beam="2">  1        3 0.33433370E-01 0.13647126E+03</pdfrwt>
<pdfrwt beam="1">  1       -3 0.12664129E-01 0.13647126E+03</pdfrwt>
<totfact> 0.10026336E+03</totfact>
</mgrwt>
</event>
<event>
 7    1  0.5107591E-006  0.1712911E+03  0.7546771E-02  0.1183825E+00
          2   -1    0    0  501    0  0.00000000000E+00  0.00000000000E+00  0.11808922189E+04  0.11808922189E+04  0.00000000000E+00 0. -1.
         -2   -1    0    0    0  501 -0.00000000000E+00 -0.00000000000E+00 -0.21230433640E+02  0.21230433640E+02  0.00000000000E+00 0.  1.
         23    2    1    2    0    0  0.10060034571E+02  0.11667488820E+03  0.52016675405E+03  0.54008449188E+03  0.86044015016E+02 0.  0.
          5    1    1    2  502    0  0.24985651225E+02 -0.11172575496E+03  0.30794767114E+03  0.32857386574E+03  0.47000000000E+01 0. -1.
         -5    1    1    2    0  502 -0.35045685795E+02 -0.49491332404E+01  0.33154736003E+03  0.33346429487E+03  0.47000000000E+01 0. -1.
        -11    1    3    3    0    0 -0.34288986294E+02  0.22203786303E+02  0.15579195164E+03  0.16105860704E+03  0.00000000000E+00 0.  1.
         11    1    3    3    0    0  0.44349020865E+02  0.94471101899E+02  0.36437480241E+03  0.37902588484E+03  0.00000000000E+00 0. -1.
<mgrwt>
<rscale>  0 0.16439255E+03</rscale>
<asrwt>0</asrwt>
<pdfrwt beam="1">  1        2 0.18167567E+00 0.17129107E+03</pdfrwt>
<pdfrwt beam="2">  1       -2 0.32662215E-02 0.17129107E+03</pdfrwt>
<totfact> 0.75090152E+03</totfact>
</mgrwt>
</event>
<event>
 7    1  0.5107591E-006  0.1253650E+03  0.7546771E-02  0.1250025E+00
          1   -1    0    0  501    0  0.00000000000E+00  0.00000000000E+00  0.83669635467E+02  0.83669635467E+02  0.00000000000E+00 0. -1.
         -1   -1    0    0    0  501 -0.00000000000E+00 -0.00000000000E+00 -0.14568651871E+03  0.14568651871E+03  0.00000000000E+00 0.  1.
         23    2    1    2    0    0 -0.71426341483E+01  0.63438143319E+01 -0.51968020798E+01  0.91715645733E+02  0.91068609946E+02 0.  0.
          5    1    1    2  502    0 -0.26305362662E+02  0.51633403351E+02 -0.23279324965E+02  0.62625852626E+02  0.47000000000E+01 0. -1.
         -5    1    1    2    0  502  0.33447996810E+02 -0.57977217683E+02 -0.33540756195E+02  0.75014655814E+02  0.47000000000E+01 0. -1.
        -11    1    3    3    0    0  0.23196945689E+02  0.33536318081E+02  0.18286985731E+02  0.44690007461E+02  0.00000000000E+00 0. -1.
         11    1    3    3    0    0 -0.30339579837E+02 -0.27192503749E+02 -0.23483787811E+02  0.47025638271E+02  0.00000000000E+00 0.  1.
<mgrwt>
<rscale>  0 0.11589603E+03</rscale>
<asrwt>0</asrwt>
<pdfrwt beam="1">  1        1 0.12872252E-01 0.12536502E+03</pdfrwt>
<pdfrwt beam="2">  1       -1 0.22413311E-01 0.12536502E+03</pdfrwt>
<totfact> 0.71787709E+03</totfact>
</mgrwt>
</event>
<event>
 7    1  0.5107591E-006  0.1597579E+03  0.7546771E-02  0.1196483E+00
          3   -1    0    0  501    0  0.00000000000E+00  0.00000000000E+00  0.25826909371E+03  0.25826909371E+03  0.00000000000E+00 0. -1.
         -3   -1    0    0    0  501 -0.00000000000E+00 -0.00000000000E+00 -0.88332944504E+02  0.88332944504E+02  0.00000000000E+00 0.  1.
         23    2    1    2    0    0 -0.74468176632E+02 -0.65971152226E+02  0.11498362522E+03  0.17765718576E+03  0.91886556841E+02 0.  0.
          5    1    1    2  502    0  0.19136924629E+02 -0.25684224616E+02  0.52588334449E+02  0.61753738336E+02  0.47000000000E+01 0.  1.
         -5    1    1    2    0  502  0.55331252002E+02  0.91655376843E+02  0.23641895374E+01  0.10719111411E+03  0.47000000000E+01 0.  1.
        -11    1    3    3    0    0 -0.57956305322E+02 -0.34399605374E+02  0.12379774522E+03  0.14095441780E+03  0.00000000000E+00 0. -1.
         11    1    3    3    0    0 -0.16511871309E+02 -0.31571546853E+02 -0.88141199992E+01  0.36702767963E+02  0.00000000000E+00 0.  1.
<mgrwt>
<rscale>  0 0.15329364E+03</rscale>
<asrwt>0</asrwt>
<pdfrwt beam="1">  1        3 0.39733706E-01 0.15975789E+03</pdfrwt>
<pdfrwt beam="2">  1       -3 0.13589684E-01 0.15975789E+03</pdfrwt>
<totfact> 0.65583582E+02</totfact>
</mgrwt>
</event>
<event>
 7    1  0.5107591E-006  0.1984246E+03  0.7546771E-02  0.1155509E+00
          1   -1    0    0  501    0  0.00000000000E+00  0.00000000000E+00  0.55930541274E+03  0.55930541274E+03  0.00000000000E+00 0. -1.
         -1   -1    0    0    0  501 -0.00000000000E+00 -0.00000000000E+00 -0.63858392096E+02  0.63858392096E+02  0.00000000000E+00 0.  1.
         23    2    1    2    0    0  0.14281542178E+03  0.57901848691E+02  0.21454803713E+03  0.27925023703E+03  0.90559184307E+02 0.  0.
          5    1    1    2  502    0 -0.74661845738E+02 -0.87913891937E+02  0.21648757353E+03  0.24534099351E+03  0.47000000000E+01 0. -1.
         -5    1    1    2    0  502 -0.68153576044E+02  0.30012043247E+02  0.64411409981E+02  0.98572574295E+02  0.47000000000E+01 0. -1.
        -11    1    3    3    0    0  0.35034702720E+02 -0.14215163369E+02  0.97433932559E+02  0.10451254699E+03  0.00000000000E+00 0. -1.
         11    1    3    3    0    0  0.10778071906E+03  0.72117012060E+02  0.11711410457E+03  0.17473769004E+03  0.00000000000E+00 0.  1.
<mgrwt>
<rscale>  0 0.19331036E+03</rscale>
<asrwt>0</asrwt>
<pdfrwt beam="1">  1        1 0.86046983E-01 0.19842455E+03</pdfrwt>
<pdfrwt beam="2">  1       -1 0.98243684E-02 0.19842455E+03</pdfrwt>
<totfact> 0.24067228E+03</totfact>
</mgrwt>
</event>
<event>
 7    1  0.5107591E-006  0.2440983E+03  0.7546771E-02  0.1119489E+00
         -2   -1    0    0    0  501 -0.00000000000E+00  0.00000000000E+00  0.76260202076E+02  0.76260202076E+02  0.00000000000E+00 0. -1.
          2   -1    0    0  501    0  0.00000000000E+00 -0.00000000000E+00 -0.77149477914E+03  0.77149477914E+03  0.00000000000E+00 0.  1.
         23    2    1    2    0    0 -0.18854436512E+03 -0.91705648726E+02 -0.42801451402E+03  0.48582880781E+03  0.94203517250E+02 0.  0.
          5    1    1    2  502    0  0.12778320560E+03  0.11608890164E+03 -0.15573341111E+03  0.23255142668E+03  0.47000000000E+01 0. -1.
         -5    1    1    2    0  502  0.60761159523E+02 -0.24383252913E+02 -0.11148665193E+03  0.12937474672E+03  0.47000000000E+01 0. -1.
        -11    1    3    3    0    0 -0.43138292322E+01 -0.29140251029E+02 -0.26354966483E+02  0.39526543120E+02  0.00000000000E+00 0. -1.
         11    1    3    3    0    0 -0.18423053589E+03 -0.62565397696E+02 -0.40165954754E+03  0.44630226469E+03  0.00000000000E+00 0.  1.
<mgrwt>
<rscale>  0 0.24045675E+03</rscale>
<asrwt>0</asrwt>
<pdfrwt beam="2">  1        2 0.11869149E+00 0.24409833E+03</pdfrwt>
<pdfrwt beam="1">  1       -2 0.11732340E-01 0.24409833E+03</pdfrwt>
<totfact> 0.19016823E+03</totfact>
</mgrwt>
</event>
<event>
 7    1  0.5107591E-006  0.1824569E+03  0.7546771E-02  0.1172413E+00
          2   -1    0    0  501    0  0.00000000000E+00  0.00000000000E+00  0.71505664777E+03  0.71505664777E+03  0.00000000000E+00 0. -1.
         -2   -1    0    0    0  501 -0.00000000000E+00 -0.00000000000E+00 -0.42011793007E+02  0.42011793007E+02  0.00000000000E+00 0.  1.
         23    2    1    2    0    0  0.88640647814E+02 -0.89160029441E+02  0.39485198581E+03  0.42437970661E+03  0.91560741531E+02 0.  0.
          5    1    1    2  502    0 -0.64448153952E+02  0.91059026109E+01  0.22306234218E+03  0.23241209200E+03  0.47000000000E+01 0. -1.
         -5    1    1    2    0  502 -0.24192493861E+02  0.80054126830E+02  0.55130526777E+02  0.10027664217E+03  0.47000000000E+01 0.  1.
        -11    1    3    3    0    0 -0.15625229371E+02 -0.11998449691E+02  0.21617173272E+02  0.29247440369E+02  0.00000000000E+00 0.  1.
         11    1    3    3    0    0  0.10426587718E+03 -0.77161579750E+02  0.37323481254E+03  0.39513226624E+03  0.00000000000E+00 0. -1.
<mgrwt>
<rscale>  0 0.17531731E+03</rscale>
<asrwt>0</asrwt>
<pdfrwt beam="1">  1        2 0.11000871E+00 0.18245690E+03</pdfrwt>
<pdfrwt beam="2">  1       -2 0.64633533E-02 0.18245690E+03</pdfrwt>
<totfact> 0.52903328E+03</totfact>
</mgrwt>
</event>
<event>
 7    1  0.5107591E-006  0.1432624E+03  0.7546771E-02  0.1218424E+00
         -1   -1    0    0    0  501 -0.00000000000E+00  0.00000000000E+00  0.27245440379E+02  0.27245440379E+02  0.00000000000E+00 0.  1.
          1   -1    0    0  501    0  0.00000000000E+00 -0.00000000000E+00 -0.66889411515E+03  0.66889411515E+03  0.00000000000E+00 0. -1.
         23    2    1    2    0    0 -0.69919320790E+02  0.34087545721E+01 -0.38179312904E+03  0.39940898149E+03  0.94134000718E+02 0.  0.
          5    1    1    2  502    0  0.75054505064E+02 -0.53095921041E+02 -0.15062988214E+03  0.17653273621E+03  0.47000000000E+01 0. -1.
         -5    1    1    2    0  502 -0.51351842738E+01  0.49687166469E+02 -0.10922566360E+03  0.12019783783E+03  0.47000000000E+01 0. -1.
        -11    1    3    3    0    0 -0.19228145647E+02 -0.30812521051E+02 -0.48726548612E+02  0.60773428225E+02  0.00000000000E+00 0. -1.
         11    1    3    3    0    0 -0.50691175143E+02  0.34221275623E+02 -0.33306658042E+03  0.33863555327E+03  0.00000000000E+00 0.  1.
<mgrwt>
<rscale>  0 0.13628017E+03</rscale>
<asrwt>0</asrwt>
<pdfrwt beam="2">  1        1 0.10290678E+00 0.14326245E+03</pdfrwt>
<pdfrwt beam="1">  1       -1 0.41916067E-02 0.14326245E+03</pdfrwt>
<totfact> 0.66777475E+03</totfact>
</mgrwt>
</event>
<event>
 7    1  0.5107591E-006  0.1288783E+03  0.7546771E-02  0.1245506E+00
         -3   -1    0    0    0  501 -0.00000000000E+00  0.00000000000E+00  0.13241793081E+03  0.13241793081E+03  0.00000000000E+00 0.  1.
          3   -1    0    0  501    0  0.00000000000E+00 -0.00000000000E+00 -0.10969116896E+03  0.10969116896E+03  0.00000000000E+00 0. -1.
         23    2    1    2    0    0 -0.14474542153E+02 -0.27852664570E+02 -0.37808668859E+02  0.99721748536E+02  0.86773546637E+02 0.  0.
          5    1    1    2  502    0  0.27411201179E+02  0.68334001747E+02  0.66366068387E+02  0.99234342734E+02  0.47000000000E+01 0. -1.
         -5    1    1    2    0  502 -0.12936659026E+02 -0.40481337177E+02 -0.58306376805E+01  0.43153008495E+02  0.47000000000E+01 0. -1.
        -11    1    3    3    0    0 -0.36095829913E+02 -0.13921308339E+02  0.14592878743E+02  0.41348081854E+02  0.00000000000E+00 0.  1.
         11    1    3    3    0    0  0.21621287760E+02 -0.13931356231E+02 -0.52401547603E+02  0.58373666683E+02  0.00000000000E+00 0. -1.
<mgrwt>
<rscale>  0 0.11855163E+03</rscale>
<asrwt>0</asrwt>
<pdfrwt beam="2">  1        3 0.16875565E-01 0.12887831E+03</pdfrwt>
<pdfrwt beam="1">  1       -3 0.20371989E-01 0.12887831E+03</pdfrwt>
<totfact> 0.14969681E+03</totfact>
</mgrwt>
</event>
<event>
 7    1  0.5107591E-006  0.1330316E+03  0.7546771E-02  0.1235863E+00
          2   -1    0    0  501    0  0.00000000000E+00  0.00000000000E+00  0.11914908963E+03  0.11914908963E+03  0.00000000000E+00 0. -1.
         -2   -1    0    0    0  501 -0.00000000000E+00 -0.00000000000E+00 -0.11685302990E+03  0.11685302990E+03  0.00000000000E+00 0.  1.
         23    2    1    2    0    0 -0.92453346788E+01 -0.44516305081E+02 -0.93852552971E+01  0.10245861023E+03  0.91337320746E+02 0.  0.
          5    1    1    2  502    0  0.36326767002E+02 -0.22894426866E+02 -0.27165835183E+02  0.51028045069E+02  0.47000000000E+01 0. -1.
         -5    1    1    2    0  502 -0.27081432324E+02  0.67410731948E+02  0.38847150214E+02  0.82515464236E+02  0.47000000000E+01 0. -1.
        -11    1    3    3    0    0 -0.11943426883E+02  0.26669389858E+02  0.53668846222E+01  0.29710355967E+02  0.00000000000E+00 0. -1.
         11    1    3    3    0    0  0.26980922046E+01 -0.71185694939E+02 -0.14752139919E+02  0.72748254259E+02  0.00000000000E+00 0.  1.
<mgrwt>
<rscale>  0 0.12449327E+03</rscale>
<asrwt>0</asrwt>
<pdfrwt beam="1">  1        2 0.18330629E-01 0.13303163E+03</pdfrwt>
<pdfrwt beam="2">  1       -2 0.17977389E-01 0.13303163E+03</pdfrwt>
<totfact> 0.73275017E+03</totfact>
</mgrwt>
</event>
<event>
 7    1  0.5107591E-006  0.1363594E+03  0.7546771E-02  0.1230099E+00
          2   -1    0    0  501    0  0.00000000000E+00  0.00000000000E+00  0.99011816169E+03  0.99011816169E+03  0.00000000000E+00 0. -1.
         -2   -1    0    0    0  501 -0.00000000000E+00 -0.00000000000E+00 -0.14956137936E+02  0.14956137936E+02  0.00000000000E+00 0.  1.
         23    2    1    2    0    0  0.55764252746E+01  0.54182648470E+02  0.45560990799E+03  0.46792600946E+03  0.91692454209E+02 0.  0.
          5    1    1    2  502    0 -0.62620261162E+02 -0.46612249107E+02  0.27786909249E+03  0.28866472149E+03  0.47000000000E+01 0.  1.
         -5    1    1    2    0  502  0.57043835887E+02 -0.75703993629E+01  0.24168302328E+03  0.24848356867E+03  0.47000000000E+01 0.  1.
        -11    1    3    3    0    0  0.41326046310E+02  0.57154930039E+02  0.28660021152E+03  0.29515116360E+03  0.00000000000E+00 0. -1.
         11    1    3    3    0    0 -0.35749621035E+02 -0.29722815683E+01  0.16900969647E+03  0.17277484586E+03  0.00000000000E+00 0.  1.
<mgrwt>
<rscale>  0 0.12823444E+03</rscale>
<asrwt>0</asrwt>
<pdfrwt beam="1">  1        2 0.15232582E+00 0.13635940E+03</pdfrwt>
<pdfrwt beam="2">  1       -2 0.23009451E-02 0.13635940E+03</pdfrwt>
<totfact> 0.16016056E+04</totfact>
</mgrwt>
</event>
<event>
 7    1  0.5107591E-006  0.1277918E+03  0.7546771E-02  0.1244989E+00
         -2   -1    0    0    0  501 -0.00000000000E+00  0.00000000000E+00  0.95397388663E+02  0.95397388663E+02  0.00000000000E+00 0.  1.
          2   -1    0    0  501    0  0.00000000000E+00 -0.00000000000E+00 -0.15467797123E+03  0.15467797123E+03  0.00000000000E+00 0. -1.
         23    2    1    2    0    0 -0.66877507990E+00  0.26545777946E+02 -0.74702773460E+02  0.12135631104E+03  0.91878856543E+02 0.  0.
          5    1    1    2  502    0  0.17401452257E+02 -0.42306223910E+02 -0.44730677922E+02  0.64152557779E+02  0.47000000000E+01 0. -1.
         -5    1    1    2    0  502 -0.16732677177E+02  0.15760445964E+02  0.60152868817E+02  0.64566491073E+02  0.47000000000E+01 0. -1.
        -11    1    3    3    0    0  0.11004454765E+02  0.37780407003E+02 -0.90526780667E+02  0.98709448362E+02  0.00000000000E+00 0. -1.
         11    1    3    3    0    0 -0.11673229845E+02 -0.11234629056E+02  0.15824007207E+02  0.22646862678E+02  0.00000000000E+00 0.  1.
<mgrwt>
<rscale>  0 0.11886014E+03</rscale>
<asrwt>0</asrwt>
<pdfrwt beam="2">  1        2 0.23796611E-01 0.12779182E+03</pdfrwt>
<pdfrwt beam="1">  1       -2 0.14676521E-01 0.12779182E+03</pdfrwt>
<totfact> 0.76100783E+03</totfact>
</mgrwt>
</event>
<event>
 7    1  0.5107591E-006  0.2372824E+03  0.7546771E-02  0.1124469E+00
         -1   -1    0    0    0  501 -0.00000000000E+00  0.00000000000E+00  0.18535367100E+03  0.18535367100E+03  0.00000000000E+00 0.  1.
          1   -1    0    0  501    0  0.00000000000E+00 -0.00000000000E+00 -0.29357588611E+03  0.29357588611E+03  0.00000000000E+00 0. -1.
         23    2    1    2    0    0  0.18073639317E+03  0.89451373935E+02 -0.75097915999E+01  0.22115851850E+03  0.90484812088E+02 0.  0.
          5    1    1    2  502    0 -0.11050602932E+03  0.11674547344E+02 -0.27946783407E+02  0.11467776713E+03  0.47000000000E+01 0. -1.
         -5    1    1    2    0  502 -0.70230363852E+02 -0.10112592128E+03 -0.72765640110E+02  0.14309327148E+03  0.47000000000E+01 0. -1.
        -11    1    3    3    0    0  0.14136712538E+03  0.22252421145E+02 -0.28278881351E+01  0.14313570951E+03  0.00000000000E+00 0.  1.
         11    1    3    3    0    0  0.39369267791E+02  0.67198952790E+02 -0.46819034648E+01  0.78022808989E+02  0.00000000000E+00 0. -1.
<mgrwt>
<rscale>  0 0.23311079E+03</rscale>
<asrwt>0</asrwt>
<pdfrwt beam="2">  1        1 0.45165520E-01 0.23728236E+03</pdfrwt>
<pdfrwt beam="1">  1       -1 0.28515950E-01 0.23728236E+03</pdfrwt>
<totfact> 0.10039047E+03</totfact>
</mgrwt>
</event>
<event>
 7    1  0.5107591E-006  0.1411546E+03  0.7546771E-02  0.1222465E+00
          2   -1    0    0  501    0  0.00000000000E+00  0.00000000000E+00  0.27947137132E+03  0.27947137132E+03  0.00000000000E+00 0. -1.
         -2   -1    0    0    0  501 -0.00000000000E+00 -0.00000000000E+00 -0.59324481192E+02  0.59324481192E+02  0.00000000000E+00 0.  1.
         23    2    1    2    0    0  0.59238741064E+02  0.27866588334E+02  0.12649409523E+03  0.16939848013E+03  0.91702310519E+02 0.  0.
          5    1    1    2  502    0  0.24338741957E+02  0.18983698130E+02 -0.51980270186E+01  0.31652245412E+02  0.47000000000E+01 0.  1.
         -5    1    1    2    0  502 -0.83577483021E+02 -0.46850286465E+02  0.98850821916E+02  0.13774512697E+03  0.47000000000E+01 0.  1.
        -11    1    3    3    0    0  0.37480737330E+02 -0.19207792760E+02  0.10523679782E+03  0.11335135019E+03  0.00000000000E+00 0. -1.
         11    1    3    3    0    0  0.21758003734E+02  0.47074381095E+02  0.21257297410E+02  0.56047129945E+02  0.00000000000E+00 0.  1.
<mgrwt>
<rscale>  0 0.13342148E+03</rscale>
<asrwt>0</asrwt>
<pdfrwt beam="1">  1        2 0.42995595E-01 0.14115461E+03</pdfrwt>
<pdfrwt beam="2">  1       -2 0.91268434E-02 0.14115461E+03</pdfrwt>
<totfact> 0.86219097E+03</totfact>
</mgrwt>
</event>
<event>
 7    1  0.5107591E-006  0.1489101E+03  0.7546771E-02  0.1211292E+00
          1   -1    0    0  501    0  0.00000000000E+00  0.00000000000E+00  0.39868095115E+02  0.39868095115E+02  0.00000000000E+00 0. -1.
         -1   -1    0    0    0  501 -0.00000000000E+00 -0.00000000000E+00 -0.58066046969E+03  0.58066046969E+03  0.00000000000E+00 0.  1.
         23    2    1    2    0    0 -0.33145170333E+02 -0.73816187662E+02 -0.10701731276E+03  0.16190560124E+03  0.90627184686E+02 0.  0.
          5    1    1    2  502    0 -0.44993887033E+02  0.46983860759E+02 -0.16602671495E+03  0.17837851081E+03  0.47000000000E+01 0.  1.
         -5    1    1    2    0  502  0.78139057366E+02  0.26832326903E+02 -0.26774834686E+03  0.28024445275E+03  0.47000000000E+01 0.  1.
        -11    1    3    3    0    0 -0.27314501077E+02 -0.38632482682E+02 -0.11587187513E+03  0.12515926707E+03  0.00000000000E+00 0.  1.
         11    1    3    3    0    0 -0.58306692556E+01 -0.35183704980E+02  0.88545623680E+01  0.36746334168E+02  0.00000000000E+00 0. -1.
<mgrwt>
<rscale>  0 0.14152448E+03</rscale>
<asrwt>0</asrwt>
<pdfrwt beam="1">  1        1 0.61335529E-02 0.14891010E+03</pdfrwt>
<pdfrwt beam="2">  1       -1 0.89332383E-01 0.14891010E+03</pdfrwt>
<totfact> 0.15845236E+03</totfact>
</mgrwt>
</event>
<event>
 7    1  0.5107591E-006  0.1561332E+03  0.7546771E-02  0.1201269E+00
         -2   -1    0    0    0  501 -0.00000000000E+00  0.00000000000E+00  0.15086200906E+03  0.15086200906E+03  0.00000000000E+00 0.  1.
          2   -1    0    0  501    0  0.00000000000E+00 -0.00000000000E+00 -0.20301263899E+03  0.20301263899E+03  0.00000000000E+00 0. -1.
         23    2    1    2    0    0  0.86302467360E+02  0.36118349586E+02 -0.12563410243E+03  0.18131338054E+03  0.91312448346E+02 0.  0.
          5    1    1    2  502    0 -0.43144381135E+02 -0.48053725791E+02  0.10086851689E+03  0.11986302969E+03  0.47000000000E+01 0. -1.
         -5    1    1    2    0  502 -0.43158086225E+02  0.11935376206E+02 -0.27385044394E+02  0.52698237810E+02  0.47000000000E+01 0. -1.
        -11    1    3    3    0    0  0.85135558933E+02  0.63007524195E+01 -0.12511974876E+03  0.15146852612E+03  0.00000000000E+00 0.  1.
         11    1    3    3    0    0  0.11669084271E+01  0.29817597166E+02 -0.51435367100E+00  0.29844854426E+02  0.00000000000E+00 0. -1.
<mgrwt>
<rscale>  0 0.14935374E+03</rscale>
<asrwt>0</asrwt>
<pdfrwt beam="2">  1        2 0.31232714E-01 0.15613318E+03</pdfrwt>
<pdfrwt beam="1">  1       -2 0.23209540E-01 0.15613318E+03</pdfrwt>
<totfact> 0.26507028E+03</totfact>
</mgrwt>
</event>
<event>
 7    1  0.5107591E-006  0.1320332E+03  0.7546771E-02  0.1237734E+00
          2   -1    0    0  501    0  0.00000000000E+00  0.00000000000E+00  0.52864860606E+02  0.52864860606E+02  0.00000000000E+00 0. -1.
         -2   -1    0    0    0  501 -0.00000000000E+00 -0.00000000000E+00 -0.33697973605E+03  0.33697973605E+03  0.00000000000E+00 0.  1.
         23    2    1    2    0    0 -0.13136737619E+02  0.40441693597E+02 -0.32299977570E+02  0.10551468925E+03  0.91005256113E+02 0.  0.
          5    1    1    2  502    0 -0.39451744944E+02 -0.57440733107E+02 -0.94395676605E+02  0.11742449387E+03  0.47000000000E+01 0.  1.
         -5    1    1    2    0  502  0.52588482563E+02  0.16999039510E+02 -0.15741922127E+03  0.16690541353E+03  0.47000000000E+01 0.  1.
        -11    1    3    3    0    0 -0.50444335106E+02  0.33168890087E+02 -0.30052166802E+02  0.67438408517E+02  0.00000000000E+00 0. -1.
         11    1    3    3    0    0  0.37307597487E+02  0.72728035104E+01 -0.22478107683E+01  0.38076280732E+02  0.00000000000E+00 0.  1.
<mgrwt>
<rscale>  0 0.12331019E+03</rscale>
<asrwt>0</asrwt>
<pdfrwt beam="1">  1        2 0.81330555E-02 0.13203315E+03</pdfrwt>
<pdfrwt beam="2">  1       -2 0.51843036E-01 0.13203315E+03</pdfrwt>
<totfact> 0.28471376E+03</totfact>
</mgrwt>
</event>
<event>
 7    1  0.5107591E-006  0.1684179E+03  0.7546771E-02  0.1186542E+00
          1   -1    0    0  501    0  0.00000000000E+00  0.00000000000E+00  0.42858860589E+02  0.42858860589E+02  0.00000000000E+00 0. -1.
         -1   -1    0    0    0  501 -0.00000000000E+00 -0.00000000000E+00 -0.58450641546E+03  0.58450641546E+03  0.00000000000E+00 0.  1.
         23    2    1    2    0    0 -0.91651801873E+02 -0.65873814331E+02 -0.19918918523E+03  0.24573412590E+03  0.89272150861E+02 0.  0.
          5    1    1    2  502    0  0.71845321627E+02  0.44247439411E+02 -0.76411134858E+02  0.11393128484E+03  0.47000000000E+01 0. -1.
         -5    1    1    2    0  502  0.19806480246E+02  0.21626374921E+02 -0.26604723479E+03  0.26769986532E+03  0.47000000000E+01 0. -1.
        -11    1    3    3    0    0 -0.91241812081E+02 -0.37277766017E+02 -0.19264642688E+03  0.21639627053E+03  0.00000000000E+00 0.  1.
         11    1    3    3    0    0 -0.40998979133E+00 -0.28596048314E+02 -0.65427583499E+01  0.29337855369E+02  0.00000000000E+00 0. -1.
<mgrwt>
<rscale>  0 0.16192390E+03</rscale>
<asrwt>0</asrwt>
<pdfrwt beam="1">  1        1 0.65936715E-02 0.16841793E+03</pdfrwt>
<pdfrwt beam="2">  1       -1 0.89924056E-01 0.16841793E+03</pdfrwt>
<totfact> 0.14221287E+03</totfact>
</mgrwt>
</event>
<event>
 7    1  0.5107591E-006  0.1152143E+03  0.7546771E-02  0.1263843E+00
         -1   -1    0    0    0  501 -0.00000000000E+00  0.00000000000E+00  0.19025902906E+02  0.19025902906E+02  0.00000000000E+00 0.  1.
          1   -1    0    0  501    0  0.00000000000E+00 -0.00000000000E+00 -0.58804771616E+03  0.58804771616E+03  0.00000000000E+00 0. -1.
         23    2    1    2    0    0  0.12219103534E+02 -0.42265088147E+01 -0.32576007756E+03  0.33790713218E+03  0.88850616076E+02 0.  0.
          5    1    1    2  502    0 -0.21626274528E+01  0.58986414645E+02 -0.13148396964E+03  0.14420193598E+03  0.47000000000E+01 0. -1.
         -5    1    1    2    0  502 -0.10056476081E+02 -0.54759905830E+02 -0.11177776606E+03  0.12496455091E+03  0.47000000000E+01 0.  1.
        -11    1    3    3    0    0  0.39279320215E+02  0.19992188742E+02 -0.25044898672E+03  0.25429755712E+03  0.00000000000E+00 0. -1.
         11    1    3    3    0    0 -0.27060216681E+02 -0.24218697556E+02 -0.75311090835E+02  0.83609575055E+02  0.00000000000E+00 0.  1.
<mgrwt>
<rscale>  0 0.10825111E+03</rscale>
<asrwt>0</asrwt>
<pdfrwt beam="2">  1        1 0.90468895E-01 0.11521426E+03</pdfrwt>
<pdfrwt beam="1">  1       -1 0.29270615E-02 0.11521426E+03</pdfrwt>
<totfact> 0.13276526E+04</totfact>
</mgrwt>
</event>
<event>
 7    1  0.5107591E-006  0.2216217E+03  0.7546771E-02  0.1132680E+00
         -3   -1    0    0    0  501 -0.00000000000E+00  0.00000000000E+00  0.42681974235E+02  0.42681974235E+02  0.00000000000E+00 0.  1.
          3   -1    0    0  501    0  0.00000000000E+00 -0.00000000000E+00 -0.28768682268E+03  0.28768682268E+03  0.00000000000E+00 0. -1.
         23    2    1    2    0    0  0.16250042942E+02  0.19490729554E+02 -0.10456670790E+03  0.14056547797E+03  0.90446142877E+02 0.  0.
          5    1    1    2  502    0 -0.47931537439E+02 -0.52254687610E+02 -0.45485349735E+02  0.84374117471E+02  0.47000000000E+01 0. -1.
         -5    1    1    2    0  502  0.31681494498E+02  0.32763958056E+02 -0.94952790810E+02  0.10542920148E+03  0.47000000000E+01 0. -1.
        -11    1    3    3    0    0  0.32189374229E+02  0.32696946143E+02 -0.14453737324E+02  0.48105681816E+02  0.00000000000E+00 0.  1.
         11    1    3    3    0    0 -0.15939331287E+02 -0.13206216589E+02 -0.90112970576E+02  0.92459796153E+02  0.00000000000E+00 0. -1.
<mgrwt>
<rscale>  0 0.22162167E+03</rscale>
<asrwt>0</asrwt>
<pdfrwt beam="2">  1        3 0.44259511E-01 0.22162167E+03</pdfrwt>
<pdfrwt beam="1">  1       -3 0.65664577E-02 0.22162167E+03</pdfrwt>
<totfact> 0.18592921E+03</totfact>
</mgrwt>
</event>
<event>
 7    1  0.5107591E-006  0.2237998E+03  0.7546771E-02  0.1161641E+00
          1   -1    0    0  501    0  0.00000000000E+00  0.00000000000E+00  0.59980088967E+02  0.59980088967E+02  0.00000000000E+00 0. -1.
         -1   -1    0    0    0  501 -0.00000000000E+00 -0.00000000000E+00 -0.47472082632E+03  0.47472082632E+03  0.00000000000E+00 0.  1.
         23    2    1    2    0    0 -0.53145466106E+02 -0.22916752979E+02 -0.91376697744E+02  0.14144446159E+03  0.91143933917E+02 0.  0.
          5    1    1    2  502    0  0.34490157916E+02 -0.35539951616E+02  0.12912272086E+02  0.51395290878E+02  0.47000000000E+01 0. -1.
         -5    1    1    2    0  502  0.18655308190E+02  0.58456704595E+02 -0.33627631170E+03  0.34186116282E+03  0.47000000000E+01 0.  1.
        -11    1    3    3    0    0 -0.10960531052E+01  0.30138774001E+02 -0.11339622001E+02  0.32220087800E+02  0.00000000000E+00 0.  1.
         11    1    3    3    0    0 -0.52049413001E+02 -0.53055526980E+02 -0.80037075743E+02  0.10922437379E+03  0.00000000000E+00 0. -1.
<mgrwt>
<rscale>  0 0.18651652E+03</rscale>
<asrwt>0</asrwt>
<pdfrwt beam="1">  1        1 0.92277060E-02 0.22379977E+03</pdfrwt>
<pdfrwt beam="2">  1       -1 0.73033973E-01 0.22379977E+03</pdfrwt>
<totfact> 0.13992977E+03</totfact>
</mgrwt>
</event>
<event>
 7    1  0.5107591E-006  0.1543293E+03  0.7546771E-02  0.1203517E+00
         -4   -1    0    0    0  501 -0.00000000000E+00  0.00000000000E+00  0.12140966712E+04  0.12140966712E+04  0.00000000000E+00 0.  1.
          4   -1    0    0  501    0  0.00000000000E+00 -0.00000000000E+00 -0.18163118201E+02  0.18163118201E+02  0.00000000000E+00 0. -1.
         23    2    1    2    0    0  0.87167411192E+02 -0.24435600677E+02  0.36477602011E+03  0.38689574777E+03  0.91823301198E+02 0.  0.
          5    1    1    2  502    0 -0.66225477618E+02 -0.44886967958E+02  0.49673180216E+03  0.50315527132E+03  0.47000000000E+01 0.  1.
         -5    1    1    2    0  502 -0.20941933574E+02  0.69322568635E+02  0.33442573078E+03  0.34220877036E+03  0.47000000000E+01 0.  1.
        -11    1    3    3    0    0  0.93460947382E+01 -0.41190443371E+02  0.71843734251E+02  0.83339811993E+02  0.00000000000E+00 0. -1.
         11    1    3    3    0    0  0.77821316453E+02  0.16754842694E+02  0.29293228586E+03  0.30355593578E+03  0.00000000000E+00 0.  1.
<mgrwt>
<rscale>  0 0.14754931E+03</rscale>
<asrwt>0</asrwt>
<pdfrwt beam="2">  1        4 0.27943268E-02 0.15432925E+03</pdfrwt>
<pdfrwt beam="1">  1       -4 0.18678404E+00 0.15432925E+03</pdfrwt>
<totfact> 0.18288387E+02</totfact>
</mgrwt>
</event>
<event>
 7    1  0.5107591E-006  0.1425701E+03  0.7546771E-02  0.1221259E+00
          3   -1    0    0  501    0  0.00000000000E+00  0.00000000000E+00  0.92550731757E+02  0.92550731757E+02  0.00000000000E+00 0. -1.
         -3   -1    0    0    0  501 -0.00000000000E+00 -0.00000000000E+00 -0.19872407666E+03  0.19872407666E+03  0.00000000000E+00 0.  1.
         23    2    1    2    0    0  0.50131480781E+02  0.46793688275E+02  0.22357878196E+01  0.11216934551E+03  0.88736400067E+02 0.  0.
          5    1    1    2  502    0 -0.18505832867E+02  0.34399748895E+02  0.75487469469E+00  0.39350583349E+02  0.47000000000E+01 0. -1.
         -5    1    1    2    0  502 -0.31625647914E+02 -0.81193437170E+02 -0.10916400742E+03  0.13975487956E+03  0.47000000000E+01 0. -1.
        -11    1    3    3    0    0  0.76002645068E+02  0.34874662073E+02  0.35828939499E+00  0.83622798825E+02  0.00000000000E+00 0.  1.
         11    1    3    3    0    0 -0.25871164287E+02  0.11919026202E+02  0.18774984246E+01  0.28546546683E+02  0.00000000000E+00 0. -1.
<mgrwt>
<rscale>  0 0.13426668E+03</rscale>
<asrwt>0</asrwt>
<pdfrwt beam="1">  1        3 0.14238574E-01 0.14257008E+03</pdfrwt>
<pdfrwt beam="2">  1       -3 0.30572935E-01 0.14257008E+03</pdfrwt>
<totfact> 0.97782142E+02</totfact>
</mgrwt>
</event>
<event>
 7    1  0.5107591E-006  0.2949683E+03  0.7546771E-02  0.1125069E+00
          2   -1    0    0  501    0  0.00000000000E+00  0.00000000000E+00  0.92262910358E+02  0.92262910358E+02  0.00000000000E+00 0. -1.
         -2   -1    0    0    0  501 -0.00000000000E+00 -0.00000000000E+00 -0.45220412981E+03  0.45220412981E+03  0.00000000000E+00 0.  1.
         23    2    1    2    0    0 -0.63068210601E+02 -0.25743773772E+02 -0.92589443679E+02  0.14636749357E+03  0.90610689307E+02 0.  0.
          5    1    1    2  502    0  0.14186685098E+03 -0.69446836272E+02 -0.89889354317E+02  0.18180003436E+03  0.47000000000E+01 0. -1.
         -5    1    1    2    0  502 -0.78798640374E+02  0.95190610043E+02 -0.17746242146E+03  0.21629951224E+03  0.47000000000E+01 0.  1.
        -11    1    3    3    0    0 -0.38245701594E+02  0.26677468123E+02 -0.13989700425E+02  0.48684008810E+02  0.00000000000E+00 0.  1.
         11    1    3    3    0    0 -0.24822509008E+02 -0.52421241895E+02 -0.78599743255E+02  0.97683484760E+02  0.00000000000E+00 0. -1.
<mgrwt>
<rscale>  0 0.23224537E+03</rscale>
<asrwt>0</asrwt>
<pdfrwt beam="1">  1        2 0.14194294E-01 0.29496826E+03</pdfrwt>
<pdfrwt beam="2">  1       -2 0.69569865E-01 0.29496826E+03</pdfrwt>
<totfact> 0.80624244E+02</totfact>
</mgrwt>
</event>
<event>
 7    1  0.5107591E-006  0.1937761E+03  0.7546771E-02  0.1159871E+00
          1   -1    0    0  501    0  0.00000000000E+00  0.00000000000E+00  0.59422635880E+03  0.59422635880E+03  0.00000000000E+00 0. -1.
         -1   -1    0    0    0  501 -0.00000000000E+00 -0.00000000000E+00 -0.66716914222E+02  0.66716914222E+02  0.00000000000E+00 0.  1.
         23    2    1    2    0    0  0.13366215215E+02 -0.14746632627E+03  0.37918183137E+03  0.41691405499E+03  0.90074940560E+02 0.  0.
          5    1    1    2  502    0 -0.15146947532E+01  0.16588027835E+03  0.10831155682E+03  0.19817175476E+03  0.47000000000E+01 0. -1.
         -5    1    1    2    0  502 -0.11851520462E+02 -0.18413952082E+02  0.40016056384E+02  0.45857463265E+02  0.47000000000E+01 0. -1.
        -11    1    3    3    0    0 -0.23389837432E+02 -0.11869639508E+03  0.22047833687E+03  0.25148879842E+03  0.00000000000E+00 0.  1.
         11    1    3    3    0    0  0.36756052647E+02 -0.28769931188E+02  0.15870349450E+03  0.16542525657E+03  0.00000000000E+00 0. -1.
<mgrwt>
<rscale>  0 0.18844512E+03</rscale>
<asrwt>0</asrwt>
<pdfrwt beam="1">  1        1 0.91419436E-01 0.19377610E+03</pdfrwt>
<pdfrwt beam="2">  1       -1 0.10264141E-01 0.19377610E+03</pdfrwt>
<totfact> 0.20701371E+03</totfact>
</mgrwt>
</event>
<event>
 7    1  0.5107591E-006  0.1566518E+03  0.7546771E-02  0.1201047E+00
         -1   -1    0    0    0  501 -0.00000000000E+00  0.00000000000E+00  0.36942946478E+02  0.36942946478E+02  0.00000000000E+00 0.  1.
          1   -1    0    0  501    0  0.00000000000E+00 -0.00000000000E+00 -0.55636373649E+03  0.55636373649E+03  0.00000000000E+00 0. -1.
         23    2    1    2    0    0  0.29197774778E+02  0.89790968017E+02 -0.23245761977E+03  0.26636990979E+03  0.89450857246E+02 0.  0.
          5    1    1    2  502    0  0.25766729941E+02 -0.79755544446E+01 -0.17735096692E+03  0.17945191364E+03  0.47000000000E+01 0.  1.
         -5    1    1    2    0  502 -0.54964504719E+02 -0.81815413572E+02 -0.10961220331E+03  0.14748485954E+03  0.47000000000E+01 0.  1.
        -11    1    3    3    0    0  0.48850576585E+01  0.14930346349E+02  0.47765809491E+01  0.16419340913E+02  0.00000000000E+00 0.  1.
         11    1    3    3    0    0  0.24312717119E+02  0.74860621667E+02 -0.23723420072E+03  0.24995056888E+03  0.00000000000E+00 0. -1.
<mgrwt>
<rscale>  0 0.14953403E+03</rscale>
<asrwt>0</asrwt>
<pdfrwt beam="2">  1        1 0.85594416E-01 0.15665182E+03</pdfrwt>
<pdfrwt beam="1">  1       -1 0.56835306E-02 0.15665182E+03</pdfrwt>
<totfact> 0.55028599E+03</totfact>
</mgrwt>
</event>
<event>
 7    1  0.5107591E-006  0.1443862E+03  0.7546771E-02  0.1217715E+00
         -2   -1    0    0    0  501 -0.00000000000E+00  0.00000000000E+00  0.17757957231E+03  0.17757957231E+03  0.00000000000E+00 0.  1.
          2   -1    0    0  501    0  0.00000000000E+00 -0.00000000000E+00 -0.96758761681E+02  0.96758761681E+02  0.00000000000E+00 0. -1.
         23    2    1    2    0    0 -0.71729381890E+02 -0.87836539196E+01  0.21725147620E+02  0.11832655601E+03  0.91142388683E+02 0.  0.
          5    1    1    2  502    0  0.19163629019E+02  0.13940182765E+02 -0.38203406337E+02  0.45201367551E+02  0.47000000000E+01 0. -1.
         -5    1    1    2    0  502  0.52565752871E+02 -0.51565288457E+01  0.97299069348E+02  0.11081041043E+03  0.47000000000E+01 0. -1.
        -11    1    3    3    0    0 -0.84663846741E+02 -0.18774531326E+02 -0.51485200856E+01  0.86873225050E+02  0.00000000000E+00 0. -1.
         11    1    3    3    0    0  0.12934464851E+02  0.99908774059E+01  0.26873667705E+02  0.31453330957E+02  0.00000000000E+00 0.  1.
<mgrwt>
<rscale>  0 0.13678966E+03</rscale>
<asrwt>0</asrwt>
<pdfrwt beam="2">  1        2 0.14885963E-01 0.14438621E+03</pdfrwt>
<pdfrwt beam="1">  1       -2 0.27319934E-01 0.14438621E+03</pdfrwt>
<totfact> 0.45686755E+03</totfact>
</mgrwt>
</event>
<event>
 7    1  0.5107591E-006  0.1270508E+03  0.7546771E-02  0.1246585E+00
         -2   -1    0    0    0  501 -0.00000000000E+00  0.00000000000E+00  0.15359297555E+03  0.15359297555E+03  0.00000000000E+00 0.  1.
          2   -1    0    0  501    0  0.00000000000E+00 -0.00000000000E+00 -0.89849308360E+02  0.89849308360E+02  0.00000000000E+00 0. -1.
         23    2    1    2    0    0 -0.19477326886E+01 -0.22642728139E+02 -0.12804688520E+02  0.95113030949E+02  0.91466069162E+02 0.  0.
          5    1    1    2  502    0 -0.24731619593E+02 -0.44080016769E+02  0.50898702669E+02  0.71885108468E+02  0.47000000000E+01 0. -1.
         -5    1    1    2    0  502  0.26679352281E+02  0.66722744908E+02  0.25649653042E+02  0.76444144494E+02  0.47000000000E+01 0. -1.
        -11    1    3    3    0    0  0.34520128703E+01  0.18577079154E+02  0.29992842472E+02  0.35448481806E+02  0.00000000000E+00 0.  1.
         11    1    3    3    0    0 -0.53997455589E+01 -0.41219807293E+02 -0.42797530993E+02  0.59664549143E+02  0.00000000000E+00 0. -1.
<mgrwt>
<rscale>  0 0.11790989E+03</rscale>
<asrwt>0</asrwt>
<pdfrwt beam="2">  1        2 0.13822971E-01 0.12705084E+03</pdfrwt>
<pdfrwt beam="1">  1       -2 0.23629689E-01 0.12705084E+03</pdfrwt>
<totfact> 0.63704610E+03</totfact>
</mgrwt>
</event>
<event>
 7    1  0.5107591E-006  0.1651857E+03  0.7546771E-02  0.1190080E+00
          2   -1    0    0  501    0  0.00000000000E+00  0.00000000000E+00  0.17428288951E+03  0.17428288951E+03  0.00000000000E+00 0. -1.
         -2   -1    0    0    0  501 -0.00000000000E+00 -0.00000000000E+00 -0.17356936929E+03  0.17356936929E+03  0.00000000000E+00 0.  1.
         23    2    1    2    0    0  0.49351661474E+02  0.96047357860E+02  0.82658033157E+02  0.16345809217E+03  0.90694630538E+02 0.  0.
          5    1    1    2  502    0 -0.82710303256E+02 -0.25429550011E+02 -0.37648231395E+02  0.94483520286E+02  0.47000000000E+01 0.  1.
         -5    1    1    2    0  502  0.33358641781E+02 -0.70617807849E+02 -0.44296281543E+02  0.89910646340E+02  0.47000000000E+01 0.  1.
        -11    1    3    3    0    0  0.74282124223E+02  0.82146517087E+02  0.54778931387E+02  0.12355814652E+03  0.00000000000E+00 0.  1.
         11    1    3    3    0    0 -0.24930462749E+02  0.13900840773E+02  0.27879101769E+02  0.39899945645E+02  0.00000000000E+00 0. -1.
<mgrwt>
<rscale>  0 0.15878089E+03</rscale>
<asrwt>0</asrwt>
<pdfrwt beam="1">  1        2 0.26812752E-01 0.16518567E+03</pdfrwt>
<pdfrwt beam="2">  1       -2 0.26702980E-01 0.16518567E+03</pdfrwt>
<totfact> 0.24553628E+03</totfact>
</mgrwt>
</event>
<event>
 7    1  0.5107591E-006  0.1353693E+03  0.7546771E-02  0.1231577E+00
         -1   -1    0    0    0  501 -0.00000000000E+00  0.00000000000E+00  0.13083649986E+03  0.13083649986E+03  0.00000000000E+00 0.  1.
          1   -1    0    0  501    0  0.00000000000E+00 -0.00000000000E+00 -0.11728220038E+03  0.11728220038E+03  0.00000000000E+00 0. -1.
         23    2    1    2    0    0  0.39544047689E+02 -0.33702960287E+02 -0.22343234294E+02  0.10807053282E+03  0.92089080277E+02 0.  0.
          5    1    1    2  502    0 -0.50320388064E+02 -0.98330844031E+01  0.67563219418E+02  0.84945333138E+02  0.47000000000E+01 0. -1.
         -5    1    1    2    0  502  0.10776340374E+02  0.43536044690E+02 -0.31665685642E+02  0.55102834285E+02  0.47000000000E+01 0. -1.
        -11    1    3    3    0    0  0.36879567413E+02 -0.50530979184E+00 -0.51812911519E+02  0.63599808417E+02  0.00000000000E+00 0. -1.
         11    1    3    3    0    0  0.26644802760E+01 -0.33197650495E+02  0.29469677225E+02  0.44470724407E+02  0.00000000000E+00 0.  1.
<mgrwt>
<rscale>  0 0.12726106E+03</rscale>
<asrwt>0</asrwt>
<pdfrwt beam="2">  1        1 0.18043415E-01 0.13536933E+03</pdfrwt>
<pdfrwt beam="1">  1       -1 0.20128692E-01 0.13536933E+03</pdfrwt>
<totfact> 0.55505859E+03</totfact>
</mgrwt>
</event>
<event>
 7    1  0.5107591E-006  0.1302804E+03  0.7546771E-02  0.1234073E+00
         -3   -1    0    0    0  501 -0.00000000000E+00  0.00000000000E+00  0.42339175821E+03  0.42339175821E+03  0.00000000000E+00 0.  1.
          3   -1    0    0  501    0  0.00000000000E+00 -0.00000000000E+00 -0.46839326960E+02  0.46839326960E+02  0.00000000000E+00 0. -1.
         23    2    1    2    0    0 -0.51475459512E+02 -0.42442722772E+02  0.59445450800E+02  0.12740484558E+03  0.90813685138E+02 0.  0.
          5    1    1    2  502    0  0.84112310415E+02  0.14089993689E+02  0.18548234275E+03  0.20420381523E+03  0.47000000000E+01 0. -1.
         -5    1    1    2    0  502 -0.32636850903E+02  0.28352729084E+02  0.13162463770E+03  0.13862242436E+03  0.47000000000E+01 0.  1.
        -11    1    3    3    0    0 -0.68277255640E+02 -0.55948857094E+02  0.58359812743E+02  0.10582025322E+03  0.00000000000E+00 0.  1.
         11    1    3    3    0    0  0.16801796128E+02  0.13506134321E+02  0.10856380571E+01  0.21584592362E+02  0.00000000000E+00 0. -1.
<mgrwt>
<rscale>  0 0.12563983E+03</rscale>
<asrwt>0</asrwt>
<pdfrwt beam="2">  1        3 0.72060506E-02 0.13028044E+03</pdfrwt>
<pdfrwt beam="1">  1       -3 0.65137191E-01 0.13028044E+03</pdfrwt>
<totfact> 0.67453601E+02</totfact>
</mgrwt>
</event>
<event>
 7    1  0.5107591E-006  0.1606305E+03  0.7546771E-02  0.1195619E+00
          3   -1    0    0  501    0  0.00000000000E+00  0.00000000000E+00  0.66992338616E+02  0.66992338616E+02  0.00000000000E+00 0. -1.
         -3   -1    0    0    0  501 -0.00000000000E+00 -0.00000000000E+00 -0.34621444457E+03  0.34621444457E+03  0.00000000000E+00 0.  1.
         23    2    1    2    0    0 -0.84790700024E+02  0.54657612224E+02 -0.81112431917E+02  0.15815852612E+03  0.90873403092E+02 0.  0.
          5    1    1    2  502    0  0.10982202228E+03 -0.48420313985E+02 -0.19447206470E+03  0.22857575841E+03  0.47000000000E+01 0. -1.
         -5    1    1    2    0  502 -0.25031322260E+02 -0.62372982388E+01 -0.36376093436E+01  0.26472498657E+02  0.47000000000E+01 0. -1.
        -11    1    3    3    0    0 -0.14503479283E+02  0.51062868932E+02 -0.68496573633E+02  0.86657648793E+02  0.00000000000E+00 0.  1.
         11    1    3    3    0    0 -0.70287220741E+02  0.35947432923E+01 -0.12615858284E+02  0.71500877331E+02  0.00000000000E+00 0. -1.
<mgrwt>
<rscale>  0 0.15401966E+03</rscale>
<asrwt>0</asrwt>
<pdfrwt beam="1">  1        3 0.10306514E-01 0.16063054E+03</pdfrwt>
<pdfrwt beam="2">  1       -3 0.53263760E-01 0.16063054E+03</pdfrwt>
<totfact> 0.58521422E+02</totfact>
</mgrwt>
</event>
<event>
 7    1  0.5107591E-006  0.3006732E+03  0.7546771E-02  0.1086482E+00
          2   -1    0    0  501    0  0.00000000000E+00  0.00000000000E+00  0.98029345345E+03  0.98029345345E+03  0.00000000000E+00 0. -1.
         -2   -1    0    0    0  501 -0.00000000000E+00 -0.00000000000E+00 -0.89076161529E+02  0.89076161529E+02  0.00000000000E+00 0.  1.
         23    2    1    2    0    0 -0.26677981316E+03 -0.60067363159E+02  0.48062324591E+03  0.56045720149E+03  0.91290817544E+02 0.  0.
          5    1    1    2  502    0  0.81532824018E+01 -0.22139332014E+02  0.12537755337E+02  0.27127685947E+02  0.47000000000E+01 0. -1.
         -5    1    1    2    0  502  0.25862653076E+03  0.82206695173E+02  0.39805629068E+03  0.48178472754E+03  0.47000000000E+01 0. -1.
        -11    1    3    3    0    0 -0.23848403500E+03 -0.55300261891E+02  0.46985635689E+03  0.52980916378E+03  0.00000000000E+00 0. -1.
         11    1    3    3    0    0 -0.28295778167E+02 -0.47671012672E+01  0.10766889020E+02  0.30648037714E+02  0.00000000000E+00 0.  1.
<mgrwt>
<rscale>  0 0.29752950E+03</rscale>
<asrwt>0</asrwt>
<pdfrwt beam="1">  1        2 0.15081437E+00 0.30067320E+03</pdfrwt>
<pdfrwt beam="2">  1       -2 0.13704026E-01 0.30067320E+03</pdfrwt>
<totfact> 0.10746560E+03</totfact>
</mgrwt>
</event>
<event>
 7    1  0.5107591E-006  0.1594359E+03  0.7546771E-02  0.1196926E+00
         -2   -1    0    0    0  501 -0.00000000000E+00  0.00000000000E+00  0.38282667476E+02  0.38282667476E+02  0.00000000000E+00 0.  1.
          2   -1    0    0  501    0  0.00000000000E+00 -0.00000000000E+00 -0.56853170087E+03  0.56853170087E+03  0.00000000000E+00 0. -1.
         23    2    1    2    0    0 -0.97930394152E+02  0.14313656704E+02 -0.26374942545E+03  0.29626350497E+03  0.91722745743E+02 0.  0.
          5    1    1    2  502    0  0.19689032058E+02 -0.44950613016E+02 -0.19176416416E+03  0.19799949558E+03  0.47000000000E+01 0. -1.
         -5    1    1    2    0  502  0.78241362094E+02  0.30636956312E+02 -0.74735443785E+02  0.11255136779E+03  0.47000000000E+01 0. -1.
        -11    1    3    3    0    0 -0.91179036887E+02 -0.16436870669E+02 -0.23863953070E+03  0.25599338487E+03  0.00000000000E+00 0. -1.
         11    1    3    3    0    0 -0.67513572650E+01  0.30750527373E+02 -0.25109894749E+02  0.40270120101E+02  0.00000000000E+00 0.  1.
<mgrwt>
<rscale>  0 0.15292315E+03</rscale>
<asrwt>0</asrwt>
<pdfrwt beam="2">  1        2 0.87466407E-01 0.15943587E+03</pdfrwt>
<pdfrwt beam="1">  1       -2 0.58896417E-02 0.15943587E+03</pdfrwt>
<totfact> 0.79169070E+03</totfact>
</mgrwt>
</event>
<event>
 7    1  0.5107591E-006  0.1325938E+03  0.7546771E-02  0.1236737E+00
          2   -1    0    0  501    0  0.00000000000E+00  0.00000000000E+00  0.69896933451E+02  0.69896933451E+02  0.00000000000E+00 0. -1.
         -2   -1    0    0    0  501 -0.00000000000E+00 -0.00000000000E+00 -0.21713712557E+03  0.21713712557E+03  0.00000000000E+00 0.  1.
         23    2    1    2    0    0 -0.43927298289E+02  0.51929784920E+01 -0.19822544842E+02  0.10314179974E+03  0.91042424222E+02 0.  0.
          5    1    1    2  502    0  0.96572772793E+01  0.57381476058E+02 -0.75960630258E+02  0.95801900546E+02  0.47000000000E+01 0. -1.
         -5    1    1    2    0  502  0.34270021009E+02 -0.62574454550E+02 -0.51457017019E+02  0.88090358739E+02  0.47000000000E+01 0. -1.
        -11    1    3    3    0    0  0.13968492733E+02 -0.20271634900E+02  0.17035211769E+02  0.29937541829E+02  0.00000000000E+00 0.  1.
         11    1    3    3    0    0 -0.57895791022E+02  0.25464613392E+02 -0.36857756611E+02  0.73204257907E+02  0.00000000000E+00 0. -1.
<mgrwt>
<rscale>  0 0.12393897E+03</rscale>
<asrwt>0</asrwt>
<pdfrwt beam="1">  1        2 0.10753374E-01 0.13259376E+03</pdfrwt>
<pdfrwt beam="2">  1       -2 0.33405711E-01 0.13259376E+03</pdfrwt>
<totfact> 0.46651637E+03</totfact>
</mgrwt>
</event>
<event>
 7    1  0.5107591E-006  0.1365719E+03  0.7546771E-02  0.1229653E+00
          2   -1    0    0  501    0  0.00000000000E+00  0.00000000000E+00  0.11637237806E+03  0.11637237806E+03  0.00000000000E+00 0. -1.
         -2   -1    0    0    0  501 -0.00000000000E+00 -0.00000000000E+00 -0.13127290769E+03  0.13127290769E+03  0.00000000000E+00 0.  1.
         23    2    1    2    0    0 -0.50604172829E+02  0.21588196321E+02  0.14004220303E+02  0.10804811470E+03  0.91931737582E+02 0.  0.
          5    1    1    2  502    0  0.63642465310E+02  0.37382869371E+02 -0.39004482608E+01  0.74061770231E+02  0.47000000000E+01 0.  1.
         -5    1    1    2    0  502 -0.13038292481E+02 -0.58971065692E+02 -0.25004301665E+02  0.65535400826E+02  0.47000000000E+01 0.  1.
        -11    1    3    3    0    0 -0.34469759310E+02  0.38320377958E+02 -0.29017109462E+02  0.59149034779E+02  0.00000000000E+00 0.  1.
         11    1    3    3    0    0 -0.16134413519E+02 -0.16732181637E+02  0.43021329765E+02  0.48899079916E+02  0.00000000000E+00 0. -1.
<mgrwt>
<rscale>  0 0.12853033E+03</rscale>
<asrwt>0</asrwt>
<pdfrwt beam="1">  1        2 0.17903443E-01 0.13657191E+03</pdfrwt>
<pdfrwt beam="2">  1       -2 0.20195832E-01 0.13657191E+03</pdfrwt>
<totfact> 0.62018278E+03</totfact>
</mgrwt>
</event>
<event>
 7    1  0.5107591E-006  0.1475494E+03  0.7546771E-02  0.1213541E+00
          1   -1    0    0  501    0  0.00000000000E+00  0.00000000000E+00  0.97474519847E+02  0.97474519847E+02  0.00000000000E+00 0. -1.
         -1   -1    0    0    0  501 -0.00000000000E+00 -0.00000000000E+00 -0.18778812454E+03  0.18778812454E+03  0.00000000000E+00 0.  1.
         23    2    1    2    0    0  0.37795953897E+02 -0.68674376224E+02 -0.16215866282E+02  0.12015264675E+03  0.89604688055E+02 0.  0.
          5    1    1    2  502    0 -0.82892247990E+02  0.55498823237E+02 -0.44097988761E+02  0.10916944064E+03  0.47000000000E+01 0.  1.
         -5    1    1    2    0  502  0.45096294093E+02  0.13175552987E+02 -0.29999749647E+02  0.55940556990E+02  0.47000000000E+01 0.  1.
        -11    1    3    3    0    0 -0.62966945195E+01 -0.10527887499E+02 -0.41225660193E+02  0.43012089410E+02  0.00000000000E+00 0.  1.
         11    1    3    3    0    0  0.44092648417E+02 -0.58146488725E+02  0.25009793911E+02  0.77140557342E+02  0.00000000000E+00 0. -1.
<mgrwt>
<rscale>  0 0.13984231E+03</rscale>
<asrwt>0</asrwt>
<pdfrwt beam="1">  1        1 0.14996080E-01 0.14754944E+03</pdfrwt>
<pdfrwt beam="2">  1       -1 0.28890481E-01 0.14754944E+03</pdfrwt>
<totfact> 0.39165804E+03</totfact>
</mgrwt>
</event>
<event>
 7    1  0.5107591E-006  0.1263034E+03  0.7546771E-02  0.1243533E+00
          2   -1    0    0  501    0  0.00000000000E+00  0.00000000000E+00  0.27683417422E+03  0.27683417422E+03  0.00000000000E+00 0. -1.
         -2   -1    0    0    0  501 -0.00000000000E+00 -0.00000000000E+00 -0.63880374236E+02  0.63880374236E+02  0.00000000000E+00 0.  1.
         23    2    1    2    0    0 -0.46913712825E+02  0.84529639049E+01  0.18513985421E+03  0.21138485106E+03  0.90191133655E+02 0.  0.
          5    1    1    2  502    0  0.55948106412E+02  0.32031719139E+02  0.50307510611E+02  0.81909445523E+02  0.47000000000E+01 0. -1.
         -5    1    1    2    0  502 -0.90343935862E+01 -0.40484683044E+02 -0.22493564838E+02  0.47420251874E+02  0.47000000000E+01 0.  1.
        -11    1    3    3    0    0 -0.12142073866E+02  0.38074019435E+02  0.30878824655E+02  0.50503096200E+02  0.00000000000E+00 0. -1.
         11    1    3    3    0    0 -0.34771638959E+02 -0.29621055530E+02  0.15426102955E+03  0.16088175486E+03  0.00000000000E+00 0.  1.
<mgrwt>
<rscale>  0 0.11973633E+03</rscale>
<asrwt>0</asrwt>
<pdfrwt beam="1">  1        2 0.42589872E-01 0.12630342E+03</pdfrwt>
<pdfrwt beam="2">  1       -2 0.98277500E-02 0.12630342E+03</pdfrwt>
<totfact> 0.76969017E+03</totfact>
</mgrwt>
</event>
<event>
 7    1  0.5107591E-006  0.1254970E+03  0.7546771E-02  0.1246587E+00
         -2   -1    0    0    0  501 -0.00000000000E+00  0.00000000000E+00  0.49102633224E+02  0.49102633224E+02  0.00000000000E+00 0.  1.
          2   -1    0    0  501    0  0.00000000000E+00 -0.00000000000E+00 -0.26327674683E+03  0.26327674683E+03  0.00000000000E+00 0. -1.
         23    2    1    2    0    0 -0.10771534281E+02 -0.30832080001E+01 -0.12362764311E+03  0.15762746154E+03  0.97144687799E+02 0.  0.
          5    1    1    2  502    0 -0.31415731361E+02 -0.31552678118E+02  0.45494519319E+01  0.45003413051E+02  0.47000000000E+01 0.  1.
         -5    1    1    2    0  502  0.42187265642E+02  0.34635886118E+02 -0.95095922432E+02  0.10974850547E+03  0.47000000000E+01 0.  1.
        -11    1    3    3    0    0  0.50335235897E+01 -0.37339528407E+02 -0.11197254451E+03  0.11814155690E+03  0.00000000000E+00 0. -1.
         11    1    3    3    0    0 -0.15805057870E+02  0.34256320407E+02 -0.11655098600E+02  0.39485904643E+02  0.00000000000E+00 0.  1.
<mgrwt>
<rscale>  0 0.11790904E+03</rscale>
<asrwt>0</asrwt>
<pdfrwt beam="2">  1        2 0.40504114E-01 0.12549698E+03</pdfrwt>
<pdfrwt beam="1">  1       -2 0.75542514E-02 0.12549698E+03</pdfrwt>
<totfact> 0.12198201E+04</totfact>
</mgrwt>
</event>
<event>
 7    1  0.5107591E-006  0.2509721E+03  0.7546771E-02  0.1114839E+00
         -2   -1    0    0    0  501 -0.00000000000E+00  0.00000000000E+00  0.12735651203E+03  0.12735651203E+03  0.00000000000E+00 0.  1.
          2   -1    0    0  501    0  0.00000000000E+00 -0.00000000000E+00 -0.46878414128E+03  0.46878414128E+03  0.00000000000E+00 0. -1.
         23    2    1    2    0    0 -0.39275470149E+02 -0.21406290291E+03 -0.16440317276E+03  0.28901748161E+03  0.95588767683E+02 0.  0.
          5    1    1    2  502    0 -0.26500627196E+02  0.14874497340E+03 -0.14353029905E+03  0.20844756438E+03  0.47000000000E+01 0. -1.
         -5    1    1    2    0  502  0.65776097344E+02  0.65317929512E+02 -0.33494157440E+02  0.98675607321E+02  0.47000000000E+01 0. -1.
        -11    1    3    3    0    0  0.13317306787E+02 -0.52645432203E+02 -0.24031373269E+01  0.54356851095E+02  0.00000000000E+00 0. -1.
         11    1    3    3    0    0 -0.52592776936E+02 -0.16141747070E+03 -0.16200003543E+03  0.23466063052E+03  0.00000000000E+00 0.  1.
<mgrwt>
<rscale>  0 0.24758693E+03</rscale>
<asrwt>0</asrwt>
<pdfrwt beam="2">  1        2 0.72120638E-01 0.25097208E+03</pdfrwt>
<pdfrwt beam="1">  1       -2 0.19593309E-01 0.25097208E+03</pdfrwt>
<totfact> 0.14558169E+03</totfact>
</mgrwt>
</event>
<event>
 7    1  0.5107591E-006  0.1381839E+03  0.7546771E-02  0.1227068E+00
         -1   -1    0    0    0  501 -0.00000000000E+00  0.00000000000E+00  0.82956196647E+02  0.82956196647E+02  0.00000000000E+00 0.  1.
          1   -1    0    0  501    0  0.00000000000E+00 -0.00000000000E+00 -0.18469464229E+03  0.18469464229E+03  0.00000000000E+00 0. -1.
         23    2    1    2    0    0 -0.58684622384E+02 -0.14117231363E+01 -0.50980822428E+02  0.12043966285E+03  0.91982554141E+02 0.  0.
          5    1    1    2  502    0  0.11151330598E+02  0.59308074628E+02 -0.86359515133E+01  0.61143025348E+02  0.47000000000E+01 0.  1.
         -5    1    1    2    0  502  0.47533291786E+02 -0.57896351492E+02 -0.42121671701E+02  0.86068150735E+02  0.47000000000E+01 0.  1.
        -11    1    3    3    0    0 -0.55230231947E+02 -0.15723484736E+02 -0.73660961867E+02  0.93399913256E+02  0.00000000000E+00 0. -1.
         11    1    3    3    0    0 -0.34543904369E+01  0.14311761600E+02  0.22680139438E+02  0.27039749598E+02  0.00000000000E+00 0.  1.
<mgrwt>
<rscale>  0 0.13026175E+03</rscale>
<asrwt>0</asrwt>
<pdfrwt beam="2">  1        1 0.28414560E-01 0.13818391E+03</pdfrwt>
<pdfrwt beam="1">  1       -1 0.12762492E-01 0.13818391E+03</pdfrwt>
<totfact> 0.64243421E+03</totfact>
</mgrwt>
</event>
<event>
 7    1  0.5107591E-006  0.1353786E+03  0.7546771E-02  0.1228787E+00
          1   -1    0    0  501    0  0.00000000000E+00  0.00000000000E+00  0.22230446408E+03  0.22230446408E+03  0.00000000000E+00 0. -1.
         -1   -1    0    0    0  501 -0.00000000000E+00 -0.00000000000E+00 -0.68905901956E+02  0.68905901956E+02  0.00000000000E+00 0.  1.
         23    2    1    2    0    0  0.51856641957E+02 -0.35623949310E+01  0.64059818106E+02  0.12901057477E+03  0.99188034233E+02 0.  0.
          5    1    1    2  502    0 -0.44492953438E+02 -0.31223349471E+02  0.10856698869E+03  0.12150473855E+03  0.47000000000E+01 0.  1.
         -5    1    1    2    0  502 -0.73636885190E+01  0.34785744402E+02 -0.19228244668E+02  0.40695052712E+02  0.47000000000E+01 0.  1.
        -11    1    3    3    0    0  0.32174526004E+02 -0.42110562002E+02  0.15993442534E+01  0.53019406426E+02  0.00000000000E+00 0. -1.
         11    1    3    3    0    0  0.19682115953E+02  0.38548167071E+02  0.62460473853E+02  0.75991168348E+02  0.00000000000E+00 0.  1.
<mgrwt>
<rscale>  0 0.12910705E+03</rscale>
<asrwt>0</asrwt>
<pdfrwt beam="1">  1        1 0.34200686E-01 0.13537858E+03</pdfrwt>
<pdfrwt beam="2">  1       -1 0.10600908E-01 0.13537858E+03</pdfrwt>
<totfact> 0.67819095E+03</totfact>
</mgrwt>
</event>
<event>
 7    1  0.5107591E-006  0.2006579E+03  0.7546771E-02  0.1153537E+00
          2   -1    0    0  501    0  0.00000000000E+00  0.00000000000E+00  0.46919622931E+03  0.46919622931E+03  0.00000000000E+00 0. -1.
         -2   -1    0    0    0  501 -0.00000000000E+00 -0.00000000000E+00 -0.80917824123E+02  0.80917824123E+02  0.00000000000E+00 0.  1.
         23    2    1    2    0    0  0.12484158017E+03  0.95149143449E+02  0.12919215992E+03  0.22241102141E+03  0.90206810285E+02 0.  0.
          5    1    1    2  502    0 -0.98328315813E+02 -0.35169506364E+02  0.65748457822E+02  0.12349211139E+03  0.47000000000E+01 0. -1.
         -5    1    1    2    0  502 -0.26513264360E+02 -0.59979637085E+02  0.19333778745E+03  0.20421092063E+03  0.47000000000E+01 0. -1.
        -11    1    3    3    0    0  0.52902749496E+02  0.56694902960E+02  0.10297862923E+02  0.78224413750E+02  0.00000000000E+00 0.  1.
         11    1    3    3    0    0  0.71938830678E+02  0.38454240489E+02  0.11889429699E+03  0.14418660766E+03  0.00000000000E+00 0. -1.
<mgrwt>
<rscale>  0 0.19556304E+03</rscale>
<asrwt>0</asrwt>
<pdfrwt beam="1">  1        2 0.72184034E-01 0.20065790E+03</pdfrwt>
<pdfrwt beam="2">  1       -2 0.12448896E-01 0.20065790E+03</pdfrwt>
<totfact> 0.30732161E+03</totfact>
</mgrwt>
</event>
<event>
 7    1  0.5107591E-006  0.1271719E+03  0.7546771E-02  0.1246659E+00
         -1   -1    0    0    0  501 -0.00000000000E+00  0.00000000000E+00  0.38391842657E+02  0.38391842657E+02  0.00000000000E+00 0.  1.
          1   -1    0    0  501    0  0.00000000000E+00 -0.00000000000E+00 -0.31843921171E+03  0.31843921171E+03  0.00000000000E+00 0. -1.
         23    2    1    2    0    0 -0.23232824709E+02 -0.27443990185E+01 -0.11296345124E+03  0.14685551340E+03  0.90876315002E+02 0.  0.
          5    1    1    2  502    0  0.36256246808E+02 -0.17361163303E+02  0.64690233480E+00  0.40477572883E+02  0.47000000000E+01 0. -1.
         -5    1    1    2    0  502 -0.13023422098E+02  0.20105562322E+02 -0.16773082015E+03  0.16949796809E+03  0.47000000000E+01 0. -1.
        -11    1    3    3    0    0 -0.37872853795E+02 -0.39032635417E+02 -0.59631285353E+02  0.80708053347E+02  0.00000000000E+00 0.  1.
         11    1    3    3    0    0  0.14640029086E+02  0.36288236398E+02 -0.53332165891E+02  0.66147460051E+02  0.00000000000E+00 0. -1.
<mgrwt>
<rscale>  0 0.11786625E+03</rscale>
<asrwt>0</asrwt>
<pdfrwt beam="2">  1        1 0.48990648E-01 0.12717190E+03</pdfrwt>
<pdfrwt beam="1">  1       -1 0.59064373E-02 0.12717190E+03</pdfrwt>
<totfact> 0.10455347E+04</totfact>
</mgrwt>
</event>
<event>
 7    1  0.5107591E-006  0.1317640E+03  0.7546771E-02  0.1239227E+00
          2   -1    0    0  501    0  0.00000000000E+00  0.00000000000E+00  0.18211799270E+02  0.18211799270E+02  0.00000000000E+00 0. -1.
         -2   -1    0    0    0  501 -0.00000000000E+00 -0.00000000000E+00 -0.75212594151E+03  0.75212594151E+03  0.00000000000E+00 0.  1.
         23    2    1    2    0    0 -0.23238862588E+01 -0.41590003681E+02 -0.24258710415E+03  0.26164921612E+03  0.88750663899E+02 0.  0.
          5    1    1    2  502    0  0.37463381020E+02 -0.27894695840E+02 -0.26920169346E+03  0.27326408607E+03  0.47000000000E+01 0. -1.
         -5    1    1    2    0  502 -0.35139494762E+02  0.69484699520E+02 -0.22212534462E+03  0.23542443859E+03  0.47000000000E+01 0. -1.
        -11    1    3    3    0    0  0.12910879794E+02 -0.61633351268E+02 -0.21617704761E+03  0.22516189003E+03  0.00000000000E+00 0.  1.
         11    1    3    3    0    0 -0.15234766053E+02  0.20043347587E+02 -0.26410056541E+02  0.36487326096E+02  0.00000000000E+00 0. -1.
<mgrwt>
<rscale>  0 0.12237657E+03</rscale>
<asrwt>0</asrwt>
<pdfrwt beam="1">  1        2 0.28018157E-02 0.13176402E+03</pdfrwt>
<pdfrwt beam="2">  1       -2 0.11571166E+00 0.13176402E+03</pdfrwt>
<totfact> 0.19953148E+03</totfact>
</mgrwt>
</event>
<event>
 6    1  0.5107591E-006  0.1391195E+03  0.7546771E-02  0.1242443E+00
          1   -1    0    0  501    0  0.00000000000E+00  0.00000000000E+00  0.88239237693E+02  0.88239237693E+02  0.00000000000E+00 0. -1.
         -1   -1    0    0    0  501 -0.00000000000E+00 -0.00000000000E+00 -0.13391582670E+03  0.13391582670E+03  0.00000000000E+00 0.  1.
          5    1    1    2  502    0  0.33911430673E+02 -0.21769957531E+02 -0.81626759197E+02  0.91153354290E+02  0.47000000000E+01 0.  1.
         -5    1    1    2    0  502  0.13117118680E+02 -0.17086489968E+02  0.47258541800E+02  0.52148506354E+02  0.47000000000E+01 0.  1.
        -11    1    1    2    0    0 -0.33734350153E+02  0.22335235085E+02 -0.30173183707E+02  0.50470685765E+02  0.00000000000E+00 0.  1.
         11    1    1    2    0    0 -0.13294199201E+02  0.16521212414E+02  0.18864812093E+02  0.28382517988E+02  0.00000000000E+00 0. -1.
<mgrwt>
<rscale>  0 0.12039760E+03</rscale>
<asrwt>0</asrwt>
<pdfrwt beam="1">  1        1 0.13575267E-01 0.13911955E+03</pdfrwt>
<pdfrwt beam="2">  1       -1 0.20602435E-01 0.13911955E+03</pdfrwt>
<totfact> 0.77352896E+03</totfact>
</mgrwt>
</event>
<event>
 7    1  0.5107591E-006  0.2371360E+03  0.7546771E-02  0.1124535E+00
         -2   -1    0    0    0  501 -0.00000000000E+00  0.00000000000E+00  0.18095961548E+03  0.18095961548E+03  0.00000000000E+00 0.  1.
          2   -1    0    0  501    0  0.00000000000E+00 -0.00000000000E+00 -0.47615923545E+03  0.47615923545E+03  0.00000000000E+00 0. -1.
         23    2    1    2    0    0  0.84195461738E+02 -0.18311429976E+03 -0.34977348608E+03  0.41378412987E+03  0.90863039882E+02 0.  0.
          5    1    1    2  502    0 -0.27409968446E+02  0.41250297934E+02 -0.39767003180E+02  0.63689857841E+02  0.47000000000E+01 0.  1.
         -5    1    1    2    0  502 -0.56785493292E+02  0.14186400183E+03  0.94340869278E+02  0.17964486322E+03  0.47000000000E+01 0.  1.
        -11    1    3    3    0    0  0.51988844598E+02 -0.82819302324E+02 -0.87771948474E+02  0.13139935974E+03  0.00000000000E+00 0.  1.
         11    1    3    3    0    0  0.32206617141E+02 -0.10029499744E+03 -0.26200153760E+03  0.28238477014E+03  0.00000000000E+00 0. -1.
<mgrwt>
<rscale>  0 0.23301553E+03</rscale>
<asrwt>0</asrwt>
<pdfrwt beam="2">  1        2 0.73255266E-01 0.23713599E+03</pdfrwt>
<pdfrwt beam="1">  1       -2 0.27839941E-01 0.23713599E+03</pdfrwt>
<totfact> 0.77301353E+02</totfact>
</mgrwt>
</event>
<event>
 7    1  0.5107591E-006  0.1278853E+03  0.7546771E-02  0.1242831E+00
         -2   -1    0    0    0  501 -0.00000000000E+00  0.00000000000E+00  0.46660729933E+02  0.46660729933E+02  0.00000000000E+00 0. -1.
          2   -1    0    0  501    0  0.00000000000E+00 -0.00000000000E+00 -0.41647096366E+03  0.41647096366E+03  0.00000000000E+00 0.  1.
         23    2    1    2    0    0 -0.25056946839E+02 -0.10051159733E+02 -0.30273710340E+03  0.31872441961E+03  0.95951161967E+02 0.  0.
          5    1    1    2  502    0 -0.61664096549E+01 -0.51872392811E+02 -0.77366549534E+01  0.53016182188E+02  0.47000000000E+01 0.  1.
         -5    1    1    2    0  502  0.31223356494E+02  0.61923552544E+02 -0.59336475379E+02  0.91391091802E+02  0.47000000000E+01 0.  1.
        -11    1    3    3    0    0  0.36320513727E+02 -0.89984867230E+01 -0.94874549895E+02  0.10198692415E+03  0.00000000000E+00 0.  1.
         11    1    3    3    0    0 -0.61377460566E+02 -0.10526730101E+01 -0.20786255350E+03  0.21673749545E+03  0.00000000000E+00 0. -1.
<mgrwt>
<rscale>  0 0.12016120E+03</rscale>
<asrwt>0</asrwt>
<pdfrwt beam="2">  1        2 0.64072454E-01 0.12788532E+03</pdfrwt>
<pdfrwt beam="1">  1       -2 0.71785740E-02 0.12788532E+03</pdfrwt>
<totfact> 0.81235855E+03</totfact>
</mgrwt>
</event>
<event>
 7    1  0.5107591E-006  0.2684138E+03  0.7546771E-02  0.1102191E+00
          1   -1    0    0  501    0  0.00000000000E+00  0.00000000000E+00  0.22746352966E+03  0.22746352966E+03  0.00000000000E+00 0. -1.
         -1   -1    0    0    0  501 -0.00000000000E+00 -0.00000000000E+00 -0.79184078901E+02  0.79184078901E+02  0.00000000000E+00 0.  1.
         23    2    1    2    0    0 -0.24971161752E+02 -0.65428343254E+02  0.10375144915E+03  0.15543517295E+03  0.92148265137E+02 0.  0.
          5    1    1    2  502    0  0.13987110195E+02  0.29654243949E+02  0.87782497548E+02  0.93823612761E+02  0.47000000000E+01 0. -1.
         -5    1    1    2    0  502  0.10984051557E+02  0.35774099305E+02 -0.43254495939E+02  0.57388822855E+02  0.47000000000E+01 0. -1.
        -11    1    3    3    0    0 -0.16002605968E+02  0.10698818525E+02 -0.72235152677E+01  0.20560332886E+02  0.00000000000E+00 0.  1.
         11    1    3    3    0    0 -0.89685557839E+01 -0.76127161778E+02  0.11097496442E+03  0.13487484006E+03  0.00000000000E+00 0. -1.
<mgrwt>
<rscale>  0 0.26841379E+03</rscale>
<asrwt>0</asrwt>
<pdfrwt beam="1">  1        1 0.34994389E-01 0.26841379E+03</pdfrwt>
<pdfrwt beam="2">  1       -1 0.12182166E-01 0.26841379E+03</pdfrwt>
<totfact> 0.55235848E+03</totfact>
</mgrwt>
</event>
<event>
 6    1  0.5107591E-006  0.2061992E+03  0.7546771E-02  0.1164230E+00
          2   -1    0    0  501    0  0.00000000000E+00  0.00000000000E+00  0.28435430528E+03  0.28435430528E+03  0.00000000000E+00 0. -1.
         -2   -1    0    0    0  501 -0.00000000000E+00 -0.00000000000E+00 -0.22373511561E+03  0.22373511561E+03  0.00000000000E+00 0.  1.
          5    1    1    2  502    0 -0.89071565609E+01  0.24578603659E+02  0.34564316399E+02  0.43591595107E+02  0.47000000000E+01 0. -1.
         -5    1    1    2    0  502 -0.29482269887E+02  0.96257422281E+02 -0.18842917196E+03  0.21368747841E+03  0.47000000000E+01 0.  1.
        -11    1    1    2    0    0  0.14139045305E+02 -0.13846172490E+02  0.41429846933E+02  0.45913628822E+02  0.00000000000E+00 0.  1.
         11    1    1    2    0    0  0.24250381143E+02 -0.10698985345E+03  0.17305419829E+03  0.20489671855E+03  0.00000000000E+00 0. -1.
<mgrwt>
<rscale>  0 0.18374221E+03</rscale>
<asrwt>0</asrwt>
<pdfrwt beam="1">  1        2 0.43746816E-01 0.20619924E+03</pdfrwt>
<pdfrwt beam="2">  1       -2 0.34420787E-01 0.20619924E+03</pdfrwt>
<totfact> 0.91702618E+02</totfact>
</mgrwt>
</event>
<event>
 7    1  0.5107591E-006  0.2298285E+03  0.7546771E-02  0.1129932E+00
          2   -1    0    0  501    0  0.00000000000E+00  0.00000000000E+00  0.10987330522E+04  0.10987330522E+04  0.00000000000E+00 0. -1.
         -2   -1    0    0    0  501 -0.00000000000E+00 -0.00000000000E+00 -0.48073846297E+02  0.48073846297E+02  0.00000000000E+00 0.  1.
         23    2    1    2    0    0  0.71966513171E+02  0.17893372114E+03  0.66191899419E+03  0.69520962424E+03  0.89348817476E+02 0.  0.
          5    1    1    2  502    0 -0.14700799321E+02 -0.50135056423E+01 -0.52957026930E+01  0.17069950396E+02  0.47000000000E+01 0.  1.
         -5    1    1    2    0  502 -0.57265713850E+02 -0.17392021550E+03  0.39403591441E+03  0.43452732387E+03  0.47000000000E+01 0.  1.
        -11    1    3    3    0    0 -0.20328703724E+02  0.40313418201E+02  0.16853275877E+03  0.17447555319E+03  0.00000000000E+00 0. -1.
         11    1    3    3    0    0  0.92295216896E+02  0.13862030294E+03  0.49338623542E+03  0.52073407105E+03  0.00000000000E+00 0.  1.
<mgrwt>
<rscale>  0 0.22538282E+03</rscale>
<asrwt>0</asrwt>
<pdfrwt beam="1">  1        2 0.16903584E+00 0.22982851E+03</pdfrwt>
<pdfrwt beam="2">  1       -2 0.73959772E-02 0.22982851E+03</pdfrwt>
<totfact> 0.24418394E+03</totfact>
</mgrwt>
</event>
<event>
 7    1  0.5107591E-006  0.1371612E+03  0.7546771E-02  0.1231493E+00
          2   -1    0    0  501    0  0.00000000000E+00  0.00000000000E+00  0.45173591466E+03  0.45173591466E+03  0.00000000000E+00 0. -1.
         -2   -1    0    0    0  501 -0.00000000000E+00 -0.00000000000E+00 -0.45231727036E+02  0.45231727036E+02  0.00000000000E+00 0.  1.
         23    2    1    2    0    0 -0.46752959768E+02 -0.31653096044E+02  0.31757826293E+03  0.33350200231E+03  0.84734141414E+02 0.  0.
          5    1    1    2  502    0  0.86762120628E+02  0.24705798515E+02  0.37591125631E+02  0.97842857595E+02  0.47000000000E+01 0. -1.
         -5    1    1    2    0  502 -0.40009160860E+02  0.69472975292E+01  0.51334799068E+02  0.65622781799E+02  0.47000000000E+01 0. -1.
        -11    1    3    3    0    0 -0.41598824021E+01  0.10262958512E+02  0.76322732765E+00  0.11100245717E+02  0.00000000000E+00 0.  1.
         11    1    3    3    0    0 -0.42593077366E+02 -0.41916054557E+02  0.31681503560E+03  0.32240175659E+03  0.00000000000E+00 0. -1.
<mgrwt>
<rscale>  0 0.12731612E+03</rscale>
<asrwt>0</asrwt>
<pdfrwt beam="1">  1        2 0.69497830E-01 0.13716120E+03</pdfrwt>
<pdfrwt beam="2">  1       -2 0.69587276E-02 0.13716120E+03</pdfrwt>
<totfact> 0.78420512E+03</totfact>
</mgrwt>
</event>
<event>
 7    1  0.5107591E-006  0.2389898E+03  0.7546771E-02  0.1150992E+00
         -2   -1    0    0    0  501 -0.00000000000E+00  0.00000000000E+00  0.43149176479E+02  0.43149176479E+02  0.00000000000E+00 0.  1.
          2   -1    0    0  501    0  0.00000000000E+00 -0.00000000000E+00 -0.74874062908E+03  0.74874062908E+03  0.00000000000E+00 0. -1.
         23    2    1    2    0    0  0.99448078572E+01  0.64135727643E+02 -0.30358858230E+03  0.32421209332E+03  0.93462096002E+02 0.  0.
          5    1    1    2  502    0  0.13206219885E+02  0.23497639409E+01 -0.39666379494E+03  0.39691835666E+03  0.47000000000E+01 0. -1.
         -5    1    1    2    0  502 -0.23151027742E+02 -0.66485491584E+02 -0.53390753598E+01  0.70759355582E+02  0.47000000000E+01 0.  1.
        -11    1    3    3    0    0 -0.83323094685E+01  0.66741022975E+02 -0.29713887203E+03  0.30465603687E+03  0.00000000000E+00 0. -1.
         11    1    3    3    0    0  0.18277117326E+02 -0.26052953318E+01 -0.64497102727E+01  0.19556056456E+02  0.00000000000E+00 0.  1.
<mgrwt>
<rscale>  0 0.19852152E+03</rscale>
<asrwt>0</asrwt>
<pdfrwt beam="2">  1        2 0.11519086E+00 0.23898982E+03</pdfrwt>
<pdfrwt beam="1">  1       -2 0.66383353E-02 0.23898982E+03</pdfrwt>
<totfact> 0.48466015E+03</totfact>
</mgrwt>
</event>
<event>
 7    1  0.5107591E-006  0.3602114E+03  0.7546771E-02  0.1059486E+00
         -2   -1    0    0    0  501 -0.00000000000E+00  0.00000000000E+00  0.34344226197E+02  0.34344226197E+02  0.00000000000E+00 0.  1.
          2   -1    0    0  501    0  0.00000000000E+00 -0.00000000000E+00 -0.36772872193E+04  0.36772872193E+04  0.00000000000E+00 0. -1.
         23    2    1    2    0    0 -0.33781824802E+03 -0.31739992573E+01 -0.17571478012E+04  0.17917419274E+04  0.92948890510E+02 0.  0.
          5    1    1    2  502    0  0.19899388442E+03 -0.30482503039E+02 -0.81065384177E+03  0.83529006351E+03  0.47000000000E+01 0. -1.
         -5    1    1    2    0  502  0.13882436359E+03  0.33656502296E+02 -0.10751413502E+04  0.10845994546E+04  0.47000000000E+01 0. -1.
        -11    1    3    3    0    0 -0.24462297087E+03  0.35762803783E+02 -0.13332357013E+04  0.13559634255E+04  0.00000000000E+00 0. -1.
         11    1    3    3    0    0 -0.93195277143E+02 -0.38936803040E+02 -0.42391209990E+03  0.43577850194E+03  0.00000000000E+00 0.  1.
<mgrwt>
<rscale>  0 0.35772966E+03</rscale>
<asrwt>0</asrwt>
<pdfrwt beam="2">  1        2 0.56573670E+00 0.36021140E+03</pdfrwt>
<pdfrwt beam="1">  1       -2 0.52837252E-02 0.36021140E+03</pdfrwt>
<totfact> 0.13444237E+02</totfact>
</mgrwt>
</event>
<event>
 7    1  0.5107591E-006  0.1399498E+03  0.7546771E-02  0.1224804E+00
          1   -1    0    0  501    0  0.00000000000E+00  0.00000000000E+00  0.23212991407E+03  0.23212991407E+03  0.00000000000E+00 0. -1.
         -1   -1    0    0    0  501 -0.00000000000E+00 -0.00000000000E+00 -0.70618459257E+02  0.70618459257E+02  0.00000000000E+00 0.  1.
         23    2    1    2    0    0  0.19576951865E+01 -0.62903754108E+02  0.10396518933E+03  0.15142907129E+03  0.90339848273E+02 0.  0.
          5    1    1    2  502    0  0.66345305884E+01  0.37951177520E+02  0.96511892791E+02  0.10402376806E+03  0.47000000000E+01 0. -1.
         -5    1    1    2    0  502 -0.85922257749E+01  0.24952576589E+02 -0.38965627315E+02  0.47295533978E+02  0.47000000000E+01 0. -1.
        -11    1    3    3    0    0 -0.25938087519E+02  0.85906710458E+01  0.52015713177E+02  0.58755582122E+02  0.00000000000E+00 0. -1.
         11    1    3    3    0    0  0.27895782706E+02 -0.71494425154E+02  0.51949476157E+02  0.92673489164E+02  0.00000000000E+00 0.  1.
<mgrwt>
<rscale>  0 0.13180325E+03</rscale>
<asrwt>0</asrwt>
<pdfrwt beam="1">  1        1 0.35712294E-01 0.13994984E+03</pdfrwt>
<pdfrwt beam="2">  1       -1 0.10864378E-01 0.13994984E+03</pdfrwt>
<totfact> 0.62039797E+03</totfact>
</mgrwt>
</event>
<event>
 7    1  0.5107591E-006  0.1251460E+03  0.7546771E-02  0.1251932E+00
          2   -1    0    0  501    0  0.00000000000E+00  0.00000000000E+00  0.25059617646E+02  0.25059617646E+02  0.00000000000E+00 0. -1.
         -2   -1    0    0    0  501 -0.00000000000E+00 -0.00000000000E+00 -0.50509836276E+03  0.50509836276E+03  0.00000000000E+00 0.  1.
         23    2    1    2    0    0 -0.57161022131E+01 -0.68308513984E+00 -0.12132623222E+03  0.15024194868E+03  0.88427643243E+02 0.  0.
          5    1    1    2  502    0 -0.33818379432E+02  0.67995028457E+01 -0.22841251576E+02  0.41638069119E+02  0.47000000000E+01 0.  1.
         -5    1    1    2    0  502  0.39534481646E+02 -0.61164177058E+01 -0.33587126131E+03  0.33827796260E+03  0.47000000000E+01 0.  1.
        -11    1    3    3    0    0  0.33334310737E+02 -0.23543441108E+02 -0.75597918462E+02  0.85909924731E+02  0.00000000000E+00 0.  1.
         11    1    3    3    0    0 -0.39050412950E+02  0.22860355968E+02 -0.45728313759E+02  0.64332023952E+02  0.00000000000E+00 0. -1.
<mgrwt>
<rscale>  0 0.11479933E+03</rscale>
<asrwt>0</asrwt>
<pdfrwt beam="1">  1        2 0.38553259E-02 0.12514601E+03</pdfrwt>
<pdfrwt beam="2">  1       -2 0.77707439E-01 0.12514601E+03</pdfrwt>
<totfact> 0.32064614E+03</totfact>
</mgrwt>
</event>
<event>
 7    1  0.5107591E-006  0.1530008E+03  0.7546771E-02  0.1207277E+00
         -2   -1    0    0    0  501 -0.00000000000E+00  0.00000000000E+00  0.39440737927E+02  0.39440737927E+02  0.00000000000E+00 0.  1.
          2   -1    0    0  501    0  0.00000000000E+00 -0.00000000000E+00 -0.59363608929E+03  0.59363608929E+03  0.00000000000E+00 0. -1.
         23    2    1    2    0    0  0.76405398715E+02  0.44299937715E+02 -0.38997769271E+03  0.40862931618E+03  0.84232106714E+02 0.  0.
          5    1    1    2  502    0  0.30593670631E+02  0.74528684227E+01 -0.51669579582E+02  0.60690636713E+02  0.47000000000E+01 0. -1.
         -5    1    1    2    0  502 -0.10699906935E+03 -0.51752806138E+02 -0.11254807907E+03  0.16375687432E+03  0.47000000000E+01 0. -1.
        -11    1    3    3    0    0 -0.14950734661E+02  0.19007293705E+02 -0.12216505990E+03  0.12453555131E+03  0.00000000000E+00 0.  1.
         11    1    3    3    0    0  0.91356133376E+02  0.25292644010E+02 -0.26781263281E+03  0.28409376487E+03  0.00000000000E+00 0. -1.
<mgrwt>
<rscale>  0 0.14459441E+03</rscale>
<asrwt>0</asrwt>
<pdfrwt beam="2">  1        2 0.91328628E-01 0.15300080E+03</pdfrwt>
<pdfrwt beam="1">  1       -2 0.60678059E-02 0.15300080E+03</pdfrwt>
<totfact> 0.71867790E+03</totfact>
</mgrwt>
</event>
<event>
 7    1  0.5107591E-006  0.1728038E+03  0.7546771E-02  0.1180974E+00
          2   -1    0    0  501    0  0.00000000000E+00  0.00000000000E+00  0.62956863061E+03  0.62956863061E+03  0.00000000000E+00 0. -1.
         -2   -1    0    0    0  501 -0.00000000000E+00 -0.00000000000E+00 -0.41609120441E+02  0.41609120441E+02  0.00000000000E+00 0.  1.
         23    2    1    2    0    0  0.93823320526E+02  0.73740032534E+02  0.27897862075E+03  0.31715751586E+03  0.92300656345E+02 0.  0.
          5    1    1    2  502    0 -0.11939551960E+03 -0.42553638873E+02  0.26710824436E+03  0.29569410966E+03  0.47000000000E+01 0. -1.
         -5    1    1    2    0  502  0.25572199069E+02 -0.31186393662E+02  0.41872645053E+02  0.58326125524E+02  0.47000000000E+01 0. -1.
        -11    1    3    3    0    0  0.12026107139E+02  0.21470183229E+02  0.32278103253E+01  0.24819645048E+02  0.00000000000E+00 0.  1.
         11    1    3    3    0    0  0.81797213387E+02  0.52269849305E+02  0.27575081042E+03  0.29233787082E+03  0.00000000000E+00 0. -1.
<mgrwt>
<rscale>  0 0.16703634E+03</rscale>
<asrwt>0</asrwt>
<pdfrwt beam="1">  1        2 0.96856706E-01 0.17280375E+03</pdfrwt>
<pdfrwt beam="2">  1       -2 0.64014036E-02 0.17280375E+03</pdfrwt>
<totfact> 0.62285447E+03</totfact>
</mgrwt>
</event>
<event>
 7    1  0.5107591E-006  0.1276628E+03  0.7546771E-02  0.1245361E+00
          2   -1    0    0  501    0  0.00000000000E+00  0.00000000000E+00  0.13371818585E+03  0.13371818585E+03  0.00000000000E+00 0. -1.
         -2   -1    0    0    0  501 -0.00000000000E+00 -0.00000000000E+00 -0.10033519362E+03  0.10033519362E+03  0.00000000000E+00 0.  1.
         23    2    1    2    0    0 -0.25244515457E+02 -0.59340524652E+01  0.46046900498E+02  0.10576399319E+03  0.91614445756E+02 0.  0.
          5    1    1    2  502    0  0.41196697761E+02 -0.31958749049E+02 -0.50119039975E+02  0.72474393514E+02  0.47000000000E+01 0. -1.
         -5    1    1    2    0  502 -0.15952182304E+02  0.37892801515E+02  0.37455131702E+02  0.55814992768E+02  0.47000000000E+01 0. -1.
        -11    1    3    3    0    0 -0.35533282500E+01 -0.17224539106E+02 -0.25034013474E+02  0.30594324959E+02  0.00000000000E+00 0.  1.
         11    1    3    3    0    0 -0.21691187207E+02  0.11290486641E+02  0.71080913973E+02  0.75169668233E+02  0.00000000000E+00 0. -1.
<mgrwt>
<rscale>  0 0.11863791E+03</rscale>
<asrwt>0</asrwt>
<pdfrwt beam="1">  1        2 0.20572029E-01 0.12766281E+03</pdfrwt>
<pdfrwt beam="2">  1       -2 0.15436184E-01 0.12766281E+03</pdfrwt>
<totfact> 0.82439693E+03</totfact>
</mgrwt>
</event>
<event>
 7    1  0.5107591E-006  0.1752124E+03  0.7546771E-02  0.1178469E+00
         -2   -1    0    0    0  501 -0.00000000000E+00  0.00000000000E+00  0.39333528207E+02  0.39333528207E+02  0.00000000000E+00 0.  1.
          2   -1    0    0  501    0  0.00000000000E+00 -0.00000000000E+00 -0.71276482337E+03  0.71276482337E+03  0.00000000000E+00 0. -1.
         23    2    1    2    0    0  0.11584212895E+03 -0.40687899837E+02 -0.38877868851E+03  0.41784321076E+03  0.91483201197E+02 0.  0.
          5    1    1    2  502    0 -0.26737396649E+01 -0.22956636440E+01  0.12250824507E+02  0.13586451209E+02  0.47000000000E+01 0.  1.
         -5    1    1    2    0  502 -0.11316838929E+03  0.42983563481E+02 -0.29690343115E+03  0.32066868961E+03  0.47000000000E+01 0.  1.
        -11    1    3    3    0    0  0.73861459402E+02  0.44646686316E+00 -0.10711556150E+03  0.13011325079E+03  0.00000000000E+00 0.  1.
         11    1    3    3    0    0  0.41980669549E+02 -0.41134366701E+02 -0.28166312701E+03  0.28772995996E+03  0.00000000000E+00 0. -1.
<mgrwt>
<rscale>  0 0.16940562E+03</rscale>
<asrwt>0</asrwt>
<pdfrwt beam="2">  1        2 0.10965612E+00 0.17521242E+03</pdfrwt>
<pdfrwt beam="1">  1       -2 0.60513123E-02 0.17521242E+03</pdfrwt>
<totfact> 0.58640227E+03</totfact>
</mgrwt>
</event>
<event>
 7    1  0.5107591E-006  0.1570995E+03  0.7546771E-02  0.1211805E+00
          1   -1    0    0  501    0  0.00000000000E+00  0.00000000000E+00  0.42641276692E+02  0.42641276692E+02  0.00000000000E+00 0. -1.
         -1   -1    0    0    0  501 -0.00000000000E+00 -0.00000000000E+00 -0.73423149759E+03  0.73423149759E+03  0.00000000000E+00 0.  1.
         23    2    1    2    0    0  0.45517682199E+02  0.13606466796E+02 -0.45579282446E+02  0.11203416688E+03  0.90648707820E+02 0.  0.
          5    1    1    2  502    0  0.27169222750E+02  0.41883963543E+02 -0.10777957117E+03  0.11887371041E+03  0.47000000000E+01 0. -1.
         -5    1    1    2    0  502 -0.72686904948E+02 -0.55490430339E+02 -0.53823136729E+03  0.54596489699E+03  0.47000000000E+01 0.  1.
        -11    1    3    3    0    0  0.13046504830E+02 -0.75486057840E+01 -0.66366506042E+02  0.68056637162E+02  0.00000000000E+00 0.  1.
         11    1    3    3    0    0  0.32471177369E+02  0.21155072580E+02  0.20787223596E+02  0.43977529722E+02  0.00000000000E+00 0. -1.
<mgrwt>
<rscale>  0 0.14113868E+03</rscale>
<asrwt>0</asrwt>
<pdfrwt beam="1">  1        1 0.65601966E-02 0.15709946E+03</pdfrwt>
<pdfrwt beam="2">  1       -1 0.11295869E+00 0.15709946E+03</pdfrwt>
<totfact> 0.86237317E+02</totfact>
</mgrwt>
</event>
<event>
 7    1  0.5107591E-006  0.1274436E+03  0.7546771E-02  0.1248096E+00
          1   -1    0    0  501    0  0.00000000000E+00  0.00000000000E+00  0.44849527957E+03  0.44849527957E+03  0.00000000000E+00 0. -1.
         -1   -1    0    0    0  501 -0.00000000000E+00 -0.00000000000E+00 -0.30489111123E+02  0.30489111123E+02  0.00000000000E+00 0.  1.
         23    2    1    2    0    0 -0.11671378299E+02 -0.21927264937E+02  0.26385489625E+03  0.27897319850E+03  0.87118386045E+02 0.  0.
          5    1    1    2  502    0  0.28574773968E+02  0.31311515493E+02  0.16956246894E+03  0.17484407220E+03  0.47000000000E+01 0. -1.
         -5    1    1    2    0  502 -0.16903395669E+02 -0.93842505564E+01 -0.15411196746E+02  0.25167119994E+02  0.47000000000E+01 0. -1.
        -11    1    3    3    0    0 -0.46409512662E+02 -0.11269690099E+02  0.19882293380E+03  0.20447837975E+03  0.00000000000E+00 0.  1.
         11    1    3    3    0    0  0.34738134363E+02 -0.10657574837E+02  0.65031962454E+02  0.74494818754E+02  0.00000000000E+00 0. -1.
<mgrwt>
<rscale>  0 0.11701973E+03</rscale>
<asrwt>0</asrwt>
<pdfrwt beam="1">  1        1 0.68999269E-01 0.12744357E+03</pdfrwt>
<pdfrwt beam="2">  1       -1 0.46906328E-02 0.12744357E+03</pdfrwt>
<totfact> 0.95738825E+03</totfact>
</mgrwt>
</event>
<event>
 7    1  0.5107591E-006  0.1266508E+03  0.7546771E-02  0.1247771E+00
         -1   -1    0    0    0  501 -0.00000000000E+00  0.00000000000E+00  0.27284656913E+03  0.27284656913E+03  0.00000000000E+00 0.  1.
          1   -1    0    0  501    0  0.00000000000E+00 -0.00000000000E+00 -0.45255055742E+02  0.45255055742E+02  0.00000000000E+00 0. -1.
         23    2    1    2    0    0 -0.18376507006E+02  0.89399305383E+01  0.72371346683E+02  0.11776757879E+03  0.90630968363E+02 0.  0.
          5    1    1    2  502    0  0.31669553336E+02 -0.17978643030E+02 -0.68910585070E+01  0.37359990646E+02  0.47000000000E+01 0. -1.
         -5    1    1    2    0  502 -0.13293046330E+02  0.90387124912E+01  0.16211122521E+03  0.16297405543E+03  0.47000000000E+01 0. -1.
        -11    1    3    3    0    0  0.62809438107E+01 -0.19781727327E+02 -0.12923898661E+02  0.24449829198E+02  0.00000000000E+00 0. -1.
         11    1    3    3    0    0 -0.24657450817E+02  0.28721657865E+02  0.85295245344E+02  0.93317749596E+02  0.00000000000E+00 0.  1.
<mgrwt>
<rscale>  0 0.11721073E+03</rscale>
<asrwt>0</asrwt>
<pdfrwt beam="2">  1        1 0.69623164E-02 0.12665082E+03</pdfrwt>
<pdfrwt beam="1">  1       -1 0.41976394E-01 0.12665082E+03</pdfrwt>
<totfact> 0.56394720E+03</totfact>
</mgrwt>
</event>
<event>
 7    1  0.5107591E-006  0.1482715E+03  0.7546771E-02  0.1212774E+00
          3   -1    0    0  501    0  0.00000000000E+00  0.00000000000E+00  0.82075041460E+03  0.82075041460E+03  0.00000000000E+00 0. -1.
         -3   -1    0    0    0  501 -0.00000000000E+00 -0.00000000000E+00 -0.28323947995E+02  0.28323947995E+02  0.00000000000E+00 0.  1.
         23    2    1    2    0    0  0.34442008600E+01 -0.79665477825E+02  0.56596277167E+03  0.57838960629E+03  0.88669199079E+02 0.  0.
          5    1    1    2  502    0 -0.31421205435E+00 -0.33063332461E+02  0.72082965741E+02  0.79443858370E+02  0.47000000000E+01 0. -1.
         -5    1    1    2    0  502 -0.31299888056E+01  0.11272881029E+03  0.15438072920E+03  0.19124089794E+03  0.47000000000E+01 0. -1.
        -11    1    3    3    0    0 -0.29473396140E+02  0.64256422286E+00  0.94057881917E+02  0.98569666325E+02  0.00000000000E+00 0.  1.
         11    1    3    3    0    0  0.32917597000E+02 -0.80308042048E+02  0.47190488976E+03  0.47981993996E+03  0.00000000000E+00 0. -1.
<mgrwt>
<rscale>  0 0.14041330E+03</rscale>
<asrwt>0</asrwt>
<pdfrwt beam="1">  1        3 0.12626928E+00 0.14827148E+03</pdfrwt>
<pdfrwt beam="2">  1       -3 0.43575311E-02 0.14827148E+03</pdfrwt>
<totfact> 0.35080983E+02</totfact>
</mgrwt>
</event>
<event>
 7    1  0.5107591E-006  0.2609908E+03  0.7546771E-02  0.1108682E+00
          3   -1    0    0  501    0  0.00000000000E+00  0.00000000000E+00  0.10451798169E+03  0.10451798169E+03  0.00000000000E+00 0. -1.
         -3   -1    0    0    0  501 -0.00000000000E+00 -0.00000000000E+00 -0.95901305332E+03  0.95901305332E+03  0.00000000000E+00 0.  1.
         23    2    1    2    0    0 -0.22791563476E+03 -0.23373709416E+02 -0.10252310981E+03  0.26755489755E+03  0.92643231277E+02 0.  0.
          5    1    1    2  502    0  0.23852864868E+03  0.22001819681E+02 -0.74450650746E+03  0.78210742610E+03  0.47000000000E+01 0. -1.
         -5    1    1    2    0  502 -0.10613013917E+02  0.13718897359E+01 -0.74654543616E+01  0.13868711356E+02  0.47000000000E+01 0. -1.
        -11    1    3    3    0    0 -0.72368727879E+02  0.79155580239E+01 -0.78538436697E+02  0.10708956472E+03  0.00000000000E+00 0.  1.
         11    1    3    3    0    0 -0.15554690688E+03 -0.31289267440E+02 -0.23984673112E+02  0.16046533283E+03  0.00000000000E+00 0. -1.
<mgrwt>
<rscale>  0 0.25745508E+03</rscale>
<asrwt>0</asrwt>
<pdfrwt beam="1">  1        3 0.16079690E-01 0.26099077E+03</pdfrwt>
<pdfrwt beam="2">  1       -3 0.14754047E+00 0.26099077E+03</pdfrwt>
<totfact> 0.29127403E+01</totfact>
</mgrwt>
</event>
<event>
 7    1  0.5107591E-006  0.1509169E+03  0.7546771E-02  0.1208366E+00
         -1   -1    0    0    0  501 -0.00000000000E+00  0.00000000000E+00  0.41284921857E+03  0.41284921857E+03  0.00000000000E+00 0.  1.
          1   -1    0    0  501    0  0.00000000000E+00 -0.00000000000E+00 -0.95423625795E+02  0.95423625795E+02  0.00000000000E+00 0. -1.
         23    2    1    2    0    0 -0.48888315503E+01 -0.84421951877E+02 -0.31447564060E+02  0.12815656955E+03  0.91017527984E+02 0.  0.
          5    1    1    2  502    0  0.41153500880E+02  0.43743779929E+01  0.35842615982E+02  0.54950240563E+02  0.47000000000E+01 0.  1.
         -5    1    1    2    0  502 -0.36264669330E+02  0.80047573884E+02  0.31303054086E+03  0.32516603426E+03  0.47000000000E+01 0.  1.
        -11    1    3    3    0    0  0.34155591335E+02 -0.66760087170E+02  0.20924482057E-01  0.74990093321E+02  0.00000000000E+00 0.  1.
         11    1    3    3    0    0 -0.39044422885E+02 -0.17661864706E+02 -0.31468488542E+02  0.53166476227E+02  0.00000000000E+00 0. -1.
<mgrwt>
<rscale>  0 0.14375310E+03</rscale>
<asrwt>0</asrwt>
<pdfrwt beam="2">  1        1 0.14680558E-01 0.15091687E+03</pdfrwt>
<pdfrwt beam="1">  1       -1 0.63515263E-01 0.15091687E+03</pdfrwt>
<totfact> 0.98702717E+02</totfact>
</mgrwt>
</event>
<event>
 7    1  0.5107591E-006  0.2235517E+03  0.7546771E-02  0.1134593E+00
         -4   -1    0    0    0  501 -0.00000000000E+00  0.00000000000E+00  0.19018664206E+03  0.19018664206E+03  0.00000000000E+00 0.  1.
          4   -1    0    0  501    0  0.00000000000E+00 -0.00000000000E+00 -0.32191479218E+03  0.32191479218E+03  0.00000000000E+00 0. -1.
         23    2    1    2    0    0  0.17555034930E+03 -0.59434093606E+02 -0.19083144018E+03  0.28086875859E+03  0.90112620470E+02 0.  0.
          5    1    1    2  502    0 -0.47077748260E+02  0.48101477869E+02  0.75366808983E+02  0.10115489336E+03  0.47000000000E+01 0. -1.
         -5    1    1    2    0  502 -0.12847260104E+03  0.11332615737E+02 -0.16263518930E+02  0.13007778229E+03  0.47000000000E+01 0. -1.
        -11    1    3    3    0    0  0.71206709926E+02 -0.21145994469E+02 -0.19763745252E+02  0.76864518778E+02  0.00000000000E+00 0.  1.
         11    1    3    3    0    0  0.10434363938E+03 -0.38288099137E+02 -0.17106769492E+03  0.20400423981E+03  0.00000000000E+00 0. -1.
<mgrwt>
<rscale>  0 0.21905064E+03</rscale>
<asrwt>0</asrwt>
<pdfrwt beam="2">  1        4 0.49525352E-01 0.22355167E+03</pdfrwt>
<pdfrwt beam="1">  1       -4 0.29259484E-01 0.22355167E+03</pdfrwt>
<totfact> 0.79463240E+01</totfact>
</mgrwt>
</event>
<event>
 7    1  0.5107591E-006  0.1558349E+03  0.7546771E-02  0.1201201E+00
          2   -1    0    0  501    0  0.00000000000E+00  0.00000000000E+00  0.19803395886E+03  0.19803395886E+03  0.00000000000E+00 0. -1.
         -2   -1    0    0    0  501 -0.00000000000E+00 -0.00000000000E+00 -0.11711807228E+03  0.11711807228E+03  0.00000000000E+00 0.  1.
         23    2    1    2    0    0 -0.93045934291E+02  0.13478059835E+01 -0.14426240801E+02  0.13246477350E+03  0.93163497820E+02 0.  0.
          5    1    1    2  502    0  0.77466088134E+02  0.42919209017E+02  0.10187996217E+03  0.13507283223E+03  0.47000000000E+01 0.  1.
         -5    1    1    2    0  502  0.15579846158E+02 -0.44267015001E+02 -0.65378347917E+01  0.47614425410E+02  0.47000000000E+01 0.  1.
        -11    1    3    3    0    0 -0.64135559602E+02 -0.14897357626E+02  0.33741698766E+02  0.73985157331E+02  0.00000000000E+00 0. -1.
         11    1    3    3    0    0 -0.28910374690E+02  0.16245163609E+02 -0.48167939567E+02  0.58479616171E+02  0.00000000000E+00 0.  1.
<mgrwt>
<rscale>  0 0.14940871E+03</rscale>
<asrwt>0</asrwt>
<pdfrwt beam="1">  1        2 0.30466763E-01 0.15583489E+03</pdfrwt>
<pdfrwt beam="2">  1       -2 0.18018165E-01 0.15583489E+03</pdfrwt>
<totfact> 0.41904936E+03</totfact>
</mgrwt>
</event>
<event>
 7    1  0.5107591E-006  0.1406211E+03  0.7546771E-02  0.1222911E+00
          1   -1    0    0  501    0  0.00000000000E+00  0.00000000000E+00  0.13120353395E+03  0.13120353395E+03  0.00000000000E+00 0. -1.
         -1   -1    0    0    0  501 -0.00000000000E+00 -0.00000000000E+00 -0.19587810843E+03  0.19587810843E+03  0.00000000000E+00 0.  1.
         23    2    1    2    0    0  0.54774100782E+02  0.33986274370E+02  0.69613478031E+02  0.13263997688E+03  0.92693355645E+02 0.  0.
          5    1    1    2  502    0 -0.72209282986E+02 -0.60230664262E+02 -0.55102821096E+02  0.10908860784E+03  0.47000000000E+01 0.  1.
         -5    1    1    2    0  502  0.17435182204E+02  0.26244389892E+02 -0.79185231413E+02  0.85353057668E+02  0.47000000000E+01 0.  1.
        -11    1    3    3    0    0  0.68804401783E+02 -0.19673524480E+01  0.63337040804E+02  0.93538745545E+02  0.00000000000E+00 0. -1.
         11    1    3    3    0    0 -0.14030301001E+02  0.35953626818E+02  0.62764372267E+01  0.39101231333E+02  0.00000000000E+00 0.  1.
<mgrwt>
<rscale>  0 0.13311137E+03</rscale>
<asrwt>0</asrwt>
<pdfrwt beam="1">  1        1 0.20185159E-01 0.14062105E+03</pdfrwt>
<pdfrwt beam="2">  1       -1 0.30135094E-01 0.14062105E+03</pdfrwt>
<totfact> 0.24850645E+03</totfact>
</mgrwt>
</event>
<event>
 7    1  0.5107591E-006  0.3517855E+03  0.7546771E-02  0.1061885E+00
          2   -1    0    0  501    0  0.00000000000E+00  0.00000000000E+00  0.27269983169E+03  0.27269983169E+03  0.00000000000E+00 0. -1.
         -2   -1    0    0    0  501 -0.00000000000E+00 -0.00000000000E+00 -0.11345171610E+03  0.11345171610E+03  0.00000000000E+00 0.  1.
         23    2    1    2    0    0  0.31925754000E+02  0.37453811239E+02  0.13505107469E+03  0.17315528749E+03  0.96550085788E+02 0.  0.
          5    1    1    2  502    0  0.31409057175E-01  0.43003699280E+02  0.92832919779E+02  0.10241757727E+03  0.47000000000E+01 0. -1.
         -5    1    1    2    0  502 -0.31957163057E+02 -0.80457510518E+02 -0.68635878892E+02  0.11057868303E+03  0.47000000000E+01 0.  1.
        -11    1    3    3    0    0 -0.19638279803E+02 -0.16752430786E+02  0.10509877039E+02  0.27870476965E+02  0.00000000000E+00 0. -1.
         11    1    3    3    0    0  0.51564033803E+02  0.54206242025E+02  0.12454119766E+03  0.14528481053E+03  0.00000000000E+00 0.  1.
<mgrwt>
<rscale>  0 0.35178552E+03</rscale>
<asrwt>0</asrwt>
<pdfrwt beam="1">  1        2 0.41953820E-01 0.35178552E+03</pdfrwt>
<pdfrwt beam="2">  1       -2 0.17454110E-01 0.35178552E+03</pdfrwt>
<totfact> 0.32308025E+03</totfact>
</mgrwt>
</event>
<event>
 7    1  0.5107591E-006  0.1364738E+03  0.7546771E-02  0.1230283E+00
         -3   -1    0    0    0  501 -0.00000000000E+00  0.00000000000E+00  0.52413968096E+03  0.52413968096E+03  0.00000000000E+00 0.  1.
          3   -1    0    0  501    0  0.00000000000E+00 -0.00000000000E+00 -0.28499693846E+02  0.28499693846E+02  0.00000000000E+00 0. -1.
         23    2    1    2    0    0  0.39736374009E+02 -0.37689156766E+02  0.18226378804E+03  0.21083570746E+03  0.90731224792E+02 0.  0.
          5    1    1    2  502    0  0.43812956056E+01 -0.37559954541E+02  0.41979997651E+02  0.56695292036E+02  0.47000000000E+01 0.  1.
         -5    1    1    2    0  502 -0.44117669614E+02  0.75249111307E+02  0.27139620142E+03  0.28510837531E+03  0.47000000000E+01 0.  1.
        -11    1    3    3    0    0  0.25275656517E+02 -0.67885887309E+02  0.12791143284E+03  0.14699893591E+03  0.00000000000E+00 0. -1.
         11    1    3    3    0    0  0.14460717491E+02  0.30196730543E+02  0.54352355201E+02  0.63836771548E+02  0.00000000000E+00 0.  1.
<mgrwt>
<rscale>  0 0.12811272E+03</rscale>
<asrwt>0</asrwt>
<pdfrwt beam="2">  1        3 0.43845687E-02 0.13647382E+03</pdfrwt>
<pdfrwt beam="1">  1       -3 0.80636867E-01 0.13647382E+03</pdfrwt>
<totfact> 0.95077122E+02</totfact>
</mgrwt>
</event>
<event>
 7    1  0.5107591E-006  0.1186904E+03  0.7546771E-02  0.1248628E+00
          1   -1    0    0  501    0  0.00000000000E+00  0.00000000000E+00  0.47365148506E+03  0.47365148506E+03  0.00000000000E+00 0. -1.
         -1   -1    0    0    0  501 -0.00000000000E+00 -0.00000000000E+00 -0.97584588167E+02  0.97584588167E+02  0.00000000000E+00 0.  1.
         23    2    1    2    0    0  0.12485450829E+00 -0.73326989706E+01  0.42765800131E+03  0.44181797174E+03  0.11071571706E+03 0.  0.
          5    1    1    2  502    0 -0.54779115975E+02 -0.11674171895E+02 -0.78992229245E+01  0.56758484469E+02  0.47000000000E+01 0. -1.
         -5    1    1    2    0  502  0.54654261466E+02  0.19006870865E+02 -0.43691881495E+02  0.72659617017E+02  0.47000000000E+01 0.  1.
        -11    1    3    3    0    0 -0.36025561430E+02 -0.45694864602E+02  0.23154900801E+03  0.23874841327E+03  0.00000000000E+00 0. -1.
         11    1    3    3    0    0  0.36150415939E+02  0.38362165631E+02  0.19610899330E+03  0.20306955847E+03  0.00000000000E+00 0.  1.
<mgrwt>
<rscale>  0 0.11670826E+03</rscale>
<asrwt>0</asrwt>
<pdfrwt beam="1">  1        1 0.72869458E-01 0.11869037E+03</pdfrwt>
<pdfrwt beam="2">  1       -1 0.15013014E-01 0.11869037E+03</pdfrwt>
<totfact> 0.15334469E+03</totfact>
</mgrwt>
</event>
<event>
 7    1  0.5107591E-006  0.1740569E+03  0.7546771E-02  0.1179872E+00
         -2   -1    0    0    0  501 -0.00000000000E+00  0.00000000000E+00  0.49722050410E+02  0.49722050410E+02  0.00000000000E+00 0.  1.
          2   -1    0    0  501    0  0.00000000000E+00 -0.00000000000E+00 -0.68446527444E+03  0.68446527444E+03  0.00000000000E+00 0. -1.
         23    2    1    2    0    0 -0.81417361807E+02  0.89672757742E+02 -0.47286273503E+03  0.49648774713E+03  0.90724454179E+02 0.  0.
          5    1    1    2  502    0  0.59821671299E+01 -0.77678605827E+02 -0.26938777148E+02  0.82568394928E+02  0.47000000000E+01 0.  1.
         -5    1    1    2    0  502  0.75435194677E+02 -0.11994151916E+02 -0.13494171185E+03  0.15513118279E+03  0.47000000000E+01 0.  1.
        -11    1    3    3    0    0 -0.98051342259E+02  0.60349651690E+02 -0.39930241767E+03  0.41557017089E+03  0.00000000000E+00 0.  1.
         11    1    3    3    0    0  0.16633980452E+02  0.29323106053E+02 -0.73560317361E+02  0.80917576240E+02  0.00000000000E+00 0. -1.
<mgrwt>
<rscale>  0 0.16807379E+03</rscale>
<asrwt>0</asrwt>
<pdfrwt beam="2">  1        2 0.10530234E+00 0.17405688E+03</pdfrwt>
<pdfrwt beam="1">  1       -2 0.76495471E-02 0.17405688E+03</pdfrwt>
<totfact> 0.42922197E+03</totfact>
</mgrwt>
</event>
<event>
 7    1  0.5107591E-006  0.1467698E+03  0.7546771E-02  0.1220067E+00
          1   -1    0    0  501    0  0.00000000000E+00  0.00000000000E+00  0.15524791965E+03  0.15524791965E+03  0.00000000000E+00 0. -1.
         -1   -1    0    0    0  501 -0.00000000000E+00 -0.00000000000E+00 -0.11081753896E+03  0.11081753896E+03  0.00000000000E+00 0.  1.
         23    2    1    2    0    0 -0.45228147798E+02  0.62775742197E+02  0.55061650487E+02  0.11891112078E+03  0.71565984439E+02 0.  0.
          5    1    1    2  502    0  0.27813721427E+02  0.52959981049E+01  0.47728988377E+02  0.55693779070E+02  0.47000000000E+01 0.  1.
         -5    1    1    2    0  502  0.17414426371E+02 -0.68071740302E+02 -0.58360258173E+02  0.91460558754E+02  0.47000000000E+01 0.  1.
        -11    1    3    3    0    0 -0.34864473164E+02  0.36981894158E+02 -0.66205234890E+01  0.51254495567E+02  0.00000000000E+00 0.  1.
         11    1    3    3    0    0 -0.10363674634E+02  0.25793848039E+02  0.61682173976E+02  0.67656625211E+02  0.00000000000E+00 0. -1.
<mgrwt>
<rscale>  0 0.13510840E+03</rscale>
<asrwt>0</asrwt>
<pdfrwt beam="1">  1        1 0.23884295E-01 0.14676980E+03</pdfrwt>
<pdfrwt beam="2">  1       -1 0.17048852E-01 0.14676980E+03</pdfrwt>
<totfact> 0.50929957E+03</totfact>
</mgrwt>
</event>
<event>
 7    1  0.5107591E-006  0.1371258E+03  0.7546771E-02  0.1228944E+00
          2   -1    0    0  501    0  0.00000000000E+00  0.00000000000E+00  0.14490302589E+03  0.14490302589E+03  0.00000000000E+00 0. -1.
         -2   -1    0    0    0  501 -0.00000000000E+00 -0.00000000000E+00 -0.11279509818E+03  0.11279509818E+03  0.00000000000E+00 0.  1.
         23    2    1    2    0    0 -0.50384716679E+02  0.25369785795E+02  0.51661300417E+02  0.11918525890E+03  0.91400165604E+02 0.  0.
          5    1    1    2  502    0  0.33737602829E+02  0.43668512720E+02  0.17749263189E+02  0.58157468923E+02  0.47000000000E+01 0.  1.
         -5    1    1    2    0  502  0.16647113850E+02 -0.69038298515E+02 -0.37302635898E+02  0.80355396249E+02  0.47000000000E+01 0.  1.
        -11    1    3    3    0    0 -0.20428683897E+02  0.28461115052E+02  0.73876758159E+02  0.81762715169E+02  0.00000000000E+00 0. -1.
         11    1    3    3    0    0 -0.29956032782E+02 -0.30913292568E+01 -0.22215457743E+02  0.37422543731E+02  0.00000000000E+00 0.  1.
<mgrwt>
<rscale>  0 0.12900227E+03</rscale>
<asrwt>0</asrwt>
<pdfrwt beam="1">  1        2 0.22292773E-01 0.13712578E+03</pdfrwt>
<pdfrwt beam="2">  1       -2 0.17353092E-01 0.13712578E+03</pdfrwt>
<totfact> 0.62440184E+03</totfact>
</mgrwt>
</event>
<event>
 7    1  0.5107591E-006  0.1391521E+03  0.7546771E-02  0.1225513E+00
          2   -1    0    0  501    0  0.00000000000E+00  0.00000000000E+00  0.99783277440E+02  0.99783277440E+02  0.00000000000E+00 0. -1.
         -2   -1    0    0    0  501 -0.00000000000E+00 -0.00000000000E+00 -0.15600088296E+03  0.15600088296E+03  0.00000000000E+00 0.  1.
         23    2    1    2    0    0  0.60379515397E+02  0.96975190196E+01 -0.26129755982E+02  0.11341639579E+03  0.91873755406E+02 0.  0.
          5    1    1    2  502    0 -0.81480241636E+02  0.33798733473E+02 -0.70760434573E+01  0.88620226542E+02  0.47000000000E+01 0. -1.
         -5    1    1    2    0  502  0.21100726239E+02 -0.43496252493E+02 -0.23011806079E+02  0.53747538062E+02  0.47000000000E+01 0. -1.
        -11    1    3    3    0    0  0.75451040883E+02 -0.19111290295E+02 -0.17481869900E+02  0.79772907445E+02  0.00000000000E+00 0.  1.
         11    1    3    3    0    0 -0.15071525485E+02  0.28808809315E+02 -0.86478860820E+01  0.33643488349E+02  0.00000000000E+00 0. -1.
<mgrwt>
<rscale>  0 0.13131837E+03</rscale>
<asrwt>0</asrwt>
<pdfrwt beam="1">  1        2 0.15351273E-01 0.13915208E+03</pdfrwt>
<pdfrwt beam="2">  1       -2 0.24000136E-01 0.13915208E+03</pdfrwt>
<totfact> 0.55182986E+03</totfact>
</mgrwt>
</event>
<event>
 7    1  0.5107591E-006  0.1712770E+03  0.7546771E-02  0.1182383E+00
          1   -1    0    0  501    0  0.00000000000E+00  0.00000000000E+00  0.73681408920E+03  0.73681408920E+03  0.00000000000E+00 0. -1.
         -1   -1    0    0    0  501 -0.00000000000E+00 -0.00000000000E+00 -0.36212355643E+02  0.36212355643E+02  0.00000000000E+00 0.  1.
         23    2    1    2    0    0  0.37987841060E+02  0.11078119578E+03  0.39715466408E+03  0.42457855858E+03  0.93912596581E+02 0.  0.
          5    1    1    2  502    0 -0.34167726437E+02  0.87446215958E+01  0.14827845130E+03  0.15248767510E+03  0.47000000000E+01 0. -1.
         -5    1    1    2    0  502 -0.38201146231E+01 -0.11952581737E+03  0.15516861818E+03  0.19596021117E+03  0.47000000000E+01 0. -1.
        -11    1    3    3    0    0  0.61347731216E+02  0.36864491524E+02  0.16601580953E+03  0.18078656995E+03  0.00000000000E+00 0.  1.
         11    1    3    3    0    0 -0.23359890156E+02  0.73916704253E+02  0.23113885454E+03  0.24379198862E+03  0.00000000000E+00 0. -1.
<mgrwt>
<rscale>  0 0.16572261E+03</rscale>
<asrwt>0</asrwt>
<pdfrwt beam="1">  1        1 0.11335600E+00 0.17127698E+03</pdfrwt>
<pdfrwt beam="2">  1       -1 0.55711322E-02 0.17127698E+03</pdfrwt>
<totfact> 0.38403570E+03</totfact>
</mgrwt>
</event>
<event>
 7    1  0.5107591E-006  0.1416228E+03  0.7546771E-02  0.1221983E+00
          1   -1    0    0  501    0  0.00000000000E+00  0.00000000000E+00  0.35724323147E+03  0.35724323147E+03  0.00000000000E+00 0. -1.
         -1   -1    0    0    0  501 -0.00000000000E+00 -0.00000000000E+00 -0.45555064029E+02  0.45555064029E+02  0.00000000000E+00 0.  1.
         23    2    1    2    0    0  0.66053020991E+02  0.78378838711E+01  0.15432867589E+03  0.19109322113E+03  0.90966174778E+02 0.  0.
          5    1    1    2  502    0  0.24575582558E+02 -0.26010967862E+02  0.90784736342E+02  0.97695895819E+02  0.47000000000E+01 0.  1.
         -5    1    1    2    0  502 -0.90628603549E+02  0.18173083991E+02  0.66574755208E+02  0.11400917855E+03  0.47000000000E+01 0.  1.
        -11    1    3    3    0    0  0.21438651049E+02  0.45808264422E+02  0.48187549795E+02  0.69857374725E+02  0.00000000000E+00 0.  1.
         11    1    3    3    0    0  0.44614369942E+02 -0.37970380551E+02  0.10614112610E+03  0.12123584641E+03  0.00000000000E+00 0. -1.
<mgrwt>
<rscale>  0 0.13375880E+03</rscale>
<asrwt>0</asrwt>
<pdfrwt beam="1">  1        1 0.54960495E-01 0.14162284E+03</pdfrwt>
<pdfrwt beam="2">  1       -1 0.70084716E-02 0.14162284E+03</pdfrwt>
<totfact> 0.70720626E+03</totfact>
</mgrwt>
</event>
<event>
 7    1  0.5107591E-006  0.1345100E+03  0.7546771E-02  0.1233707E+00
          2   -1    0    0  501    0  0.00000000000E+00  0.00000000000E+00  0.47412209817E+03  0.47412209817E+03  0.00000000000E+00 0. -1.
         -2   -1    0    0    0  501 -0.00000000000E+00 -0.00000000000E+00 -0.30064667398E+02  0.30064667398E+02  0.00000000000E+00 0.  1.
         23    2    1    2    0    0  0.19202549934E+01 -0.49624886669E+02  0.21714039381E+03  0.24039846276E+03  0.90416555568E+02 0.  0.
          5    1    1    2  502    0 -0.19342918310E+02 -0.22186251532E+02  0.54889326646E+01  0.30308359038E+02  0.47000000000E+01 0.  1.
         -5    1    1    2    0  502  0.17422663316E+02  0.71811138202E+02  0.22142810430E+03  0.23347994376E+03  0.47000000000E+01 0.  1.
        -11    1    3    3    0    0 -0.33188063852E+02 -0.29915479655E+02  0.18053968345E+03  0.18598645329E+03  0.00000000000E+00 0. -1.
         11    1    3    3    0    0  0.35108318845E+02 -0.19709407015E+02  0.36600710356E+02  0.54412009479E+02  0.00000000000E+00 0.  1.
<mgrwt>
<rscale>  0 0.12587544E+03</rscale>
<asrwt>0</asrwt>
<pdfrwt beam="1">  1        2 0.72941856E-01 0.13450995E+03</pdfrwt>
<pdfrwt beam="2">  1       -2 0.46253338E-02 0.13450995E+03</pdfrwt>
<totfact> 0.13779523E+04</totfact>
</mgrwt>
</event>
<event>
 7    1  0.5107591E-006  0.1446491E+03  0.7546771E-02  0.1211571E+00
         -1   -1    0    0    0  501 -0.00000000000E+00  0.00000000000E+00  0.29072613943E+03  0.29072613943E+03  0.00000000000E+00 0.  1.
          1   -1    0    0  501    0  0.00000000000E+00 -0.00000000000E+00 -0.67900028902E+02  0.67900028902E+02  0.00000000000E+00 0. -1.
         23    2    1    2    0    0 -0.72876257074E+02 -0.13976005821E+01  0.74158860636E+02  0.15120075641E+03  0.10976898467E+03 0.  0.
          5    1    1    2  502    0  0.99278330592E+02 -0.21227376853E+02  0.76580751393E+02  0.12725364410E+03  0.47000000000E+01 0. -1.
         -5    1    1    2    0  502 -0.26402073518E+02  0.22624977435E+02  0.72086498498E+02  0.80171767822E+02  0.47000000000E+01 0. -1.
        -11    1    3    3    0    0 -0.47567477736E+02 -0.26285621816E+02 -0.14036511043E+02  0.56130406151E+02  0.00000000000E+00 0. -1.
         11    1    3    3    0    0 -0.25308779339E+02  0.24888021234E+02  0.88195371679E+02  0.95070350258E+02  0.00000000000E+00 0.  1.
<mgrwt>
<rscale>  0 0.14131462E+03</rscale>
<asrwt>0</asrwt>
<pdfrwt beam="2">  1        1 0.10446158E-01 0.14464906E+03</pdfrwt>
<pdfrwt beam="1">  1       -1 0.44727098E-01 0.14464906E+03</pdfrwt>
<totfact> 0.29532783E+03</totfact>
</mgrwt>
</event>
<event>
 7    1  0.5107591E-006  0.1985475E+03  0.7546771E-02  0.1155365E+00
          2   -1    0    0  501    0  0.00000000000E+00  0.00000000000E+00  0.96270663265E+03  0.96270663265E+03  0.00000000000E+00 0. -1.
         -2   -1    0    0    0  501 -0.00000000000E+00 -0.00000000000E+00 -0.43840210030E+02  0.43840210030E+02  0.00000000000E+00 0.  1.
         23    2    1    2    0    0 -0.13560197791E+03 -0.73540276949E+02  0.63765437148E+03  0.66230663937E+03  0.90834565799E+02 0.  0.
          5    1    1    2  502    0  0.13920604690E+03  0.24281928051E+02  0.16144154135E+03  0.21460055172E+03  0.47000000000E+01 0. -1.
         -5    1    1    2    0  502 -0.36040689932E+01  0.49258348898E+02  0.11977050979E+03  0.12963965159E+03  0.47000000000E+01 0. -1.
        -11    1    3    3    0    0 -0.76250000310E+02  0.11695237185E+01  0.19278309233E+03  0.20731799493E+03  0.00000000000E+00 0.  1.
         11    1    3    3    0    0 -0.59351977597E+02 -0.74709800667E+02  0.44487127915E+03  0.45498864445E+03  0.00000000000E+00 0. -1.
<mgrwt>
<rscale>  0 0.19347358E+03</rscale>
<asrwt>0</asrwt>
<pdfrwt beam="1">  1        2 0.14810870E+00 0.19854748E+03</pdfrwt>
<pdfrwt beam="2">  1       -2 0.67446484E-02 0.19854748E+03</pdfrwt>
<totfact> 0.33920592E+03</totfact>
</mgrwt>
</event>
<event>
 7    1  0.5107591E-006  0.1830127E+03  0.7546771E-02  0.1176824E+00
         -2   -1    0    0    0  501 -0.00000000000E+00  0.00000000000E+00  0.31190351341E+03  0.31190351341E+03  0.00000000000E+00 0.  1.
          2   -1    0    0  501    0  0.00000000000E+00 -0.00000000000E+00 -0.83718678515E+02  0.83718678515E+02  0.00000000000E+00 0. -1.
         23    2    1    2    0    0 -0.56638345320E+01  0.10581744764E+03  0.85585567475E+02  0.16361317266E+03  0.90636469823E+02 0.  0.
          5    1    1    2  502    0 -0.57415813153E+02 -0.24887860584E+02  0.88598576698E+01  0.63376401621E+02  0.47000000000E+01 0. -1.
         -5    1    1    2    0  502  0.63079647685E+02 -0.80929587055E+02  0.13373940975E+03  0.16863261764E+03  0.47000000000E+01 0.  1.
        -11    1    3    3    0    0  0.31597157432E+01 -0.16457472367E+02  0.12271899741E+02  0.20770934586E+02  0.00000000000E+00 0. -1.
         11    1    3    3    0    0 -0.88235502752E+01  0.12227492001E+03  0.73313667734E+02  0.14284223808E+03  0.00000000000E+00 0.  1.
<mgrwt>
<rscale>  0 0.17098583E+03</rscale>
<asrwt>0</asrwt>
<pdfrwt beam="2">  1        2 0.12879797E-01 0.18301266E+03</pdfrwt>
<pdfrwt beam="1">  1       -2 0.47985155E-01 0.18301266E+03</pdfrwt>
<totfact> 0.19190495E+03</totfact>
</mgrwt>
</event>
<event>
 7    1  0.5107591E-006  0.2701783E+03  0.7546771E-02  0.1101178E+00
         -1   -1    0    0    0  501 -0.00000000000E+00  0.00000000000E+00  0.36934684975E+02  0.36934684975E+02  0.00000000000E+00 0.  1.
          1   -1    0    0  501    0  0.00000000000E+00 -0.00000000000E+00 -0.49409072043E+03  0.49409072043E+03  0.00000000000E+00 0. -1.
         23    2    1    2    0    0  0.42598689026E+01  0.16251495851E+02 -0.29103007531E+03  0.30533823849E+03  0.90833240334E+02 0.  0.
          5    1    1    2  502    0  0.11151152157E+02  0.26639045129E+02 -0.17633559025E+03  0.17874651692E+03  0.47000000000E+01 0. -1.
         -5    1    1    2    0  502 -0.15411021060E+02 -0.42890540980E+02  0.10209630103E+02  0.46940650001E+02  0.47000000000E+01 0.  1.
        -11    1    3    3    0    0  0.25749374630E+02  0.47745611493E+02 -0.17131493779E+03  0.17969830723E+03  0.00000000000E+00 0. -1.
         11    1    3    3    0    0 -0.21489505727E+02 -0.31494115641E+02 -0.11971513752E+03  0.12563993126E+03  0.00000000000E+00 0.  1.
<mgrwt>
<rscale>  0 0.27017835E+03</rscale>
<asrwt>0</asrwt>
<pdfrwt beam="2">  1        1 0.76013958E-01 0.27017835E+03</pdfrwt>
<pdfrwt beam="1">  1       -1 0.56822592E-02 0.27017835E+03</pdfrwt>
<totfact> 0.66194378E+03</totfact>
</mgrwt>
</event>
<event>
 7    1  0.5107591E-006  0.1942686E+03  0.7546771E-02  0.1158844E+00
          2   -1    0    0  501    0  0.00000000000E+00  0.00000000000E+00  0.36287027763E+03  0.36287027763E+03  0.00000000000E+00 0. -1.
         -2   -1    0    0    0  501 -0.00000000000E+00 -0.00000000000E+00 -0.14937054773E+03  0.14937054773E+03  0.00000000000E+00 0.  1.
         23    2    1    2    0    0 -0.14756930794E+03 -0.18404397755E+02  0.25850610881E+03  0.31282699924E+03  0.94445225725E+02 0.  0.
          5    1    1    2  502    0  0.65878190371E+02  0.68918885721E+02 -0.38835172524E+02  0.10305342983E+03  0.47000000000E+01 0. -1.
         -5    1    1    2    0  502  0.81691117569E+02 -0.50514487966E+02 -0.61712063799E+01  0.96360396286E+02  0.47000000000E+01 0. -1.
        -11    1    3    3    0    0 -0.81005184215E+02 -0.37462782391E+02  0.74605695425E+02  0.11632415796E+03  0.00000000000E+00 0.  1.
         11    1    3    3    0    0 -0.66564123726E+02  0.19058384636E+02  0.18390041338E+03  0.19650284129E+03  0.00000000000E+00 0. -1.
<mgrwt>
<rscale>  0 0.18957630E+03</rscale>
<asrwt>0</asrwt>
<pdfrwt beam="1">  1        2 0.55826196E-01 0.19426863E+03</pdfrwt>
<pdfrwt beam="2">  1       -2 0.22980084E-01 0.19426863E+03</pdfrwt>
<totfact> 0.14559645E+03</totfact>
</mgrwt>
</event>
<event>
 7    1  0.5107591E-006  0.1450799E+03  0.7546771E-02  0.1216397E+00
          1   -1    0    0  501    0  0.00000000000E+00  0.00000000000E+00  0.65532689004E+03  0.65532689004E+03  0.00000000000E+00 0.  1.
         -1   -1    0    0    0  501 -0.00000000000E+00 -0.00000000000E+00 -0.26380936129E+02  0.26380936129E+02  0.00000000000E+00 0. -1.
         23    2    1    2    0    0  0.51152571215E+02 -0.53009594025E+02  0.28318994480E+03  0.30674728270E+03  0.92036666623E+02 0.  0.
          5    1    1    2  502    0 -0.59934632311E+02  0.64151069128E+02  0.12026112069E+03  0.14897096016E+03  0.47000000000E+01 0. -1.
         -5    1    1    2    0  502  0.87820610968E+01 -0.11141475103E+02  0.22549488842E+03  0.22598958332E+03  0.47000000000E+01 0. -1.
        -11    1    3    3    0    0  0.72445984808E+02 -0.48965450349E+02  0.26289153733E+03  0.27705233521E+03  0.00000000000E+00 0.  1.
         11    1    3    3    0    0 -0.21293413594E+02 -0.40441436755E+01  0.20298407472E+02  0.29694947490E+02  0.00000000000E+00 0. -1.
<mgrwt>
<rscale>  0 0.13774380E+03</rscale>
<asrwt>0</asrwt>
<pdfrwt beam="1">  1        1 0.10081951E+00 0.14507995E+03</pdfrwt>
<pdfrwt beam="2">  1       -1 0.40586061E-02 0.14507995E+03</pdfrwt>
<totfact> 0.72119521E+03</totfact>
</mgrwt>
</event>
<event>
 7    1  0.5107591E-006  0.1782275E+03  0.7546771E-02  0.1176491E+00
          3   -1    0    0  501    0  0.00000000000E+00  0.00000000000E+00  0.49112616965E+02  0.49112616965E+02  0.00000000000E+00 0. -1.
         -3   -1    0    0    0  501 -0.00000000000E+00 -0.00000000000E+00 -0.10908384915E+04  0.10908384915E+04  0.00000000000E+00 0.  1.
         23    2    1    2    0    0  0.18583649105E+02  0.12100297633E+03 -0.10124194121E+03  0.18272852187E+03  0.90292357089E+02 0.  0.
          5    1    1    2  502    0 -0.73115182797E+02 -0.57054165004E+02 -0.43778737967E+03  0.44752752708E+03  0.47000000000E+01 0. -1.
         -5    1    1    2    0  502  0.54531533692E+02 -0.63948811325E+02 -0.50269655365E+03  0.50969505951E+03  0.47000000000E+01 0.  1.
        -11    1    3    3    0    0  0.28236510921E+01  0.10509448867E+03 -0.31907748657E+02  0.10986777953E+03  0.00000000000E+00 0. -1.
         11    1    3    3    0    0  0.15759998013E+02  0.15908487660E+02 -0.69334192554E+02  0.72860742338E+02  0.00000000000E+00 0.  1.
<mgrwt>
<rscale>  0 0.17130735E+03</rscale>
<asrwt>0</asrwt>
<pdfrwt beam="1">  1        3 0.75557877E-02 0.17822753E+03</pdfrwt>
<pdfrwt beam="2">  1       -3 0.16782130E+00 0.17822753E+03</pdfrwt>
<totfact> 0.72823934E+01</totfact>
</mgrwt>
</event>
<event>
 7    1  0.5107591E-006  0.1349591E+03  0.7546771E-02  0.1233442E+00
          4   -1    0    0  501    0  0.00000000000E+00  0.00000000000E+00  0.32087065773E+03  0.32087065773E+03  0.00000000000E+00 0.  1.
         -4   -1    0    0    0  501 -0.00000000000E+00 -0.00000000000E+00 -0.44964397537E+02  0.44964397537E+02  0.00000000000E+00 0. -1.
         23    2    1    2    0    0  0.13224661596E+02 -0.49130148844E+02  0.14613546008E+03  0.17860679955E+03  0.89197269876E+02 0.  0.
          5    1    1    2  502    0 -0.41235852718E+02 -0.28703842100E+02  0.35364554759E+02  0.61620190148E+02  0.47000000000E+01 0.  1.
         -5    1    1    2    0  502  0.28011191121E+02  0.77833990944E+02  0.94406245357E+02  0.12560806557E+03  0.47000000000E+01 0.  1.
        -11    1    3    3    0    0  0.41483634242E+02 -0.15875731830E+02  0.11948265673E+03  0.12747170678E+03  0.00000000000E+00 0.  1.
         11    1    3    3    0    0 -0.28258972645E+02 -0.33254417014E+02  0.26652803350E+02  0.51135092768E+02  0.00000000000E+00 0. -1.
<mgrwt>
<rscale>  0 0.12604671E+03</rscale>
<asrwt>0</asrwt>
<pdfrwt beam="1">  1        4 0.49364715E-01 0.13495910E+03</pdfrwt>
<pdfrwt beam="2">  1       -4 0.69175998E-02 0.13495910E+03</pdfrwt>
<totfact> 0.92389376E+02</totfact>
</mgrwt>
</event>
<event>
 7    1  0.5107591E-006  0.1469963E+03  0.7546771E-02  0.1213741E+00
          1   -1    0    0  501    0  0.00000000000E+00  0.00000000000E+00  0.11523724739E+03  0.11523724739E+03  0.00000000000E+00 0. -1.
         -1   -1    0    0    0  501 -0.00000000000E+00 -0.00000000000E+00 -0.15601674753E+03  0.15601674753E+03  0.00000000000E+00 0.  1.
         23    2    1    2    0    0  0.63806577475E+02  0.43755040997E+02 -0.51662663743E+01  0.12000516240E+03  0.91590205551E+02 0.  0.
          5    1    1    2  502    0  0.54702034489E+01 -0.71759050746E+02 -0.18113095631E+02  0.74360330305E+02  0.47000000000E+01 0. -1.
         -5    1    1    2    0  502 -0.69276780924E+02  0.28004009749E+02 -0.17500138137E+02  0.76888502209E+02  0.47000000000E+01 0. -1.
        -11    1    3    3    0    0 -0.17830209093E+02 -0.53017746882E+01 -0.15487389700E+02  0.24205049284E+02  0.00000000000E+00 0.  1.
         11    1    3    3    0    0  0.81636786568E+02  0.49056815685E+02  0.10321123325E+02  0.95800113116E+02  0.00000000000E+00 0. -1.
<mgrwt>
<rscale>  0 0.13969441E+03</rscale>
<asrwt>0</asrwt>
<pdfrwt beam="1">  1        1 0.17728807E-01 0.14699628E+03</pdfrwt>
<pdfrwt beam="2">  1       -1 0.24002576E-01 0.14699628E+03</pdfrwt>
<totfact> 0.42884955E+03</totfact>
</mgrwt>
</event>
<event>
 7    1  0.5107591E-006  0.1579480E+03  0.7546771E-02  0.1199913E+00
          3   -1    0    0  501    0  0.00000000000E+00  0.00000000000E+00  0.25375935093E+02  0.25375935093E+02  0.00000000000E+00 0. -1.
         -3   -1    0    0    0  501 -0.00000000000E+00 -0.00000000000E+00 -0.81712666090E+03  0.81712666090E+03  0.00000000000E+00 0.  1.
         23    2    1    2    0    0  0.26755129837E+02 -0.92790037905E+02 -0.35837004170E+03  0.38123653900E+03  0.87099849411E+02 0.  0.
          5    1    1    2  502    0 -0.44909288506E+02 -0.11737976703E+02 -0.19146372492E+03  0.19706616211E+03  0.47000000000E+01 0.  1.
         -5    1    1    2    0  502  0.18154158669E+02  0.10452801461E+03 -0.24191695918E+03  0.26419989488E+03  0.47000000000E+01 0.  1.
        -11    1    3    3    0    0 -0.68605380910E+01 -0.79015991638E+02 -0.31415093376E+03  0.32400833801E+03  0.00000000000E+00 0.  1.
         11    1    3    3    0    0  0.33615667928E+02 -0.13774046267E+02 -0.44219107948E+02  0.57228200990E+02  0.00000000000E+00 0. -1.
<mgrwt>
<rscale>  0 0.15045637E+03</rscale>
<asrwt>0</asrwt>
<pdfrwt beam="1">  1        3 0.39039897E-02 0.15794796E+03</pdfrwt>
<pdfrwt beam="2">  1       -3 0.12571180E+00 0.15794796E+03</pdfrwt>
<totfact> 0.42358592E+02</totfact>
</mgrwt>
</event>
<event>
 7    1  0.5107591E-006  0.1395801E+03  0.7546771E-02  0.1223672E+00
         -1   -1    0    0    0  501 -0.00000000000E+00  0.00000000000E+00  0.25631290093E+02  0.25631290093E+02  0.00000000000E+00 0.  1.
          1   -1    0    0  501    0  0.00000000000E+00 -0.00000000000E+00 -0.63692256452E+03  0.63692256452E+03  0.00000000000E+00 0. -1.
         23    2    1    2    0    0  0.58045610859E+02 -0.22103943325E+02 -0.31930098999E+03  0.33891682283E+03  0.95150477354E+02 0.  0.
          5    1    1    2  502    0 -0.59983383525E+01 -0.45573316121E+02 -0.15860274021E+03  0.16519632685E+03  0.47000000000E+01 0. -1.
         -5    1    1    2    0  502 -0.52047272507E+02  0.67677259447E+02 -0.13338754424E+03  0.15844070493E+03  0.47000000000E+01 0. -1.
        -11    1    3    3    0    0  0.81165320537E+02 -0.82018847055E+01 -0.27684853874E+03  0.28861772914E+03  0.00000000000E+00 0.  1.
         11    1    3    3    0    0 -0.23119709677E+02 -0.13902058620E+02 -0.42452451249E+02  0.50299093694E+02  0.00000000000E+00 0. -1.
<mgrwt>
<rscale>  0 0.13258355E+03</rscale>
<asrwt>0</asrwt>
<pdfrwt beam="2">  1        1 0.97988077E-01 0.13958009E+03</pdfrwt>
<pdfrwt beam="1">  1       -1 0.39432758E-02 0.13958009E+03</pdfrwt>
<totfact> 0.78115678E+03</totfact>
</mgrwt>
</event>
<event>
 7    1  0.5107591E-006  0.1656797E+03  0.7546771E-02  0.1189413E+00
         -2   -1    0    0    0  501 -0.00000000000E+00  0.00000000000E+00  0.20400073235E+03  0.20400073235E+03  0.00000000000E+00 0. -1.
          2   -1    0    0  501    0  0.00000000000E+00 -0.00000000000E+00 -0.11790111040E+03  0.11790111040E+03  0.00000000000E+00 0.  1.
         23    2    1    2    0    0  0.91010485274E+02 -0.59524202181E+02  0.18812790593E+02  0.14307987494E+03  0.91059817963E+02 0.  0.
          5    1    1    2  502    0 -0.10934165725E+03  0.41155257088E+02  0.11965198213E+02  0.11753556553E+03  0.47000000000E+01 0. -1.
         -5    1    1    2    0  502  0.18331171980E+02  0.18368945093E+02  0.55321633146E+02  0.61286402276E+02  0.47000000000E+01 0. -1.
        -11    1    3    3    0    0  0.72120938630E+02  0.71783637485E+01  0.80327346711E+01  0.72921077346E+02  0.00000000000E+00 0. -1.
         11    1    3    3    0    0  0.18889546644E+02 -0.66702565929E+02  0.10780055921E+02  0.70158797592E+02  0.00000000000E+00 0.  1.
<mgrwt>
<rscale>  0 0.15936758E+03</rscale>
<asrwt>0</asrwt>
<pdfrwt beam="2">  1        2 0.18138632E-01 0.16567975E+03</pdfrwt>
<pdfrwt beam="1">  1       -2 0.31384728E-01 0.16567975E+03</pdfrwt>
<totfact> 0.28522017E+03</totfact>
</mgrwt>
</event>
<event>
 7    1  0.5107591E-006  0.2664587E+03  0.7546771E-02  0.1113599E+00
         -1   -1    0    0    0  501 -0.00000000000E+00  0.00000000000E+00  0.52284068614E+02  0.52284068614E+02  0.00000000000E+00 0.  1.
          1   -1    0    0  501    0  0.00000000000E+00 -0.00000000000E+00 -0.11901148343E+04  0.11901148343E+04  0.00000000000E+00 0. -1.
         23    2    1    2    0    0  0.17022203389E+02  0.18230479964E+03 -0.70443916954E+03  0.73364698863E+03  0.92079123358E+02 0.  0.
          5    1    1    2  502    0 -0.98605465960E+02 -0.86895462868E+02 -0.28800200247E+03  0.31660875353E+03  0.47000000000E+01 0. -1.
         -5    1    1    2    0  502  0.81583262571E+02 -0.95409336774E+02 -0.14538959366E+03  0.19214316074E+03  0.47000000000E+01 0.  1.
        -11    1    3    3    0    0 -0.20555378591E+02  0.51027890137E+02 -0.10161271534E+03  0.11554874764E+03  0.00000000000E+00 0.  1.
         11    1    3    3    0    0  0.37577581980E+02  0.13127690950E+03 -0.60282645420E+03  0.61809824099E+03  0.00000000000E+00 0. -1.
<mgrwt>
<rscale>  0 0.24953584E+03</rscale>
<asrwt>0</asrwt>
<pdfrwt beam="2">  1        1 0.18309459E+00 0.26645869E+03</pdfrwt>
<pdfrwt beam="1">  1       -1 0.80437031E-02 0.26645869E+03</pdfrwt>
<totfact> 0.99478482E+02</totfact>
</mgrwt>
</event>
<event>
 6    1  0.5107591E-006  0.1618412E+03  0.7546771E-02  0.1236466E+00
          1   -1    0    0  501    0  0.00000000000E+00  0.00000000000E+00  0.19768676080E+03  0.19768676080E+03  0.00000000000E+00 0. -1.
         -1   -1    0    0    0  501 -0.00000000000E+00 -0.00000000000E+00 -0.87715343994E+02  0.87715343994E+02  0.00000000000E+00 0.  1.
          5    1    1    2  502    0  0.76202965600E+02 -0.15625272780E+02 -0.33334595155E+02  0.84760405555E+02  0.47000000000E+01 0. -1.
         -5    1    1    2    0  502 -0.60081122162E+02 -0.34795706018E+02  0.33149482287E+02  0.77080870347E+02  0.47000000000E+01 0.  1.
        -11    1    1    2    0    0 -0.26888427244E+01  0.17352258730E+02  0.56097625074E+02  0.58781581274E+02  0.00000000000E+00 0. -1.
         11    1    1    2    0    0 -0.13433000714E+02  0.33068720069E+02  0.54058904596E+02  0.64779247613E+02  0.00000000000E+00 0.  1.
<mgrwt>
<rscale>  0 0.12411053E+03</rscale>
<asrwt>0</asrwt>
<pdfrwt beam="1">  1        1 0.30413348E-01 0.16184117E+03</pdfrwt>
<pdfrwt beam="2">  1       -1 0.13494668E-01 0.16184117E+03</pdfrwt>
<totfact> 0.54649374E+03</totfact>
</mgrwt>
</event>
<event>
 7    1  0.5107591E-006  0.1526049E+03  0.7546771E-02  0.1206059E+00
         -1   -1    0    0    0  501 -0.00000000000E+00  0.00000000000E+00  0.91109786457E+02  0.91109786457E+02  0.00000000000E+00 0.  1.
          1   -1    0    0  501    0  0.00000000000E+00 -0.00000000000E+00 -0.21505709233E+03  0.21505709233E+03  0.00000000000E+00 0. -1.
         23    2    1    2    0    0  0.87434871999E+02  0.42491644061E+01 -0.42710190792E+02  0.13328624069E+03  0.90984335579E+02 0.  0.
          5    1    1    2  502    0  0.27164645650E+02  0.17690543694E+02 -0.42966709488E+01  0.33036717311E+02  0.47000000000E+01 0. -1.
         -5    1    1    2    0  502 -0.11459951765E+03 -0.21939708100E+02 -0.76940444134E+02  0.13984392078E+03  0.47000000000E+01 0. -1.
        -11    1    3    3    0    0  0.26623929404E+00  0.18414173301E+02 -0.41012907490E+02  0.44957882985E+02  0.00000000000E+00 0. -1.
         11    1    3    3    0    0  0.87168632705E+02 -0.14165008895E+02 -0.16972833023E+01  0.88328357708E+02  0.00000000000E+00 0.  1.
<mgrwt>
<rscale>  0 0.14554287E+03</rscale>
<asrwt>0</asrwt>
<pdfrwt beam="2">  1        1 0.33085706E-01 0.15260487E+03</pdfrwt>
<pdfrwt beam="1">  1       -1 0.14016890E-01 0.15260487E+03</pdfrwt>
<totfact> 0.46209953E+03</totfact>
</mgrwt>
</event>
<event>
 7    1  0.5107591E-006  0.1409114E+03  0.7546771E-02  0.1222691E+00
         -1   -1    0    0    0  501 -0.00000000000E+00  0.00000000000E+00  0.86074078842E+02  0.86074078842E+02  0.00000000000E+00 0.  1.
          1   -1    0    0  501    0  0.00000000000E+00 -0.00000000000E+00 -0.32438895526E+03  0.32438895526E+03  0.00000000000E+00 0. -1.
         23    2    1    2    0    0 -0.25843311916E+02  0.59706520380E+02 -0.24469067163E+03  0.26940746103E+03  0.92054928890E+02 0.  0.
          5    1    1    2  502    0  0.19529634259E+02 -0.97960600168E+02 -0.57414993176E+01  0.10016356930E+03  0.47000000000E+01 0.  1.
         -5    1    1    2    0  502  0.63136776571E+01  0.38254079787E+02  0.12117294526E+02  0.40892003773E+02  0.47000000000E+01 0.  1.
        -11    1    3    3    0    0  0.11692533763E+02  0.62408901903E+02 -0.20544916158E+03  0.21503707674E+03  0.00000000000E+00 0. -1.
         11    1    3    3    0    0 -0.37535845679E+02 -0.27023815224E+01 -0.39241510050E+02  0.54370384289E+02  0.00000000000E+00 0.  1.
<mgrwt>
<rscale>  0 0.13326447E+03</rscale>
<asrwt>0</asrwt>
<pdfrwt beam="2">  1        1 0.49905994E-01 0.14091140E+03</pdfrwt>
<pdfrwt beam="1">  1       -1 0.13242166E-01 0.14091140E+03</pdfrwt>
<totfact> 0.30205985E+03</totfact>
</mgrwt>
</event>
<event>
 7    1  0.5107591E-006  0.1894198E+03  0.7546771E-02  0.1163918E+00
         -2   -1    0    0    0  501 -0.00000000000E+00  0.00000000000E+00  0.10767236617E+03  0.10767236617E+03  0.00000000000E+00 0.  1.
          2   -1    0    0  501    0  0.00000000000E+00 -0.00000000000E+00 -0.30187422012E+03  0.30187422012E+03  0.00000000000E+00 0. -1.
         23    2    1    2    0    0  0.50328489265E+02  0.13312097218E+03 -0.11432418612E+03  0.20397351921E+03  0.91000148024E+02 0.  0.
          5    1    1    2  502    0 -0.12767759126E+02  0.18614740497E+02  0.10075282044E+02  0.25161986113E+02  0.47000000000E+01 0. -1.
         -5    1    1    2    0  502 -0.37560730139E+02 -0.15173571267E+03 -0.89952949871E+02  0.18041108098E+03  0.47000000000E+01 0. -1.
        -11    1    3    3    0    0  0.21921521425E+02  0.76163530287E+02 -0.11578021326E+03  0.14030856791E+03  0.00000000000E+00 0. -1.
         11    1    3    3    0    0  0.28406967840E+02  0.56957441889E+02  0.14560271356E+01  0.63664951296E+02  0.00000000000E+00 0.  1.
<mgrwt>
<rscale>  0 0.18407361E+03</rscale>
<asrwt>0</asrwt>
<pdfrwt beam="2">  1        2 0.46442187E-01 0.18941976E+03</pdfrwt>
<pdfrwt beam="1">  1       -2 0.16564980E-01 0.18941976E+03</pdfrwt>
<totfact> 0.30923051E+03</totfact>
</mgrwt>
</event>
<event>
 7    1  0.5107591E-006  0.1741510E+03  0.7546771E-02  0.1178805E+00
          1   -1    0    0  501    0  0.00000000000E+00  0.00000000000E+00  0.23729059635E+02  0.23729059635E+02  0.00000000000E+00 0. -1.
         -1   -1    0    0    0  501 -0.00000000000E+00 -0.00000000000E+00 -0.11444829234E+04  0.11444829234E+04  0.00000000000E+00 0.  1.
         23    2    1    2    0    0  0.11976560896E+03  0.19044392308E+02 -0.48991979409E+03  0.51378077154E+03  0.96139412268E+02 0.  0.
          5    1    1    2  502    0  0.34774960674E+01  0.31634863674E+02 -0.22413090047E+03  0.22642793142E+03  0.47000000000E+01 0.  1.
         -5    1    1    2    0  502 -0.12324310502E+03 -0.50679255982E+02 -0.40670316919E+03  0.42800328007E+03  0.47000000000E+01 0.  1.
        -11    1    3    3    0    0  0.46811663397E+02  0.26572804258E+02 -0.74355646547E+02  0.91794378529E+02  0.00000000000E+00 0.  1.
         11    1    3    3    0    0  0.72953945559E+02 -0.75284119496E+01 -0.41556414755E+03  0.42198639301E+03  0.00000000000E+00 0. -1.
<mgrwt>
<rscale>  0 0.16908540E+03</rscale>
<asrwt>0</asrwt>
<pdfrwt beam="1">  1        1 0.36506251E-02 0.17415105E+03</pdfrwt>
<pdfrwt beam="2">  1       -1 0.17607427E+00 0.17415105E+03</pdfrwt>
<totfact> 0.62634819E+02</totfact>
</mgrwt>
</event>
<event>
 7    1  0.5107591E-006  0.1290495E+03  0.7546771E-02  0.1243464E+00
         -3   -1    0    0    0  501 -0.00000000000E+00  0.00000000000E+00  0.74752782429E+03  0.74752782429E+03  0.00000000000E+00 0.  1.
          3   -1    0    0  501    0  0.00000000000E+00 -0.00000000000E+00 -0.19363635021E+02  0.19363635021E+02  0.00000000000E+00 0. -1.
         23    2    1    2    0    0 -0.65243362897E+01  0.31364680574E+02  0.18168250864E+03  0.20537921389E+03  0.90253960593E+02 0.  0.
          5    1    1    2  502    0  0.28297453110E+02 -0.74559988406E+02  0.36458094327E+03  0.37323088286E+03  0.47000000000E+01 0. -1.
         -5    1    1    2    0  502 -0.21773116821E+02  0.43195307831E+02  0.18190073736E+03  0.18828136256E+03  0.47000000000E+01 0. -1.
        -11    1    3    3    0    0 -0.43480411729E+02  0.13213335575E+02  0.50735907363E+02  0.68112192279E+02  0.00000000000E+00 0.  1.
         11    1    3    3    0    0  0.36956075440E+02  0.18151345000E+02  0.13094660127E+03  0.13726702161E+03  0.00000000000E+00 0. -1.
<mgrwt>
<rscale>  0 0.11977765E+03</rscale>
<asrwt>0</asrwt>
<pdfrwt beam="2">  1        3 0.29790213E-02 0.12904950E+03</pdfrwt>
<pdfrwt beam="1">  1       -3 0.11500426E+00 0.12904950E+03</pdfrwt>
<totfact> 0.77350958E+02</totfact>
</mgrwt>
</event>
<event>
 7    1  0.5107591E-006  0.1709401E+03  0.7546771E-02  0.1183506E+00
          4   -1    0    0  501    0  0.00000000000E+00  0.00000000000E+00  0.36221243662E+02  0.36221243662E+02  0.00000000000E+00 0. -1.
         -4   -1    0    0    0  501 -0.00000000000E+00 -0.00000000000E+00 -0.70026539791E+03  0.70026539791E+03  0.00000000000E+00 0.  1.
         23    2    1    2    0    0 -0.11646992734E+03 -0.55150684443E+01 -0.29085017814E+03  0.32600611840E+03  0.89947224292E+02 0.  0.
          5    1    1    2  502    0  0.90885861524E+02 -0.25778899040E+02 -0.35222079538E+03  0.36470038409E+03  0.47000000000E+01 0. -1.
         -5    1    1    2    0  502  0.25584065813E+02  0.31293967484E+02 -0.20973180739E+02  0.45780139086E+02  0.47000000000E+01 0. -1.
        -11    1    3    3    0    0 -0.12146547290E+03 -0.27512802160E+02 -0.24051311289E+03  0.27084566244E+03  0.00000000000E+00 0. -1.
         11    1    3    3    0    0  0.49955455644E+01  0.21997733716E+02 -0.50337065250E+02  0.55160455963E+02  0.00000000000E+00 0.  1.
<mgrwt>
<rscale>  0 0.16468566E+03</rscale>
<asrwt>0</asrwt>
<pdfrwt beam="1">  1        4 0.55724991E-02 0.17094010E+03</pdfrwt>
<pdfrwt beam="2">  1       -4 0.10773314E+00 0.17094010E+03</pdfrwt>
<totfact> 0.24969630E+02</totfact>
</mgrwt>
</event>
<event>
 7    1  0.5107591E-006  0.1270511E+03  0.7546771E-02  0.1245750E+00
         -3   -1    0    0    0  501 -0.00000000000E+00  0.00000000000E+00  0.36111833536E+02  0.36111833536E+02  0.00000000000E+00 0.  1.
          3   -1    0    0  501    0  0.00000000000E+00 -0.00000000000E+00 -0.34865905990E+03  0.34865905990E+03  0.00000000000E+00 0. -1.
         23    2    1    2    0    0 -0.21286895017E+02 -0.81176445922E+01 -0.15684396303E+03  0.18380945295E+03  0.93095962338E+02 0.  0.
          5    1    1    2  502    0  0.57168178094E+02  0.12352633574E+01 -0.15371257990E+03  0.16407124575E+03  0.47000000000E+01 0.  1.
         -5    1    1    2    0  502 -0.35881283077E+02  0.68823812347E+01 -0.19906834324E+01  0.36890194730E+02  0.47000000000E+01 0.  1.
        -11    1    3    3    0    0  0.16719526896E+02 -0.38514281612E+02 -0.10301140118E+03  0.11123956689E+03  0.00000000000E+00 0. -1.
         11    1    3    3    0    0 -0.38006421913E+02  0.30396637020E+02 -0.53832561844E+02  0.72569886065E+02  0.00000000000E+00 0.  1.
<mgrwt>
<rscale>  0 0.11840610E+03</rscale>
<asrwt>0</asrwt>
<pdfrwt beam="2">  1        3 0.53639857E-01 0.12705115E+03</pdfrwt>
<pdfrwt beam="1">  1       -3 0.55556665E-02 0.12705115E+03</pdfrwt>
<totfact> 0.15182406E+03</totfact>
</mgrwt>
</event>
<event>
 7    1  0.5107591E-006  0.1223092E+03  0.7546771E-02  0.1250029E+00
          1   -1    0    0  501    0  0.00000000000E+00  0.00000000000E+00  0.55335205186E+03  0.55335205186E+03  0.00000000000E+00 0. -1.
         -1   -1    0    0    0  501 -0.00000000000E+00 -0.00000000000E+00 -0.22591334837E+02  0.22591334837E+02  0.00000000000E+00 0.  1.
         23    2    1    2    0    0 -0.34855299812E+02  0.15522347889E+02  0.28201838980E+03  0.29875702180E+03  0.90915074020E+02 0.  0.
          5    1    1    2  502    0  0.66526440620E+01 -0.15754396246E+02  0.24794933429E+03  0.24858282533E+03  0.47000000000E+01 0. -1.
         -5    1    1    2    0  502  0.28202655750E+02  0.23204835767E+00  0.79299293603E+00  0.28603539564E+02  0.47000000000E+01 0.  1.
        -11    1    3    3    0    0 -0.29397705667E+02  0.52577238747E+02  0.15365107133E+03  0.16503709539E+03  0.00000000000E+00 0.  1.
         11    1    3    3    0    0 -0.54575941445E+01 -0.37054890859E+02  0.12836731847E+03  0.13371992642E+03  0.00000000000E+00 0. -1.
<mgrwt>
<rscale>  0 0.11589383E+03</rscale>
<asrwt>0</asrwt>
<pdfrwt beam="1">  1        1 0.85131075E-01 0.12230918E+03</pdfrwt>
<pdfrwt beam="2">  1       -1 0.34755904E-02 0.12230918E+03</pdfrwt>
<totfact> 0.11270732E+04</totfact>
</mgrwt>
</event>
<event>
 7    1  0.5107591E-006  0.2175084E+03  0.7546771E-02  0.1135754E+00
         -2   -1    0    0    0  501 -0.00000000000E+00  0.00000000000E+00  0.53508786224E+02  0.53508786224E+02  0.00000000000E+00 0.  1.
          2   -1    0    0  501    0  0.00000000000E+00 -0.00000000000E+00 -0.22103799535E+03  0.22103799535E+03  0.00000000000E+00 0. -1.
         23    2    1    2    0    0 -0.70844068404E+01  0.12649238435E+02 -0.88018647957E+02  0.12568487457E+03  0.88539331681E+02 0.  0.
          5    1    1    2  502    0 -0.63744776932E+01 -0.55978026769E+02  0.75535401922E+00  0.56540551876E+02  0.47000000000E+01 0. -1.
         -5    1    1    2    0  502  0.13458884534E+02  0.43328788334E+02 -0.80265915194E+02  0.92321355131E+02  0.47000000000E+01 0. -1.
        -11    1    3    3    0    0  0.64902303438E+01  0.36871609356E+02 -0.45439864883E+01  0.37713213594E+02  0.00000000000E+00 0.  1.
         11    1    3    3    0    0 -0.13574637184E+02 -0.24222370921E+02 -0.83474661468E+02  0.87971660977E+02  0.00000000000E+00 0. -1.
<mgrwt>
<rscale>  0 0.21750839E+03</rscale>
<asrwt>0</asrwt>
<pdfrwt beam="2">  1        2 0.34005845E-01 0.21750839E+03</pdfrwt>
<pdfrwt beam="1">  1       -2 0.82321211E-02 0.21750839E+03</pdfrwt>
<totfact> 0.13442240E+04</totfact>
</mgrwt>
</event>
<event>
 7    1  0.5107591E-006  0.1665565E+03  0.7546771E-02  0.1188377E+00
         -2   -1    0    0    0  501 -0.00000000000E+00  0.00000000000E+00  0.14759747947E+03  0.14759747947E+03  0.00000000000E+00 0.  1.
          2   -1    0    0  501    0  0.00000000000E+00 -0.00000000000E+00 -0.19766600823E+03  0.19766600823E+03  0.00000000000E+00 0. -1.
         23    2    1    2    0    0  0.80250165248E+02 -0.75339594973E+02 -0.96461561451E+02  0.17236646459E+03  0.91045162876E+02 0.  0.
          5    1    1    2  502    0  0.72274571884E+01 -0.26181768620E+02  0.24794718908E+02  0.37075453216E+02  0.47000000000E+01 0.  1.
         -5    1    1    2    0  502 -0.87477622436E+02  0.10152136359E+03  0.21598313781E+02  0.13582156990E+03  0.47000000000E+01 0.  1.
        -11    1    3    3    0    0  0.90088666550E+02 -0.30602553218E+02 -0.77804360466E+02  0.12290647913E+03  0.00000000000E+00 0. -1.
         11    1    3    3    0    0 -0.98385013019E+01 -0.44737041755E+02 -0.18657200986E+02  0.49459985458E+02  0.00000000000E+00 0.  1.
<mgrwt>
<rscale>  0 0.16028365E+03</rscale>
<asrwt>0</asrwt>
<pdfrwt beam="2">  1        2 0.30410155E-01 0.16655650E+03</pdfrwt>
<pdfrwt beam="1">  1       -2 0.22707305E-01 0.16655650E+03</pdfrwt>
<totfact> 0.28419835E+03</totfact>
</mgrwt>
</event>
<event>
 7    1  0.5107591E-006  0.1376899E+03  0.7546771E-02  0.1228737E+00
          3   -1    0    0  501    0  0.00000000000E+00  0.00000000000E+00  0.12955251432E+03  0.12955251432E+03  0.00000000000E+00 0. -1.
         -3   -1    0    0    0  501 -0.00000000000E+00 -0.00000000000E+00 -0.11936112069E+03  0.11936112069E+03  0.00000000000E+00 0.  1.
         23    2    1    2    0    0  0.92613710187E+01 -0.57003680388E+02  0.27769441428E+02  0.11010621156E+03  0.89537943780E+02 0.  0.
          5    1    1    2  502    0 -0.13724335102E+02  0.90268577564E+02  0.13991409778E+02  0.92491205079E+02  0.47000000000E+01 0.  1.
         -5    1    1    2    0  502  0.44629640834E+01 -0.33264897176E+02 -0.31569457577E+02  0.46316218372E+02  0.47000000000E+01 0.  1.
        -11    1    3    3    0    0 -0.20711081687E+02 -0.50316814451E+01 -0.23112556920E+02  0.31439736166E+02  0.00000000000E+00 0.  1.
         11    1    3    3    0    0  0.29972452706E+02 -0.51971998943E+02  0.50881998348E+02  0.78666475396E+02  0.00000000000E+00 0. -1.
<mgrwt>
<rscale>  0 0.12914030E+03</rscale>
<asrwt>0</asrwt>
<pdfrwt beam="1">  1        3 0.19931156E-01 0.13768992E+03</pdfrwt>
<pdfrwt beam="2">  1       -3 0.18363249E-01 0.13768992E+03</pdfrwt>
<totfact> 0.13584212E+03</totfact>
</mgrwt>
</event>
<event>
 7    1  0.5107591E-006  0.1391640E+03  0.7546771E-02  0.1225928E+00
         -2   -1    0    0    0  501 -0.00000000000E+00  0.00000000000E+00  0.54291454980E+02  0.54291454980E+02  0.00000000000E+00 0.  1.
          2   -1    0    0  501    0  0.00000000000E+00 -0.00000000000E+00 -0.28558053272E+03  0.28558053272E+03  0.00000000000E+00 0. -1.
         23    2    1    2    0    0 -0.43010793599E+02  0.43484858826E+02 -0.91329466634E+02  0.14250097504E+03  0.90689553420E+02 0.  0.
          5    1    1    2  502    0  0.74594318785E+02  0.37797097111E+01 -0.10971600846E+03  0.13280922827E+03  0.47000000000E+01 0.  1.
         -5    1    1    2    0  502 -0.31583525187E+02 -0.47264568537E+02 -0.30243602640E+02  0.64561784384E+02  0.47000000000E+01 0.  1.
        -11    1    3    3    0    0  0.13833585734E+02  0.50020582282E+02 -0.48442689838E+02  0.70993809201E+02  0.00000000000E+00 0.  1.
         11    1    3    3    0    0 -0.56844379333E+02 -0.65357234560E+01 -0.42886776795E+02  0.71507165842E+02  0.00000000000E+00 0. -1.
<mgrwt>
<rscale>  0 0.13103472E+03</rscale>
<asrwt>0</asrwt>
<pdfrwt beam="2">  1        2 0.43935467E-01 0.13916402E+03</pdfrwt>
<pdfrwt beam="1">  1       -2 0.83525315E-02 0.13916402E+03</pdfrwt>
<totfact> 0.96624868E+03</totfact>
</mgrwt>
</event>
<event>
 7    1  0.5107591E-006  0.2426975E+03  0.7546771E-02  0.1143973E+00
         -1   -1    0    0    0  501 -0.00000000000E+00  0.00000000000E+00  0.45135576877E+03  0.45135576877E+03  0.00000000000E+00 0.  1.
          1   -1    0    0  501    0  0.00000000000E+00 -0.00000000000E+00 -0.18258667946E+03  0.18258667946E+03  0.00000000000E+00 0. -1.
         23    2    1    2    0    0 -0.59768447921E+02 -0.67136533240E+02 -0.11992548249E+03  0.17570065305E+03  0.91700690665E+02 0.  0.
          5    1    1    2  502    0 -0.57828048481E+02 -0.36761563188E+02  0.50075076794E+02  0.85000582557E+02  0.47000000000E+01 0. -1.
         -5    1    1    2    0  502  0.11759649640E+03  0.10389809643E+03  0.33861949500E+03  0.37324121262E+03  0.47000000000E+01 0.  1.
        -11    1    3    3    0    0  0.24523296093E+02 -0.21039784306E+02 -0.31637294196E+02  0.45221487801E+02  0.00000000000E+00 0.  1.
         11    1    3    3    0    0 -0.84291744014E+02 -0.46096748935E+02 -0.88288188291E+02  0.13047916524E+03  0.00000000000E+00 0. -1.
<mgrwt>
<rscale>  0 0.20698884E+03</rscale>
<asrwt>0</asrwt>
<pdfrwt beam="2">  1        1 0.28090259E-01 0.24269749E+03</pdfrwt>
<pdfrwt beam="1">  1       -1 0.69439349E-01 0.24269749E+03</pdfrwt>
<totfact> 0.36113354E+02</totfact>
</mgrwt>
</event>
<event>
 7    1  0.5107591E-006  0.1874498E+03  0.7546771E-02  0.1165906E+00
          1   -1    0    0  501    0  0.00000000000E+00  0.00000000000E+00  0.58067396396E+03  0.58067396396E+03  0.00000000000E+00 0. -1.
         -1   -1    0    0    0  501 -0.00000000000E+00 -0.00000000000E+00 -0.55182849292E+02  0.55182849292E+02  0.00000000000E+00 0.  1.
         23    2    1    2    0    0  0.13955106695E+03 -0.60327076476E+01  0.29527870017E+03  0.33898109475E+03  0.90596787869E+02 0.  0.
          5    1    1    2  502    0 -0.22155637931E+01  0.37641824923E+02  0.91512788792E+02  0.99088325342E+02  0.47000000000E+01 0.  1.
         -5    1    1    2    0  502 -0.13733550316E+03 -0.31609117275E+02  0.13869962570E+03  0.19778739316E+03  0.47000000000E+01 0.  1.
        -11    1    3    3    0    0  0.11946693008E+03 -0.66407861054E+01  0.29558661688E+03  0.31888539556E+03  0.00000000000E+00 0. -1.
         11    1    3    3    0    0  0.20084136871E+02  0.60807845781E+00 -0.30791670482E+00  0.20095699190E+02  0.00000000000E+00 0.  1.
<mgrwt>
<rscale>  0 0.18197441E+03</rscale>
<asrwt>0</asrwt>
<pdfrwt beam="1">  1        1 0.89334452E-01 0.18744982E+03</pdfrwt>
<pdfrwt beam="2">  1       -1 0.84896695E-02 0.18744982E+03</pdfrwt>
<totfact> 0.28559902E+03</totfact>
</mgrwt>
</event>
<event>
 7    1  0.5107591E-006  0.2278766E+03  0.7546771E-02  0.1140460E+00
         -1   -1    0    0    0  501 -0.00000000000E+00  0.00000000000E+00  0.67090080836E+02  0.67090080836E+02  0.00000000000E+00 0.  1.
          1   -1    0    0  501    0  0.00000000000E+00 -0.00000000000E+00 -0.66090543216E+03  0.66090543216E+03  0.00000000000E+00 0. -1.
         23    2    1    2    0    0  0.10497087239E+03  0.97732673919E+02 -0.37875013052E+03  0.41465737530E+03  0.88986054615E+02 0.  0.
          5    1    1    2  502    0 -0.18591709407E+02  0.48303322500E+02 -0.84468048601E+02  0.99175621287E+02  0.47000000000E+01 0. -1.
         -5    1    1    2    0  502 -0.86379162986E+02 -0.14603599642E+03 -0.13059717220E+03  0.21416251641E+03  0.47000000000E+01 0.  1.
        -11    1    3    3    0    0  0.30590772192E+02 -0.13117551092E+02 -0.52611415766E+02  0.62256136717E+02  0.00000000000E+00 0.  1.
         11    1    3    3    0    0  0.74380100201E+02  0.11085022501E+03 -0.32613871476E+03  0.35240123858E+03  0.00000000000E+00 0. -1.
<mgrwt>
<rscale>  0 0.21140224E+03</rscale>
<asrwt>0</asrwt>
<pdfrwt beam="2">  1        1 0.10167776E+00 0.22787659E+03</pdfrwt>
<pdfrwt beam="1">  1       -1 0.10321551E-01 0.22787659E+03</pdfrwt>
<totfact> 0.17732089E+03</totfact>
</mgrwt>
</event>
<event>
 7    1  0.5107591E-006  0.1210508E+03  0.7546771E-02  0.1249697E+00
          2   -1    0    0  501    0  0.00000000000E+00  0.00000000000E+00  0.17481074929E+03  0.17481074929E+03  0.00000000000E+00 0. -1.
         -2   -1    0    0    0  501 -0.00000000000E+00 -0.00000000000E+00 -0.74298479875E+02  0.74298479875E+02  0.00000000000E+00 0.  1.
         23    2    1    2    0    0  0.36654765642E+02 -0.31717428254E+02  0.70767619403E+02  0.12445754356E+03  0.90177919098E+02 0.  0.
          5    1    1    2  502    0 -0.18506169890E+02 -0.79999934119E+01  0.65072956809E+02  0.68286586725E+02  0.47000000000E+01 0. -1.
         -5    1    1    2    0  502 -0.18148595752E+02  0.39717421666E+02 -0.35328306795E+02  0.56365098887E+02  0.47000000000E+01 0.  1.
        -11    1    3    3    0    0  0.58502787560E+02 -0.46128171241E+02  0.41834395820E+02  0.85442969330E+02  0.00000000000E+00 0. -1.
         11    1    3    3    0    0 -0.21848021917E+02  0.14410742988E+02  0.28933223583E+02  0.39014574226E+02  0.00000000000E+00 0.  1.
<mgrwt>
<rscale>  0 0.11608587E+03</rscale>
<asrwt>0</asrwt>
<pdfrwt beam="1">  1        2 0.26893961E-01 0.12105081E+03</pdfrwt>
<pdfrwt beam="2">  1       -2 0.11430535E-01 0.12105081E+03</pdfrwt>
<totfact> 0.98957767E+03</totfact>
</mgrwt>
</event>
<event>
 7    1  0.5107591E-006  0.1492426E+03  0.7546771E-02  0.1210330E+00
          3   -1    0    0  501    0  0.00000000000E+00  0.00000000000E+00  0.21764969476E+03  0.21764969476E+03  0.00000000000E+00 0. -1.
         -3   -1    0    0    0  501 -0.00000000000E+00 -0.00000000000E+00 -0.87037104789E+02  0.87037104789E+02  0.00000000000E+00 0.  1.
         23    2    1    2    0    0  0.38049461772E+02 -0.72119658427E+02  0.80933045472E+02  0.14739275911E+03  0.92333422531E+02 0.  0.
          5    1    1    2  502    0 -0.50931329334E+02 -0.13567564941E+02  0.46522255180E+02  0.70459132504E+02  0.47000000000E+01 0. -1.
         -5    1    1    2    0  502  0.12881867562E+02  0.85687223368E+02  0.31572893220E+01  0.86834907936E+02  0.47000000000E+01 0. -1.
        -11    1    3    3    0    0  0.64183600714E+02 -0.36714915799E+02  0.29261561252E+02  0.79522063665E+02  0.00000000000E+00 0.  1.
         11    1    3    3    0    0 -0.26134138942E+02 -0.35404742629E+02  0.51671484220E+02  0.67870695446E+02  0.00000000000E+00 0. -1.
<mgrwt>
<rscale>  0 0.14225214E+03</rscale>
<asrwt>0</asrwt>
<pdfrwt beam="1">  1        3 0.33484568E-01 0.14924261E+03</pdfrwt>
<pdfrwt beam="2">  1       -3 0.13390324E-01 0.14924261E+03</pdfrwt>
<totfact> 0.92237556E+02</totfact>
</mgrwt>
</event>
<event>
 7    1  0.5107591E-006  0.1562881E+03  0.7546771E-02  0.1201198E+00
          1   -1    0    0  501    0  0.00000000000E+00  0.00000000000E+00  0.52564985957E+03  0.52564985957E+03  0.00000000000E+00 0. -1.
         -1   -1    0    0    0  501 -0.00000000000E+00 -0.00000000000E+00 -0.45542190972E+02  0.45542190972E+02  0.00000000000E+00 0.  1.
         23    2    1    2    0    0  0.76712131524E+02  0.53980070111E+02  0.32834224645E+03  0.35334187657E+03  0.90792355616E+02 0.  0.
          5    1    1    2  502    0 -0.10297208024E+03 -0.62158965627E+02  0.14623647816E+03  0.18940481478E+03  0.47000000000E+01 0. -1.
         -5    1    1    2    0  502  0.26259948715E+02  0.81788955157E+01  0.55289439894E+01  0.28445359200E+02  0.47000000000E+01 0. -1.
        -11    1    3    3    0    0  0.33289426769E+02  0.44415340343E+02  0.28801372512E+03  0.29331350847E+03  0.00000000000E+00 0. -1.
         11    1    3    3    0    0  0.43422704756E+02  0.95647297682E+01  0.40328521334E+02  0.60028368100E+02  0.00000000000E+00 0.  1.
<mgrwt>
<rscale>  0 0.14941147E+03</rscale>
<asrwt>0</asrwt>
<pdfrwt beam="1">  1        1 0.80869205E-01 0.15628805E+03</pdfrwt>
<pdfrwt beam="2">  1       -1 0.70064913E-02 0.15628805E+03</pdfrwt>
<totfact> 0.43376768E+03</totfact>
</mgrwt>
</event>
<event>
 7    1  0.5107591E-006  0.1763445E+03  0.7546771E-02  0.1178978E+00
         -1   -1    0    0    0  501 -0.00000000000E+00  0.00000000000E+00  0.31237591355E+02  0.31237591355E+02  0.00000000000E+00 0.  1.
          1   -1    0    0  501    0  0.00000000000E+00 -0.00000000000E+00 -0.89955714830E+03  0.89955714830E+03  0.00000000000E+00 0. -1.
         23    2    1    2    0    0  0.45650858615E+02 -0.11571679726E+03 -0.51405398633E+03  0.53506570038E+03  0.81051988289E+02 0.  0.
          5    1    1    2  502    0 -0.64446004177E+02  0.60113918434E+01 -0.13475726710E+03  0.14956949998E+03  0.47000000000E+01 0.  1.
         -5    1    1    2    0  502  0.18795145562E+02  0.10970540542E+03 -0.21950830352E+03  0.24615953930E+03  0.47000000000E+01 0.  1.
        -11    1    3    3    0    0 -0.19354717492E+02 -0.17036332620E+02 -0.15324737818E+03  0.15540141775E+03  0.00000000000E+00 0. -1.
         11    1    3    3    0    0  0.65005576107E+02 -0.98680464641E+02 -0.36080660815E+03  0.37966428263E+03  0.00000000000E+00 0.  1.
<mgrwt>
<rscale>  0 0.16892045E+03</rscale>
<asrwt>0</asrwt>
<pdfrwt beam="2">  1        1 0.13839340E+00 0.17634449E+03</pdfrwt>
<pdfrwt beam="1">  1       -1 0.48057836E-02 0.17634449E+03</pdfrwt>
<totfact> 0.35271719E+03</totfact>
</mgrwt>
</event>
<event>
 7    1  0.5107591E-006  0.1508426E+03  0.7546771E-02  0.1208831E+00
         -1   -1    0    0    0  501 -0.00000000000E+00  0.00000000000E+00  0.26854009679E+03  0.26854009679E+03  0.00000000000E+00 0.  1.
          1   -1    0    0  501    0  0.00000000000E+00 -0.00000000000E+00 -0.86336077077E+02  0.86336077077E+02  0.00000000000E+00 0. -1.
         23    2    1    2    0    0 -0.31300811892E+02  0.78408972068E+02  0.65827522877E+01  0.12336739439E+03  0.89713285782E+02 0.  0.
          5    1    1    2  502    0  0.45564020417E+02 -0.94108443871E+02  0.18104025315E+03  0.20911753256E+03  0.47000000000E+01 0.  1.
         -5    1    1    2    0  502 -0.14263208525E+02  0.15699471803E+02 -0.54189857186E+01  0.22391246917E+02  0.47000000000E+01 0.  1.
        -11    1    3    3    0    0 -0.36234819991E+01 -0.20327293113E+02  0.85358318366E+00  0.20665359211E+02  0.00000000000E+00 0.  1.
         11    1    3    3    0    0 -0.27677329893E+02  0.98736265181E+02  0.57291691040E+01  0.10270203518E+03  0.00000000000E+00 0. -1.
<mgrwt>
<rscale>  0 0.14339641E+03</rscale>
<asrwt>0</asrwt>
<pdfrwt beam="2">  1        1 0.13282473E-01 0.15084258E+03</pdfrwt>
<pdfrwt beam="1">  1       -1 0.41313861E-01 0.15084258E+03</pdfrwt>
<totfact> 0.24838971E+03</totfact>
</mgrwt>
</event>
<event>
 7    1  0.5107591E-006  0.1645408E+03  0.7546771E-02  0.1190660E+00
         -2   -1    0    0    0  501 -0.00000000000E+00  0.00000000000E+00  0.25488550269E+02  0.25488550269E+02  0.00000000000E+00 0.  1.
          2   -1    0    0  501    0  0.00000000000E+00 -0.00000000000E+00 -0.91996146818E+03  0.91996146818E+03  0.00000000000E+00 0. -1.
         23    2    1    2    0    0  0.10096116369E+03 -0.35426153494E+02 -0.44782730917E+03  0.46946056007E+03  0.91628323685E+02 0.  0.
          5    1    1    2  502    0 -0.81804064164E+02  0.49264902907E+02 -0.44099517762E+03  0.45124026001E+03  0.47000000000E+01 0. -1.
         -5    1    1    2    0  502 -0.19157099531E+02 -0.13838749413E+02 -0.56504311234E+01  0.24749198364E+02  0.47000000000E+01 0. -1.
        -11    1    3    3    0    0  0.54313757563E+02  0.13608116509E+02 -0.95602033023E+02  0.11079221008E+03  0.00000000000E+00 0.  1.
         11    1    3    3    0    0  0.46647406132E+02 -0.49034270003E+02 -0.35222527614E+03  0.35866835000E+03  0.00000000000E+00 0. -1.
<mgrwt>
<rscale>  0 0.15827363E+03</rscale>
<asrwt>0</asrwt>
<pdfrwt beam="2">  1        2 0.14153252E+00 0.16454077E+03</pdfrwt>
<pdfrwt beam="1">  1       -2 0.39213158E-02 0.16454077E+03</pdfrwt>
<totfact> 0.81484496E+03</totfact>
</mgrwt>
</event>
<event>
 7    1  0.5107591E-006  0.1463612E+03  0.7546771E-02  0.1211592E+00
         -1   -1    0    0    0  501 -0.00000000000E+00  0.00000000000E+00  0.84163780739E+02  0.84163780739E+02  0.00000000000E+00 0.  1.
          1   -1    0    0  501    0  0.00000000000E+00 -0.00000000000E+00 -0.25766475296E+03  0.25766475296E+03  0.00000000000E+00 0. -1.
         23    2    1    2    0    0  0.38269186605E+02  0.76796752062E+02 -0.14477242568E+03  0.19267450362E+03  0.93819706558E+02 0.  0.
          5    1    1    2  502    0 -0.62639494802E+02  0.24523987558E+01 -0.18196797087E+02  0.65444128789E+02  0.47000000000E+01 0. -1.
         -5    1    1    2    0  502  0.24370308197E+02 -0.79249150818E+02 -0.10531749457E+02  0.83709901288E+02  0.47000000000E+01 0.  1.
        -11    1    3    3    0    0 -0.54180631202E+01 -0.19056694981E+02 -0.37007517472E+02  0.41977010148E+02  0.00000000000E+00 0.  1.
         11    1    3    3    0    0  0.43687249725E+02  0.95853447043E+02 -0.10776490820E+03  0.15069749347E+03  0.00000000000E+00 0. -1.
<mgrwt>
<rscale>  0 0.14129910E+03</rscale>
<asrwt>0</asrwt>
<pdfrwt beam="2">  1        1 0.39640731E-01 0.14636118E+03</pdfrwt>
<pdfrwt beam="1">  1       -1 0.12948274E-01 0.14636118E+03</pdfrwt>
<totfact> 0.41685069E+03</totfact>
</mgrwt>
</event>
<event>
 7    1  0.5107591E-006  0.1334807E+03  0.7546771E-02  0.1234608E+00
          1   -1    0    0  501    0  0.00000000000E+00  0.00000000000E+00  0.35525663543E+02  0.35525663543E+02  0.00000000000E+00 0. -1.
         -1   -1    0    0    0  501 -0.00000000000E+00 -0.00000000000E+00 -0.41663922687E+03  0.41663922687E+03  0.00000000000E+00 0.  1.
         23    2    1    2    0    0  0.33098068876E+02  0.32940873869E+02 -0.11740448793E+03  0.15659835441E+03  0.92512958465E+02 0.  0.
          5    1    1    2  502    0  0.11963913372E+02 -0.50779086170E+02 -0.23110560852E+03  0.23696738827E+03  0.47000000000E+01 0.  1.
         -5    1    1    2    0  502 -0.45061982248E+02  0.17838212301E+02 -0.32603466880E+02  0.58599147731E+02  0.47000000000E+01 0.  1.
        -11    1    3    3    0    0  0.19782562517E+02 -0.62900108295E+01 -0.11305119095E+03  0.11494122755E+03  0.00000000000E+00 0.  1.
         11    1    3    3    0    0  0.13315506360E+02  0.39230884698E+02 -0.43532969825E+01  0.41657126863E+02  0.00000000000E+00 0. -1.
<mgrwt>
<rscale>  0 0.12529552E+03</rscale>
<asrwt>0</asrwt>
<pdfrwt beam="1">  1        1 0.54654864E-02 0.13348071E+03</pdfrwt>
<pdfrwt beam="2">  1       -1 0.64098346E-01 0.13348071E+03</pdfrwt>
<totfact> 0.36045892E+03</totfact>
</mgrwt>
</event>
<event>
 7    1  0.5107591E-006  0.1402759E+03  0.7546771E-02  0.1223656E+00
         -1   -1    0    0    0  501 -0.00000000000E+00  0.00000000000E+00  0.41774396717E+03  0.41774396717E+03  0.00000000000E+00 0.  1.
          1   -1    0    0  501    0  0.00000000000E+00 -0.00000000000E+00 -0.44492647261E+02  0.44492647261E+02  0.00000000000E+00 0. -1.
         23    2    1    2    0    0 -0.62729139829E+02 -0.10771677209E+02  0.81455275511E+02  0.13847396676E+03  0.92136331315E+02 0.  0.
          5    1    1    2  502    0  0.70522327991E+02 -0.42816698690E+02  0.20873094311E+03  0.22449357462E+03  0.47000000000E+01 0.  1.
         -5    1    1    2    0  502 -0.77931881617E+01  0.53588375899E+02  0.83065101284E+02  0.99269073051E+02  0.47000000000E+01 0.  1.
        -11    1    3    3    0    0  0.13231706138E+02 -0.60554144876E+01 -0.11348679140E+02  0.18453688253E+02  0.00000000000E+00 0. -1.
         11    1    3    3    0    0 -0.75960845967E+02 -0.47162627218E+01  0.92803954650E+02  0.12002027851E+03  0.00000000000E+00 0.  1.
<mgrwt>
<rscale>  0 0.13259427E+03</rscale>
<asrwt>0</asrwt>
<pdfrwt beam="2">  1        1 0.68450229E-02 0.14027587E+03</pdfrwt>
<pdfrwt beam="1">  1       -1 0.64268300E-01 0.14027587E+03</pdfrwt>
<totfact> 0.26495612E+03</totfact>
</mgrwt>
</event>
<event>
 7    1  0.5107591E-006  0.1445111E+03  0.7546771E-02  0.1217849E+00
          1   -1    0    0  501    0  0.00000000000E+00  0.00000000000E+00  0.33307015403E+03  0.33307015403E+03  0.00000000000E+00 0. -1.
         -1   -1    0    0    0  501 -0.00000000000E+00 -0.00000000000E+00 -0.71909431194E+02  0.71909431194E+02  0.00000000000E+00 0.  1.
         23    2    1    2    0    0 -0.72506284747E+02  0.73608693076E+00  0.22954698213E+03  0.25705089676E+03  0.90142350572E+02 0.  0.
          5    1    1    2  502    0 -0.26753402399E+02  0.82726484717E+00  0.39817591814E+02  0.48207463373E+02  0.47000000000E+01 0.  1.
         -5    1    1    2    0  502  0.99259687145E+02 -0.15633517779E+01 -0.82038511091E+01  0.99721225093E+02  0.47000000000E+01 0.  1.
        -11    1    3    3    0    0  0.31568953418E+01 -0.31750324028E+02  0.47182610059E+02  0.56958298395E+02  0.00000000000E+00 0.  1.
         11    1    3    3    0    0 -0.75663180089E+02  0.32486410959E+02  0.18236437207E+03  0.20009259836E+03  0.00000000000E+00 0. -1.
<mgrwt>
<rscale>  0 0.13669309E+03</rscale>
<asrwt>0</asrwt>
<pdfrwt beam="1">  1        1 0.51241561E-01 0.14451114E+03</pdfrwt>
<pdfrwt beam="2">  1       -1 0.11062990E-01 0.14451114E+03</pdfrwt>
<totfact> 0.38638452E+03</totfact>
</mgrwt>
</event>
<event>
 7    1  0.5107591E-006  0.1675327E+03  0.7546771E-02  0.1188106E+00
          1   -1    0    0  501    0  0.00000000000E+00  0.00000000000E+00  0.37854289109E+03  0.37854289109E+03  0.00000000000E+00 0. -1.
         -1   -1    0    0    0  501 -0.00000000000E+00 -0.00000000000E+00 -0.69838146672E+02  0.69838146672E+02  0.00000000000E+00 0.  1.
         23    2    1    2    0    0  0.36027892297E+02  0.10557119681E+03  0.21264854235E+03  0.25526446361E+03  0.86586703394E+02 0.  0.
          5    1    1    2  502    0  0.34146169788E+02 -0.22778534805E+02  0.70190062777E+02  0.81446654147E+02  0.47000000000E+01 0. -1.
         -5    1    1    2    0  502 -0.70174062085E+02 -0.82792662001E+02  0.25866139294E+02  0.11166992000E+03  0.47000000000E+01 0. -1.
        -11    1    3    3    0    0 -0.17145725459E+02  0.66058665274E+02  0.68868705891E+02  0.96956803837E+02  0.00000000000E+00 0.  1.
         11    1    3    3    0    0  0.53173617756E+02  0.39512531532E+02  0.14377983645E+03  0.15830765978E+03  0.00000000000E+00 0. -1.
<mgrwt>
<rscale>  0 0.16052471E+03</rscale>
<asrwt>0</asrwt>
<pdfrwt beam="1">  1        1 0.58237367E-01 0.16753273E+03</pdfrwt>
<pdfrwt beam="2">  1       -1 0.10744330E-01 0.16753273E+03</pdfrwt>
<totfact> 0.34653139E+03</totfact>
</mgrwt>
</event>
<event>
 7    1  0.5107591E-006  0.2309974E+03  0.7546771E-02  0.1128734E+00
         -1   -1    0    0    0  501 -0.00000000000E+00  0.00000000000E+00  0.10705579939E+03  0.10705579939E+03  0.00000000000E+00 0.  1.
          1   -1    0    0  501    0  0.00000000000E+00 -0.00000000000E+00 -0.46583578739E+03  0.46583578739E+03  0.00000000000E+00 0. -1.
         23    2    1    2    0    0  0.18972350594E+03 -0.41900068704E+02 -0.17671134392E+03  0.27876778134E+03  0.93455617155E+02 0.  0.
          5    1    1    2  502    0 -0.19211942530E+03  0.24763553111E+02 -0.11637517364E+03  0.22602738370E+03  0.47000000000E+01 0. -1.
         -5    1    1    2    0  502  0.23959193645E+01  0.17136515593E+02 -0.65693470436E+02  0.68096421743E+02  0.47000000000E+01 0. -1.
        -11    1    3    3    0    0  0.12031974863E+03  0.20415778051E+02 -0.92981466624E+02  0.15342489707E+03  0.00000000000E+00 0. -1.
         11    1    3    3    0    0  0.69403757309E+02 -0.62315846755E+02 -0.83729877297E+02  0.12534288427E+03  0.00000000000E+00 0.  1.
<mgrwt>
<rscale>  0 0.22704869E+03</rscale>
<asrwt>0</asrwt>
<pdfrwt beam="2">  1        1 0.71667043E-01 0.23099745E+03</pdfrwt>
<pdfrwt beam="1">  1       -1 0.16470123E-01 0.23099745E+03</pdfrwt>
<totfact> 0.13699938E+03</totfact>
</mgrwt>
</event>
<event>
 7    1  0.5107591E-006  0.1475495E+03  0.7546771E-02  0.1212773E+00
         -1   -1    0    0    0  501 -0.00000000000E+00  0.00000000000E+00  0.61327276008E+02  0.61327276008E+02  0.00000000000E+00 0.  1.
          1   -1    0    0  501    0  0.00000000000E+00 -0.00000000000E+00 -0.32881203616E+03  0.32881203616E+03  0.00000000000E+00 0. -1.
         23    2    1    2    0    0  0.61717735941E+02  0.48351146000E+02 -0.18510286890E+03  0.22114927314E+03  0.92179263872E+02 0.  0.
          5    1    1    2  502    0 -0.77497097662E+01 -0.12506462330E+02 -0.10039901826E+03  0.10158012831E+03  0.47000000000E+01 0.  1.
         -5    1    1    2    0  502 -0.53968026175E+02 -0.35844683670E+02  0.18017127004E+02  0.67409910711E+02  0.47000000000E+01 0.  1.
        -11    1    3    3    0    0  0.16279786755E+02  0.37443570999E+02 -0.13051140121E+02  0.42864725876E+02  0.00000000000E+00 0.  1.
         11    1    3    3    0    0  0.45437949186E+02  0.10907575000E+02 -0.17205172878E+03  0.17828454727E+03  0.00000000000E+00 0. -1.
<mgrwt>
<rscale>  0 0.14041404E+03</rscale>
<asrwt>0</asrwt>
<pdfrwt beam="2">  1        1 0.50586467E-01 0.14754951E+03</pdfrwt>
<pdfrwt beam="1">  1       -1 0.94349656E-02 0.14754951E+03</pdfrwt>
<totfact> 0.50152066E+03</totfact>
</mgrwt>
</event>
<event>
 7    1  0.5107591E-006  0.1870740E+03  0.7546771E-02  0.1166878E+00
         -1   -1    0    0    0  501 -0.00000000000E+00  0.00000000000E+00  0.66655205223E+03  0.66655205223E+03  0.00000000000E+00 0.  1.
          1   -1    0    0  501    0  0.00000000000E+00 -0.00000000000E+00 -0.55400778034E+02  0.55400778034E+02  0.00000000000E+00 0. -1.
         23    2    1    2    0    0  0.11200493879E+03 -0.82646898435E+02  0.14161661913E+03  0.21652285851E+03  0.86320711947E+02 0.  0.
          5    1    1    2  502    0 -0.11453911412E+03  0.30607623462E+02  0.21492042426E+03  0.24549727909E+03  0.47000000000E+01 0. -1.
         -5    1    1    2    0  502  0.25341753245E+01  0.52039274974E+02  0.25461423081E+03  0.25993269267E+03  0.47000000000E+01 0. -1.
        -11    1    3    3    0    0  0.20868957898E+02 -0.55996874346E+02  0.21726561286E+02  0.63586215531E+02  0.00000000000E+00 0. -1.
         11    1    3    3    0    0  0.91135980893E+02 -0.26650024090E+02  0.11989005784E+03  0.15293664298E+03  0.00000000000E+00 0.  1.
<mgrwt>
<rscale>  0 0.18095945E+03</rscale>
<asrwt>0</asrwt>
<pdfrwt beam="2">  1        1 0.85231971E-02 0.18707395E+03</pdfrwt>
<pdfrwt beam="1">  1       -1 0.10254646E+00 0.18707395E+03</pdfrwt>
<totfact> 0.75591550E+02</totfact>
</mgrwt>
</event>
<event>
 7    1  0.5107591E-006  0.1315224E+03  0.7546771E-02  0.1238228E+00
          1   -1    0    0  501    0  0.00000000000E+00  0.00000000000E+00  0.38632177776E+02  0.38632177776E+02  0.00000000000E+00 0. -1.
         -1   -1    0    0    0  501 -0.00000000000E+00 -0.00000000000E+00 -0.35493442238E+03  0.35493442238E+03  0.00000000000E+00 0.  1.
         23    2    1    2    0    0  0.46688318189E+01  0.40204775940E+02 -0.11159626280E+03  0.15025061589E+03  0.92104829980E+02 0.  0.
          5    1    1    2  502    0 -0.37658203928E+02  0.16778240797E+02 -0.15561458730E+03  0.16105166708E+03  0.47000000000E+01 0.  1.
         -5    1    1    2    0  502  0.32989372109E+02 -0.56983016737E+02 -0.49091394511E+02  0.82264317195E+02  0.47000000000E+01 0.  1.
        -11    1    3    3    0    0 -0.43026934734E+02  0.17200097823E+02 -0.64255032548E+02  0.79220386805E+02  0.00000000000E+00 0.  1.
         11    1    3    3    0    0  0.47695766552E+02  0.23004678117E+02 -0.47341230250E+02  0.71030229085E+02  0.00000000000E+00 0. -1.
<mgrwt>
<rscale>  0 0.12300008E+03</rscale>
<asrwt>0</asrwt>
<pdfrwt beam="1">  1        1 0.59434120E-02 0.13152235E+03</pdfrwt>
<pdfrwt beam="2">  1       -1 0.54605295E-01 0.13152235E+03</pdfrwt>
<totfact> 0.43520164E+03</totfact>
</mgrwt>
</event>
<event>
 7    1  0.5107591E-006  0.1320144E+03  0.7546771E-02  0.1238729E+00
          1   -1    0    0  501    0  0.00000000000E+00  0.00000000000E+00  0.99367160728E+02  0.99367160728E+02  0.00000000000E+00 0. -1.
         -1   -1    0    0    0  501 -0.00000000000E+00 -0.00000000000E+00 -0.13366156084E+03  0.13366156084E+03  0.00000000000E+00 0.  1.
         23    2    1    2    0    0 -0.22792226079E+02  0.35928332228E+02 -0.14299335240E+02  0.99508630538E+02  0.88809717581E+02 0.  0.
          5    1    1    2  502    0  0.57897282802E+02 -0.20848260500E+02  0.31449890781E+02  0.69267098625E+02  0.47000000000E+01 0.  1.
         -5    1    1    2    0  502 -0.35105056724E+02 -0.15080071728E+02 -0.51444955651E+02  0.64252992404E+02  0.47000000000E+01 0.  1.
        -11    1    3    3    0    0 -0.37682656419E+02 -0.11008843850E+02 -0.28206113503E+02  0.48340066990E+02  0.00000000000E+00 0.  1.
         11    1    3    3    0    0  0.14890430340E+02  0.46937176078E+02  0.13906778263E+02  0.51168563547E+02  0.00000000000E+00 0. -1.
<mgrwt>
<rscale>  0 0.12268700E+03</rscale>
<asrwt>0</asrwt>
<pdfrwt beam="1">  1        1 0.15287256E-01 0.13201444E+03</pdfrwt>
<pdfrwt beam="2">  1       -1 0.20563317E-01 0.13201444E+03</pdfrwt>
<totfact> 0.66258106E+03</totfact>
</mgrwt>
</event>
<event>
 7    1  0.5107591E-006  0.1280670E+03  0.7546771E-02  0.1248603E+00
          1   -1    0    0  501    0  0.00000000000E+00  0.00000000000E+00  0.25297885950E+03  0.25297885950E+03  0.00000000000E+00 0. -1.
         -1   -1    0    0    0  501 -0.00000000000E+00 -0.00000000000E+00 -0.61282377556E+02  0.61282377556E+02  0.00000000000E+00 0.  1.
         23    2    1    2    0    0 -0.94288345879E+00 -0.27870657783E+02  0.15928372878E+03  0.18215622989E+03  0.83856563495E+02 0.  0.
          5    1    1    2  502    0  0.45838509593E+02 -0.26746953869E+02  0.30134887903E+02  0.61210864819E+02  0.47000000000E+01 0.  1.
         -5    1    1    2    0  502 -0.44895626134E+02  0.54617611652E+02  0.22778652632E+01  0.70894142344E+02  0.47000000000E+01 0.  1.
        -11    1    3    3    0    0 -0.23535677590E+02 -0.50063963846E+02  0.11608068297E+03  0.12858869917E+03  0.00000000000E+00 0. -1.
         11    1    3    3    0    0  0.22592794131E+02  0.22193306064E+02  0.43203045809E+02  0.53567530724E+02  0.00000000000E+00 0.  1.
<mgrwt>
<rscale>  0 0.11672297E+03</rscale>
<asrwt>0</asrwt>
<pdfrwt beam="1">  1        1 0.38919824E-01 0.12806696E+03</pdfrwt>
<pdfrwt beam="2">  1       -1 0.94280583E-02 0.12806696E+03</pdfrwt>
<totfact> 0.68857406E+03</totfact>
</mgrwt>
</event>
<event>
 7    1  0.5107591E-006  0.2072395E+03  0.7546771E-02  0.1149484E+00
         -2   -1    0    0    0  501 -0.00000000000E+00  0.00000000000E+00  0.30434840865E+02  0.30434840865E+02  0.00000000000E+00 0.  1.
          2   -1    0    0  501    0  0.00000000000E+00 -0.00000000000E+00 -0.13582878429E+04  0.13582878429E+04  0.00000000000E+00 0. -1.
         23    2    1    2    0    0  0.15761486076E+03  0.10095240437E+02 -0.82969696331E+03  0.84917877497E+03  0.88108925267E+02 0.  0.
          5    1    1    2  502    0  0.97209261673E+01 -0.12323747438E+02 -0.17341975645E+03  0.17419205804E+03  0.47000000000E+01 0.  1.
         -5    1    1    2    0  502 -0.16733578693E+03  0.22285070009E+01 -0.32473628228E+03  0.36535185077E+03  0.47000000000E+01 0.  1.
        -11    1    3    3    0    0  0.45507753038E+02 -0.30587504380E+02 -0.16513031048E+03  0.17399589205E+03  0.00000000000E+00 0.  1.
         11    1    3    3    0    0  0.11210710772E+03  0.40682744818E+02 -0.66456665283E+03  0.67518288291E+03  0.00000000000E+00 0. -1.
<mgrwt>
<rscale>  0 0.20030201E+03</rscale>
<asrwt>0</asrwt>
<pdfrwt beam="2">  1        2 0.20896738E+00 0.20723945E+03</pdfrwt>
<pdfrwt beam="1">  1       -2 0.46822827E-02 0.20723945E+03</pdfrwt>
<totfact> 0.35133140E+03</totfact>
</mgrwt>
</event>
<event>
 7    1  0.5107591E-006  0.1390762E+03  0.7546771E-02  0.1228412E+00
          1   -1    0    0  501    0  0.00000000000E+00  0.00000000000E+00  0.11710050722E+03  0.11710050722E+03  0.00000000000E+00 0. -1.
         -1   -1    0    0    0  501 -0.00000000000E+00 -0.00000000000E+00 -0.15469687286E+03  0.15469687286E+03  0.00000000000E+00 0.  1.
         23    2    1    2    0    0  0.13839795779E+02  0.59380140822E+02  0.41204442837E+02  0.11194821110E+03  0.84362638581E+02 0.  0.
          5    1    1    2  502    0 -0.16833499298E+02 -0.81503909626E+02 -0.98970770378E+02  0.12939689862E+03  0.47000000000E+01 0.  1.
         -5    1    1    2    0  502  0.29937035183E+01  0.22123768804E+02  0.20169961904E+02  0.30452270359E+02  0.47000000000E+01 0.  1.
        -11    1    3    3    0    0  0.28559815209E+02  0.58555452182E+02 -0.31324471543E+01  0.65224353199E+02  0.00000000000E+00 0.  1.
         11    1    3    3    0    0 -0.14720019430E+02  0.82468864020E+00  0.44336889991E+02  0.46723857904E+02  0.00000000000E+00 0. -1.
<mgrwt>
<rscale>  0 0.12935738E+03</rscale>
<asrwt>0</asrwt>
<pdfrwt beam="1">  1        1 0.18015463E-01 0.13907620E+03</pdfrwt>
<pdfrwt beam="2">  1       -1 0.23799519E-01 0.13907620E+03</pdfrwt>
<totfact> 0.42464960E+03</totfact>
</mgrwt>
</event>
<event>
 7    1  0.5107591E-006  0.1409038E+03  0.7546771E-02  0.1222771E+00
         -1   -1    0    0    0  501 -0.00000000000E+00  0.00000000000E+00  0.12741394705E+03  0.12741394705E+03  0.00000000000E+00 0.  1.
          1   -1    0    0  501    0  0.00000000000E+00 -0.00000000000E+00 -0.13089242073E+03  0.13089242073E+03  0.00000000000E+00 0. -1.
         23    2    1    2    0    0  0.27997216577E+02 -0.58702244800E+02 -0.26250447945E+02  0.11557432721E+03  0.91861533909E+02 0.  0.
          5    1    1    2  502    0 -0.17572122659E+01  0.33626234993E+02 -0.50471096766E+02  0.60854195282E+02  0.47000000000E+01 0. -1.
         -5    1    1    2    0  502 -0.26240004311E+02  0.25076009807E+02  0.73243071033E+02  0.81877845285E+02  0.47000000000E+01 0. -1.
        -11    1    3    3    0    0  0.10362505011E+02  0.98320586887E+00  0.29956858504E+02  0.31713744265E+02  0.00000000000E+00 0.  1.
         11    1    3    3    0    0  0.17634711566E+02 -0.59685450669E+02 -0.56207306449E+02  0.83860582945E+02  0.00000000000E+00 0. -1.
<mgrwt>
<rscale>  0 0.13320849E+03</rscale>
<asrwt>0</asrwt>
<pdfrwt beam="2">  1        1 0.20137295E-01 0.14090377E+03</pdfrwt>
<pdfrwt beam="1">  1       -1 0.19602146E-01 0.14090377E+03</pdfrwt>
<totfact> 0.50476339E+03</totfact>
</mgrwt>
</event>
<event>
 7    1  0.5107591E-006  0.1990426E+03  0.7546771E-02  0.1154602E+00
          2   -1    0    0  501    0  0.00000000000E+00  0.00000000000E+00  0.33933326634E+03  0.33933326634E+03  0.00000000000E+00 0. -1.
         -2   -1    0    0    0  501 -0.00000000000E+00 -0.00000000000E+00 -0.10738956983E+03  0.10738956983E+03  0.00000000000E+00 0.  1.
         23    2    1    2    0    0 -0.64334216180E+02  0.14090196946E+03  0.13241451560E+03  0.22418289065E+03  0.93445749771E+02 0.  0.
          5    1    1    2  502    0  0.52476668444E+01 -0.89971915887E+02 -0.68887322765E+01  0.90509824263E+02  0.47000000000E+01 0.  1.
         -5    1    1    2    0  502  0.59086549336E+02 -0.50930053575E+02  0.10641791319E+03  0.13203012125E+03  0.47000000000E+01 0.  1.
        -11    1    3    3    0    0 -0.50527373817E+02  0.16414370174E+02  0.23075906492E+02  0.57921882855E+02  0.00000000000E+00 0.  1.
         11    1    3    3    0    0 -0.13806842364E+02  0.12448759929E+03  0.10933860911E+03  0.16626100780E+03  0.00000000000E+00 0. -1.
<mgrwt>
<rscale>  0 0.19434281E+03</rscale>
<asrwt>0</asrwt>
<pdfrwt beam="1">  1        2 0.52205118E-01 0.19904263E+03</pdfrwt>
<pdfrwt beam="2">  1       -2 0.16521472E-01 0.19904263E+03</pdfrwt>
<totfact> 0.27447446E+03</totfact>
</mgrwt>
</event>
<event>
 7    1  0.5107591E-006  0.2031459E+03  0.7546771E-02  0.1147334E+00
          2   -1    0    0  501    0  0.00000000000E+00  0.00000000000E+00  0.40185520231E+03  0.40185520231E+03  0.00000000000E+00 0. -1.
         -2   -1    0    0    0  501 -0.00000000000E+00 -0.00000000000E+00 -0.11617276361E+03  0.11617276361E+03  0.00000000000E+00 0.  1.
         23    2    1    2    0    0 -0.91679219470E+02 -0.13128839146E+03  0.23248955794E+03  0.30803332851E+03  0.12325346206E+03 0.  0.
          5    1    1    2  502    0  0.26523164173E+02  0.10053326708E+03  0.81753013011E+02  0.13234825712E+03  0.47000000000E+01 0. -1.
         -5    1    1    2    0  502  0.65156055297E+02  0.30755124375E+02 -0.28560132242E+02  0.77646380282E+02  0.47000000000E+01 0. -1.
        -11    1    3    3    0    0 -0.90273366704E+02 -0.22711940997E+02  0.11700351424E+03  0.14951566923E+03  0.00000000000E+00 0.  1.
         11    1    3    3    0    0 -0.14058527659E+01 -0.10857645046E+03  0.11548604370E+03  0.15851765929E+03  0.00000000000E+00 0. -1.
<mgrwt>
<rscale>  0 0.20287693E+03</rscale>
<asrwt>0</asrwt>
<pdfrwt beam="1">  1        2 0.61823877E-01 0.20314592E+03</pdfrwt>
<pdfrwt beam="2">  1       -2 0.17872733E-01 0.20314592E+03</pdfrwt>
<totfact> 0.20062154E+03</totfact>
</mgrwt>
</event>
<event>
 7    1  0.5107591E-006  0.1384902E+03  0.7546771E-02  0.1227000E+00
         -2   -1    0    0    0  501 -0.00000000000E+00  0.00000000000E+00  0.23141634286E+02  0.23141634286E+02  0.00000000000E+00 0.  1.
          2   -1    0    0  501    0  0.00000000000E+00 -0.00000000000E+00 -0.66793154843E+03  0.66793154843E+03  0.00000000000E+00 0. -1.
         23    2    1    2    0    0  0.43437431102E+02 -0.40981849695E+02 -0.32284288424E+03  0.34060289146E+03  0.90644797622E+02 0.  0.
          5    1    1    2  502    0 -0.68612913622E+02 -0.15602057406E+02 -0.11999871010E+03  0.13918669669E+03  0.47000000000E+01 0.  1.
         -5    1    1    2    0  502  0.25175482520E+02  0.56583907100E+02 -0.20194831980E+03  0.21128359456E+03  0.47000000000E+01 0.  1.
        -11    1    3    3    0    0 -0.26418047225E+02 -0.25805099605E+02 -0.10209018599E+03  0.10856437012E+03  0.00000000000E+00 0.  1.
         11    1    3    3    0    0  0.69855478327E+02 -0.15176750089E+02 -0.22075269826E+03  0.23203852133E+03  0.00000000000E+00 0. -1.
<mgrwt>
<rscale>  0 0.13030778E+03</rscale>
<asrwt>0</asrwt>
<pdfrwt beam="2">  1        2 0.10275869E+00 0.13849020E+03</pdfrwt>
<pdfrwt beam="1">  1       -2 0.35602516E-02 0.13849020E+03</pdfrwt>
<totfact> 0.13861342E+04</totfact>
</mgrwt>
</event>
<event>
 7    1  0.5107591E-006  0.1504192E+03  0.7546771E-02  0.1209180E+00
         -1   -1    0    0    0  501 -0.00000000000E+00  0.00000000000E+00  0.11856840526E+03  0.11856840526E+03  0.00000000000E+00 0.  1.
          1   -1    0    0  501    0  0.00000000000E+00 -0.00000000000E+00 -0.15800477552E+03  0.15800477552E+03  0.00000000000E+00 0. -1.
         23    2    1    2    0    0 -0.72970301429E+02  0.40939170002E+02 -0.16193707319E+02  0.12436884965E+03  0.90579766375E+02 0.  0.
          5    1    1    2  502    0 -0.24087776694E+02  0.24623647112E+01 -0.37443242050E+02  0.44837156480E+02  0.47000000000E+01 0.  1.
         -5    1    1    2    0  502  0.97058078123E+02 -0.43401534713E+02  0.14200579116E+02  0.10736717465E+03  0.47000000000E+01 0.  1.
        -11    1    3    3    0    0 -0.48253239086E+02  0.68370656621E+02 -0.23079576984E+02  0.86807768332E+02  0.00000000000E+00 0.  1.
         11    1    3    3    0    0 -0.24717062343E+02 -0.27431486620E+02  0.68858696648E+01  0.37561081322E+02  0.00000000000E+00 0. -1.
<mgrwt>
<rscale>  0 0.14312882E+03</rscale>
<asrwt>0</asrwt>
<pdfrwt beam="2">  1        1 0.24308427E-01 0.15041920E+03</pdfrwt>
<pdfrwt beam="1">  1       -1 0.18241293E-01 0.15041920E+03</pdfrwt>
<totfact> 0.44796921E+03</totfact>
</mgrwt>
</event>
<event>
 7    1  0.5107591E-006  0.1525451E+03  0.7546771E-02  0.1209149E+00
         -2   -1    0    0    0  501 -0.00000000000E+00  0.00000000000E+00  0.25399522742E+03  0.25399522742E+03  0.00000000000E+00 0.  1.
          2   -1    0    0  501    0  0.00000000000E+00 -0.00000000000E+00 -0.72646942215E+02  0.72646942215E+02  0.00000000000E+00 0. -1.
         23    2    1    2    0    0  0.80854163949E+02  0.33276733326E+02  0.66646609407E+02  0.13578491969E+03  0.79693394090E+02 0.  0.
          5    1    1    2  502    0  0.20848246046E+01 -0.53759623712E+01 -0.24923531173E+02  0.26009995602E+02  0.47000000000E+01 0. -1.
         -5    1    1    2    0  502 -0.82938988554E+02 -0.27900770955E+02  0.13962520697E+03  0.16484725434E+03  0.47000000000E+01 0. -1.
        -11    1    3    3    0    0  0.52069870547E+02 -0.66490020061E+01 -0.54364027922E+00  0.52495487341E+02  0.00000000000E+00 0. -1.
         11    1    3    3    0    0  0.28784293402E+02  0.39925735332E+02  0.67190249686E+02  0.83289432351E+02  0.00000000000E+00 0.  1.
<mgrwt>
<rscale>  0 0.14315231E+03</rscale>
<asrwt>0</asrwt>
<pdfrwt beam="2">  1        2 0.11176453E-01 0.15254513E+03</pdfrwt>
<pdfrwt beam="1">  1       -2 0.39076188E-01 0.15254513E+03</pdfrwt>
<totfact> 0.33553413E+03</totfact>
</mgrwt>
</event>
<event>
 7    1  0.5107591E-006  0.2945946E+03  0.7546771E-02  0.1088094E+00
          1   -1    0    0  501    0  0.00000000000E+00  0.00000000000E+00  0.60729505724E+03  0.60729505724E+03  0.00000000000E+00 0. -1.
         -1   -1    0    0    0  501 -0.00000000000E+00 -0.00000000000E+00 -0.15754420936E+03  0.15754420936E+03  0.00000000000E+00 0.  1.
         23    2    1    2    0    0 -0.94611100920E+02  0.24828180822E+03  0.34354924210E+03  0.45256163539E+03  0.12724321344E+03 0.  0.
          5    1    1    2  502    0  0.78540634760E+02 -0.57153156698E+02  0.10324468936E+02  0.97794679241E+02  0.47000000000E+01 0. -1.
         -5    1    1    2    0  502  0.16070466160E+02 -0.19112865152E+03  0.95877136849E+02  0.21448295197E+03  0.47000000000E+01 0. -1.
        -11    1    3    3    0    0 -0.68286420378E+02  0.53125464917E+02  0.52657607598E+02  0.10128264347E+03  0.00000000000E+00 0. -1.
         11    1    3    3    0    0 -0.26324680542E+02  0.19515634330E+03  0.29089163450E+03  0.35127899192E+03  0.00000000000E+00 0.  1.
<mgrwt>
<rscale>  0 0.29436164E+03</rscale>
<asrwt>0</asrwt>
<pdfrwt beam="1">  1        1 0.93430007E-01 0.29459456E+03</pdfrwt>
<pdfrwt beam="2">  1       -1 0.24237571E-01 0.29459456E+03</pdfrwt>
<totfact> 0.50922067E+02</totfact>
</mgrwt>
</event>
<event>
 7    1  0.5107591E-006  0.1570824E+03  0.7546771E-02  0.1200272E+00
         -1   -1    0    0    0  501 -0.00000000000E+00  0.00000000000E+00  0.42802436839E+02  0.42802436839E+02  0.00000000000E+00 0.  1.
          1   -1    0    0  501    0  0.00000000000E+00 -0.00000000000E+00 -0.59502457497E+03  0.59502457497E+03  0.00000000000E+00 0. -1.
         23    2    1    2    0    0 -0.29914112471E+02  0.90330878505E+02 -0.39234020288E+03  0.41369062144E+03  0.90302678432E+02 0.  0.
          5    1    1    2  502    0  0.64383036173E+02 -0.22620568300E+02 -0.12017539275E+03  0.13827899508E+03  0.47000000000E+01 0.  1.
         -5    1    1    2    0  502 -0.34468923702E+02 -0.67710310205E+02 -0.39706542497E+02  0.85857395292E+02  0.47000000000E+01 0.  1.
        -11    1    3    3    0    0  0.20777600748E+02  0.48893760157E+02 -0.91464595545E+02  0.10577372412E+03  0.00000000000E+00 0.  1.
         11    1    3    3    0    0 -0.50691713219E+02  0.41437118348E+02 -0.30087560734E+03  0.30791689732E+03  0.00000000000E+00 0. -1.
<mgrwt>
<rscale>  0 0.15016387E+03</rscale>
<asrwt>0</asrwt>
<pdfrwt beam="2">  1        1 0.91542240E-01 0.15708243E+03</pdfrwt>
<pdfrwt beam="1">  1       -1 0.65849905E-02 0.15708243E+03</pdfrwt>
<totfact> 0.40317054E+03</totfact>
</mgrwt>
</event>
<event>
 7    1  0.5107591E-006  0.1506759E+03  0.7546771E-02  0.1209898E+00
          1   -1    0    0  501    0  0.00000000000E+00  0.00000000000E+00  0.40966130706E+03  0.40966130706E+03  0.00000000000E+00 0. -1.
         -1   -1    0    0    0  501 -0.00000000000E+00 -0.00000000000E+00 -0.60721379977E+02  0.60721379977E+02  0.00000000000E+00 0.  1.
         23    2    1    2    0    0 -0.67906101977E+02  0.49666258281E+02  0.27946465735E+03  0.30446089328E+03  0.86706198941E+02 0.  0.
          5    1    1    2  502    0 -0.26671165763E+02  0.70307560105E+01 -0.10218381083E+02  0.29787378622E+02  0.47000000000E+01 0.  1.
         -5    1    1    2    0  502  0.94577267741E+02 -0.56697014291E+02  0.79693650822E+02  0.13613441513E+03  0.47000000000E+01 0.  1.
        -11    1    3    3    0    0 -0.57185317750E+02  0.69093380652E+02  0.25968100915E+03  0.27473311109E+03  0.00000000000E+00 0. -1.
         11    1    3    3    0    0 -0.10720784227E+02 -0.19427122372E+02  0.19783648198E+02  0.29727782193E+02  0.00000000000E+00 0.  1.
<mgrwt>
<rscale>  0 0.14258107E+03</rscale>
<asrwt>0</asrwt>
<pdfrwt beam="1">  1        1 0.63024815E-01 0.15067591E+03</pdfrwt>
<pdfrwt beam="2">  1       -1 0.93417510E-02 0.15067591E+03</pdfrwt>
<totfact> 0.38673589E+03</totfact>
</mgrwt>
</event>
<event>
 7    1  0.5107591E-006  0.1517145E+03  0.7546771E-02  0.1207210E+00
          2   -1    0    0  501    0  0.00000000000E+00  0.00000000000E+00  0.35137424219E+02  0.35137424219E+02  0.00000000000E+00 0. -1.
         -2   -1    0    0    0  501 -0.00000000000E+00 -0.00000000000E+00 -0.55470137226E+03  0.55470137226E+03  0.00000000000E+00 0.  1.
         23    2    1    2    0    0 -0.29369372806E+02  0.80801177223E+02 -0.19910838876E+03  0.23528406917E+03  0.91230764713E+02 0.  0.
          5    1    1    2  502    0  0.74759374852E+02 -0.70375421643E+02 -0.19102510978E+03  0.21692013892E+03  0.47000000000E+01 0. -1.
         -5    1    1    2    0  502 -0.45390002046E+02 -0.10425755580E+02 -0.12943044950E+03  0.13763458839E+03  0.47000000000E+01 0. -1.
        -11    1    3    3    0    0 -0.37911162729E+02  0.21232575358E+02 -0.15417599869E+03  0.16018213724E+03  0.00000000000E+00 0.  1.
         11    1    3    3    0    0  0.85417899228E+01  0.59568601865E+02 -0.44932390069E+02  0.75101931936E+02  0.00000000000E+00 0. -1.
<mgrwt>
<rscale>  0 0.14464642E+03</rscale>
<asrwt>0</asrwt>
<pdfrwt beam="1">  1        2 0.54057576E-02 0.15171450E+03</pdfrwt>
<pdfrwt beam="2">  1       -2 0.85338672E-01 0.15171450E+03</pdfrwt>
<totfact> 0.16954333E+03</totfact>
</mgrwt>
</event>
<event>
 7    1  0.5107591E-006  0.1399734E+03  0.7546771E-02  0.1224637E+00
          2   -1    0    0  501    0  0.00000000000E+00  0.00000000000E+00  0.86206401800E+03  0.86206401800E+03  0.00000000000E+00 0.  1.
         -2   -1    0    0    0  501 -0.00000000000E+00 -0.00000000000E+00 -0.18228861006E+02  0.18228861006E+02  0.00000000000E+00 0. -1.
         23    2    1    2    0    0 -0.54536634720E+02 -0.31524011019E+02  0.35046988272E+03  0.36745581425E+03  0.90700765917E+02 0.  0.
          5    1    1    2  502    0  0.76690461545E+02 -0.20854200429E+02  0.23090279533E+03  0.24424273881E+03  0.47000000000E+01 0. -1.
         -5    1    1    2    0  502 -0.22153826825E+02  0.52378211448E+02  0.26246247895E+03  0.26859432595E+03  0.47000000000E+01 0. -1.
        -11    1    3    3    0    0 -0.70265126571E+02 -0.20281792464E+02  0.33443582564E+03  0.34233880965E+03  0.00000000000E+00 0.  1.
         11    1    3    3    0    0  0.15728491851E+02 -0.11242218555E+02  0.16034057072E+02  0.25117004601E+02  0.00000000000E+00 0. -1.
<mgrwt>
<rscale>  0 0.13191838E+03</rscale>
<asrwt>0</asrwt>
<pdfrwt beam="1">  1        2 0.13262520E+00 0.13997343E+03</pdfrwt>
<pdfrwt beam="2">  1       -2 0.28044408E-02 0.13997343E+03</pdfrwt>
<totfact> 0.14431037E+04</totfact>
</mgrwt>
</event>
<event>
 7    1  0.5107591E-006  0.1331190E+03  0.7546771E-02  0.1235035E+00
          1   -1    0    0  501    0  0.00000000000E+00  0.00000000000E+00  0.46198106406E+02  0.46198106406E+02  0.00000000000E+00 0. -1.
         -1   -1    0    0    0  501 -0.00000000000E+00 -0.00000000000E+00 -0.75179430205E+03  0.75179430205E+03  0.00000000000E+00 0.  1.
         23    2    1    2    0    0  0.46576584973E+00 -0.45803360965E+02 -0.27781560751E+02  0.10722953396E+03  0.92888067163E+02 0.  0.
          5    1    1    2  502    0  0.20586682351E+02  0.67529978533E+01 -0.60474317848E+03  0.60514941658E+03  0.47000000000E+01 0. -1.
         -5    1    1    2    0  502 -0.21052448201E+02  0.39050363112E+02 -0.73071456414E+02  0.85613457920E+02  0.47000000000E+01 0. -1.
        -11    1    3    3    0    0 -0.22872762059E+02  0.76635837423E+01 -0.40854060537E+02  0.47444156883E+02  0.00000000000E+00 0.  1.
         11    1    3    3    0    0  0.23338527908E+02 -0.53466944707E+02  0.13072499786E+02  0.59785377074E+02  0.00000000000E+00 0. -1.
<mgrwt>
<rscale>  0 0.12502204E+03</rscale>
<asrwt>0</asrwt>
<pdfrwt beam="1">  1        1 0.71074017E-02 0.13311901E+03</pdfrwt>
<pdfrwt beam="2">  1       -1 0.11566065E+00 0.13311901E+03</pdfrwt>
<totfact> 0.73015551E+02</totfact>
</mgrwt>
</event>
<event>
 7    1  0.5107591E-006  0.1284698E+03  0.7546771E-02  0.1243104E+00
         -2   -1    0    0    0  501 -0.00000000000E+00  0.00000000000E+00  0.50009973794E+02  0.50009973794E+02  0.00000000000E+00 0.  1.
          2   -1    0    0  501    0  0.00000000000E+00 -0.00000000000E+00 -0.27172853509E+03  0.27172853509E+03  0.00000000000E+00 0. -1.
         23    2    1    2    0    0 -0.19552949876E+01 -0.29637159080E+02 -0.13518700399E+03  0.16684433651E+03  0.93162879952E+02 0.  0.
          5    1    1    2  502    0 -0.24449590408E+02  0.34296206435E+02  0.18609590708E+02  0.46286273487E+02  0.47000000000E+01 0. -1.
         -5    1    1    2    0  502  0.26404885395E+02 -0.46590473551E+01 -0.10514114801E+03  0.10860789889E+03  0.47000000000E+01 0. -1.
        -11    1    3    3    0    0 -0.54466086724E+01  0.31084991425E+02 -0.74572599451E+02  0.80975396429E+02  0.00000000000E+00 0. -1.
         11    1    3    3    0    0  0.34913136847E+01 -0.60722150505E+02 -0.60614404541E+02  0.85868940083E+02  0.00000000000E+00 0.  1.
<mgrwt>
<rscale>  0 0.11999596E+03</rscale>
<asrwt>0</asrwt>
<pdfrwt beam="2">  1        2 0.41804391E-01 0.12846982E+03</pdfrwt>
<pdfrwt beam="1">  1       -2 0.76938419E-02 0.12846982E+03</pdfrwt>
<totfact> 0.11491751E+04</totfact>
</mgrwt>
</event>
<event>
 7    1  0.5107591E-006  0.1177013E+03  0.7546771E-02  0.1256817E+00
          1   -1    0    0  501    0  0.00000000000E+00  0.00000000000E+00  0.10441296493E+03  0.10441296493E+03  0.00000000000E+00 0. -1.
         -1   -1    0    0    0  501 -0.00000000000E+00 -0.00000000000E+00 -0.14371969458E+03  0.14371969458E+03  0.00000000000E+00 0.  1.
         23    2    1    2    0    0 -0.31025709630E+02 -0.69786945346E+01  0.41659531979E+02  0.10527214394E+03  0.91298471231E+02 0.  0.
          5    1    1    2  502    0 -0.33057782724E+02 -0.15894214866E+02 -0.61790205064E+02  0.72010849924E+02  0.47000000000E+01 0. -1.
         -5    1    1    2    0  502  0.64083492355E+02  0.22872909401E+02 -0.19176056561E+02  0.70849665645E+02  0.47000000000E+01 0.  1.
        -11    1    3    3    0    0 -0.28485710781E+02 -0.47861017558E+02  0.22929864478E+02  0.60231979922E+02  0.00000000000E+00 0. -1.
         11    1    3    3    0    0 -0.25399988491E+01  0.40882323023E+02  0.18729667501E+02  0.45040164016E+02  0.00000000000E+00 0.  1.
<mgrwt>
<rscale>  0 0.11205164E+03</rscale>
<asrwt>0</asrwt>
<pdfrwt beam="1">  1        1 0.16063533E-01 0.11770128E+03</pdfrwt>
<pdfrwt beam="2">  1       -1 0.22110722E-01 0.11770128E+03</pdfrwt>
<totfact> 0.54851546E+03</totfact>
</mgrwt>
</event>
<event>
 6    1  0.5107591E-006  0.1557461E+03  0.7546771E-02  0.1214257E+00
         -1   -1    0    0    0  501 -0.00000000000E+00  0.00000000000E+00  0.57978859751E+02  0.57978859751E+02  0.00000000000E+00 0.  1.
          1   -1    0    0  501    0  0.00000000000E+00 -0.00000000000E+00 -0.49078175566E+03  0.49078175566E+03  0.00000000000E+00 0. -1.
          5    1    1    2  502    0  0.18526795409E+02  0.46715656362E+01 -0.77818949415E+02  0.80267954762E+02  0.47000000000E+01 0.  1.
         -5    1    1    2    0  502  0.32767508448E+02 -0.82139032984E+02  0.10937033488E+02  0.89231379295E+02  0.47000000000E+01 0.  1.
        -11    1    1    2    0    0 -0.52468815531E+02  0.58050795445E+02 -0.25813955357E+03  0.26973857820E+03  0.00000000000E+00 0.  1.
         11    1    1    2    0    0  0.11745116746E+01  0.19416671902E+02 -0.10778142641E+03  0.10952270315E+03  0.00000000000E+00 0. -1.
<mgrwt>
<rscale>  0 0.13931289E+03</rscale>
<asrwt>0</asrwt>
<pdfrwt beam="2">  1        1 0.75504885E-01 0.15574605E+03</pdfrwt>
<pdfrwt beam="1">  1       -1 0.89198246E-02 0.15574605E+03</pdfrwt>
<totfact> 0.32940012E+03</totfact>
</mgrwt>
</event>
<event>
 7    1  0.5107591E-006  0.1303517E+03  0.7546771E-02  0.1242993E+00
          1   -1    0    0  501    0  0.00000000000E+00  0.00000000000E+00  0.42623256693E+03  0.42623256693E+03  0.00000000000E+00 0. -1.
         -1   -1    0    0    0  501 -0.00000000000E+00 -0.00000000000E+00 -0.31054445936E+02  0.31054445936E+02  0.00000000000E+00 0.  1.
         23    2    1    2    0    0  0.36441230825E+02 -0.62204962026E+01  0.21794141978E+03  0.23727698122E+03  0.86227869535E+02 0.  0.
          5    1    1    2  502    0 -0.59829904086E+01  0.54716499245E+02  0.32051233171E+02  0.63867542709E+02  0.47000000000E+01 0.  1.
         -5    1    1    2    0  502 -0.30458240417E+02 -0.48496003043E+02  0.14518546804E+03  0.15614248894E+03  0.47000000000E+01 0.  1.
        -11    1    3    3    0    0  0.27318091555E+02  0.38855444850E+02  0.10076113818E+03  0.11139493116E+03  0.00000000000E+00 0.  1.
         11    1    3    3    0    0  0.91231392702E+01 -0.45075941052E+02  0.11718028160E+03  0.12588205006E+03  0.00000000000E+00 0. -1.
<mgrwt>
<rscale>  0 0.12006311E+03</rscale>
<asrwt>0</asrwt>
<pdfrwt beam="1">  1        1 0.65574237E-01 0.13035170E+03</pdfrwt>
<pdfrwt beam="2">  1       -1 0.47776074E-02 0.13035170E+03</pdfrwt>
<totfact> 0.99582509E+03</totfact>
</mgrwt>
</event>
<event>
 7    1  0.5107591E-006  0.1311362E+03  0.7546771E-02  0.1238371E+00
          1   -1    0    0  501    0  0.00000000000E+00  0.00000000000E+00  0.54798587984E+02  0.54798587984E+02  0.00000000000E+00 0. -1.
         -1   -1    0    0    0  501 -0.00000000000E+00 -0.00000000000E+00 -0.29852305872E+03  0.29852305872E+03  0.00000000000E+00 0.  1.
         23    2    1    2    0    0  0.37608355868E+02 -0.12575789881E+02 -0.35506363197E+02  0.10724951646E+03  0.93108635641E+02 0.  0.
          5    1    1    2  502    0 -0.16738961088E+02 -0.55302217339E+02 -0.11506817277E+03  0.12884604164E+03  0.47000000000E+01 0. -1.
         -5    1    1    2    0  502 -0.20869394779E+02  0.67878007220E+02 -0.93149934761E+02  0.11722608860E+03  0.47000000000E+01 0. -1.
        -11    1    3    3    0    0  0.37460760297E+02 -0.48694764662E+02 -0.35844076192E+02  0.71128661351E+02  0.00000000000E+00 0.  1.
         11    1    3    3    0    0  0.14759557080E+00  0.36118974781E+02  0.33771299531E+00  0.36120855108E+02  0.00000000000E+00 0. -1.
<mgrwt>
<rscale>  0 0.12291046E+03</rscale>
<asrwt>0</asrwt>
<pdfrwt beam="1">  1        1 0.84305519E-02 0.13113624E+03</pdfrwt>
<pdfrwt beam="2">  1       -1 0.45926625E-01 0.13113624E+03</pdfrwt>
<totfact> 0.37262180E+03</totfact>
</mgrwt>
</event>
<event>
 7    1  0.5107591E-006  0.1297611E+03  0.7546771E-02  0.1241554E+00
          2   -1    0    0  501    0  0.00000000000E+00  0.00000000000E+00  0.72211901930E+03  0.72211901930E+03  0.00000000000E+00 0. -1.
         -2   -1    0    0    0  501 -0.00000000000E+00 -0.00000000000E+00 -0.18574887764E+02  0.18574887764E+02  0.00000000000E+00 0.  1.
         23    2    1    2    0    0 -0.28690987641E+02  0.19739842837E+02  0.37173096732E+03  0.38441042409E+03  0.91512993171E+02 0.  0.
          5    1    1    2  502    0  0.48926706663E+02  0.38795530589E+02  0.21564870317E+03  0.22455593735E+03  0.47000000000E+01 0.  1.
         -5    1    1    2    0  502 -0.20235719022E+02 -0.58535373426E+02  0.11616446105E+03  0.13172754563E+03  0.47000000000E+01 0.  1.
        -11    1    3    3    0    0  0.30791095237E+02 -0.86200187042E+01  0.11611260469E+03  0.12043476756E+03  0.00000000000E+00 0. -1.
         11    1    3    3    0    0 -0.59482082878E+02  0.28359861541E+02  0.25561836263E+03  0.26397565654E+03  0.00000000000E+00 0.  1.
<mgrwt>
<rscale>  0 0.12094039E+03</rscale>
<asrwt>0</asrwt>
<pdfrwt beam="1">  1        2 0.11109521E+00 0.12976110E+03</pdfrwt>
<pdfrwt beam="2">  1       -2 0.28576756E-02 0.12976110E+03</pdfrwt>
<totfact> 0.17384847E+04</totfact>
</mgrwt>
</event>
<event>
 7    1  0.5107591E-006  0.1348555E+03  0.7546771E-02  0.1231666E+00
         -1   -1    0    0    0  501 -0.00000000000E+00  0.00000000000E+00  0.47145054822E+03  0.47145054822E+03  0.00000000000E+00 0.  1.
          1   -1    0    0  501    0  0.00000000000E+00 -0.00000000000E+00 -0.36873106299E+02  0.36873106299E+02  0.00000000000E+00 0. -1.
         23    2    1    2    0    0  0.24021721041E+02  0.44532389147E+02  0.94828336522E+02  0.14278918517E+03  0.94000857590E+02 0.  0.
          5    1    1    2  502    0 -0.56452674679E+02 -0.95945245098E+01  0.29307658824E+03  0.29865521250E+03  0.47000000000E+01 0.  1.
         -5    1    1    2    0  502  0.32430953638E+02 -0.34937864637E+02  0.46672517155E+02  0.66879256851E+02  0.47000000000E+01 0.  1.
        -11    1    3    3    0    0 -0.20554707195E+02  0.26034211151E+02  0.88002903390E+02  0.94046728509E+02  0.00000000000E+00 0.  1.
         11    1    3    3    0    0  0.44576428236E+02  0.18498177996E+02  0.68254331320E+01  0.48742456657E+02  0.00000000000E+00 0. -1.
<mgrwt>
<rscale>  0 0.12720291E+03</rscale>
<asrwt>0</asrwt>
<pdfrwt beam="2">  1        1 0.56727859E-02 0.13485545E+03</pdfrwt>
<pdfrwt beam="1">  1       -1 0.72530849E-01 0.13485545E+03</pdfrwt>
<totfact> 0.26910705E+03</totfact>
</mgrwt>
</event>
<event>
 7    1  0.5107591E-006  0.1417716E+03  0.7546771E-02  0.1221847E+00
          2   -1    0    0  501    0  0.00000000000E+00  0.00000000000E+00  0.18482992457E+03  0.18482992457E+03  0.00000000000E+00 0.  1.
         -2   -1    0    0    0  501 -0.00000000000E+00 -0.00000000000E+00 -0.87590171537E+02  0.87590171537E+02  0.00000000000E+00 0. -1.
         23    2    1    2    0    0 -0.60601626817E+02 -0.28342629309E+02  0.40492610320E+02  0.11971308534E+03  0.90640551090E+02 0.  0.
          5    1    1    2  502    0  0.22091905307E+00  0.44862274799E+02  0.74833630204E+02  0.87377541250E+02  0.47000000000E+01 0. -1.
         -5    1    1    2    0  502  0.60380707764E+02 -0.16519645490E+02 -0.18086487494E+02  0.65329469514E+02  0.47000000000E+01 0. -1.
        -11    1    3    3    0    0 -0.11954477609E+02 -0.48987164893E+02  0.43760825768E+02  0.66765722725E+02  0.00000000000E+00 0.  1.
         11    1    3    3    0    0 -0.48647149208E+02  0.20644535584E+02 -0.32682154482E+01  0.52947362614E+02  0.00000000000E+00 0. -1.
<mgrwt>
<rscale>  0 0.13385402E+03</rscale>
<asrwt>0</asrwt>
<pdfrwt beam="1">  1        2 0.28435373E-01 0.14177162E+03</pdfrwt>
<pdfrwt beam="2">  1       -2 0.13475411E-01 0.14177162E+03</pdfrwt>
<totfact> 0.72416010E+03</totfact>
</mgrwt>
</event>
<event>
 7    1  0.5107591E-006  0.1368034E+03  0.7546771E-02  0.1227993E+00
          1   -1    0    0  501    0  0.00000000000E+00  0.00000000000E+00  0.14619413911E+03  0.14619413911E+03  0.00000000000E+00 0. -1.
         -1   -1    0    0    0  501 -0.00000000000E+00 -0.00000000000E+00 -0.10444385529E+03  0.10444385529E+03  0.00000000000E+00 0.  1.
         23    2    1    2    0    0 -0.43765385102E+02  0.34539553035E+02  0.20017871919E+02  0.11211916781E+03  0.95192452097E+02 0.  0.
          5    1    1    2  502    0 -0.17464989592E+02 -0.63150498371E+02 -0.45599040156E+01  0.65847505879E+02  0.47000000000E+01 0. -1.
         -5    1    1    2    0  502  0.61230374695E+02  0.28610945336E+02  0.26292315923E+02  0.72671320717E+02  0.47000000000E+01 0. -1.
        -11    1    3    3    0    0 -0.70526323106E+02  0.77157327516E+01  0.42353816480E+01  0.71073435547E+02  0.00000000000E+00 0.  1.
         11    1    3    3    0    0  0.26760938004E+02  0.26823820283E+02  0.15782490271E+02  0.41045732258E+02  0.00000000000E+00 0. -1.
<mgrwt>
<rscale>  0 0.12963848E+03</rscale>
<asrwt>0</asrwt>
<pdfrwt beam="1">  1        1 0.22491406E-01 0.13680339E+03</pdfrwt>
<pdfrwt beam="2">  1       -1 0.16068285E-01 0.13680339E+03</pdfrwt>
<totfact> 0.60069186E+03</totfact>
</mgrwt>
</event>
<event>
 7    1  0.5107591E-006  0.1638160E+03  0.7546771E-02  0.1192029E+00
         -1   -1    0    0    0  501 -0.00000000000E+00  0.00000000000E+00  0.68021861350E+02  0.68021861350E+02  0.00000000000E+00 0.  1.
          1   -1    0    0  501    0  0.00000000000E+00 -0.00000000000E+00 -0.39211502062E+03  0.39211502062E+03  0.00000000000E+00 0. -1.
         23    2    1    2    0    0 -0.46629912612E+02  0.95059578124E+02 -0.23726843736E+03  0.27473404043E+03  0.89284990102E+02 0.  0.
          5    1    1    2  502    0  0.16162656157E+02 -0.10385382712E+03 -0.14386512176E+02  0.10618809064E+03  0.47000000000E+01 0. -1.
         -5    1    1    2    0  502  0.30467256455E+02  0.87942489958E+01 -0.72438209736E+02  0.79214750905E+02  0.47000000000E+01 0. -1.
        -11    1    3    3    0    0  0.56562304637E+01  0.75201909956E+02 -0.17761290217E+03  0.19296026332E+03  0.00000000000E+00 0. -1.
         11    1    3    3    0    0 -0.52286143075E+02  0.19857668169E+02 -0.59655535189E+02  0.81773777102E+02  0.00000000000E+00 0.  1.
<mgrwt>
<rscale>  0 0.15708341E+03</rscale>
<asrwt>0</asrwt>
<pdfrwt beam="2">  1        1 0.60325386E-01 0.16381600E+03</pdfrwt>
<pdfrwt beam="1">  1       -1 0.10464902E-01 0.16381600E+03</pdfrwt>
<totfact> 0.34483967E+03</totfact>
</mgrwt>
</event>
<event>
 7    1  0.5107591E-006  0.1480307E+03  0.7546771E-02  0.1213333E+00
          1   -1    0    0  501    0  0.00000000000E+00  0.00000000000E+00  0.36660062253E+03  0.36660062253E+03  0.00000000000E+00 0. -1.
         -1   -1    0    0    0  501 -0.00000000000E+00 -0.00000000000E+00 -0.12559864016E+03  0.12559864016E+03  0.00000000000E+00 0.  1.
         23    2    1    2    0    0 -0.79223343467E+02 -0.33452979092E+01  0.30780150986E+03  0.32979463138E+03  0.87949987178E+02 0.  0.
          5    1    1    2  502    0  0.37352926022E+02 -0.18086471962E+02 -0.97479420910E+02  0.10605040807E+03  0.47000000000E+01 0. -1.
         -5    1    1    2    0  502  0.41870417445E+02  0.21431769871E+02  0.30679893423E+02  0.56354223243E+02  0.47000000000E+01 0. -1.
        -11    1    3    3    0    0 -0.61858981535E+01 -0.34759338683E+02  0.60742199023E+02  0.70257324912E+02  0.00000000000E+00 0. -1.
         11    1    3    3    0    0 -0.73037445313E+02  0.31414040774E+02  0.24705931084E+03  0.25953730647E+03  0.00000000000E+00 0.  1.
<mgrwt>
<rscale>  0 0.13999674E+03</rscale>
<asrwt>0</asrwt>
<pdfrwt beam="1">  1        1 0.56400095E-01 0.14803070E+03</pdfrwt>
<pdfrwt beam="2">  1       -1 0.19322868E-01 0.14803070E+03</pdfrwt>
<totfact> 0.14304803E+03</totfact>
</mgrwt>
</event>
<event>
 7    1  0.5107591E-006  0.2154969E+03  0.7546771E-02  0.1140718E+00
         -2   -1    0    0    0  501 -0.00000000000E+00  0.00000000000E+00  0.48332769269E+02  0.48332769269E+02  0.00000000000E+00 0. -1.
          2   -1    0    0  501    0  0.00000000000E+00 -0.00000000000E+00 -0.97974686173E+03  0.97974686173E+03  0.00000000000E+00 0.  1.
         23    2    1    2    0    0 -0.17534320368E+03  0.87216253283E+01 -0.60726274463E+03  0.63883293424E+03  0.92293938202E+02 0.  0.
          5    1    1    2  502    0  0.24519032216E+02 -0.52487387832E+02 -0.79246629314E+02  0.98276279335E+02  0.47000000000E+01 0. -1.
         -5    1    1    2    0  502  0.15082417146E+03  0.43765762504E+02 -0.24490471852E+03  0.29097041743E+03  0.47000000000E+01 0. -1.
        -11    1    3    3    0    0 -0.11865045805E+03  0.31133578847E+02 -0.27634978380E+03  0.30235150725E+03  0.00000000000E+00 0. -1.
         11    1    3    3    0    0 -0.56692745633E+02 -0.22411953519E+02 -0.33091296082E+03  0.33648142699E+03  0.00000000000E+00 0.  1.
<mgrwt>
<rscale>  0 0.21107377E+03</rscale>
<asrwt>0</asrwt>
<pdfrwt beam="2">  1        2 0.15073029E+00 0.21549686E+03</pdfrwt>
<pdfrwt beam="1">  1       -2 0.74358103E-02 0.21549686E+03</pdfrwt>
<totfact> 0.28515239E+03</totfact>
</mgrwt>
</event>
<event>
 7    1  0.5107591E-006  0.1318090E+03  0.7546771E-02  0.1237892E+00
         -1   -1    0    0    0  501 -0.00000000000E+00  0.00000000000E+00  0.91478365489E+02  0.91478365489E+02  0.00000000000E+00 0.  1.
          1   -1    0    0  501    0  0.00000000000E+00 -0.00000000000E+00 -0.14991828437E+03  0.14991828437E+03  0.00000000000E+00 0. -1.
         23    2    1    2    0    0  0.41340619068E+02  0.62915942184E+01 -0.40030692778E+02  0.10830828401E+03  0.91540139165E+02 0.  0.
          5    1    1    2  502    0 -0.67510247276E+02 -0.83725164708E+01 -0.55141736514E+02  0.87695117453E+02  0.47000000000E+01 0. -1.
         -5    1    1    2    0  502  0.26169628208E+02  0.20809222524E+01  0.36732510416E+02  0.45393248390E+02  0.47000000000E+01 0. -1.
        -11    1    3    3    0    0  0.39474152249E+02 -0.36851683475E+02 -0.81106273652E+01  0.54608035553E+02  0.00000000000E+00 0.  1.
         11    1    3    3    0    0  0.18664668192E+01  0.43143277693E+02 -0.31920065413E+02  0.53700248458E+02  0.00000000000E+00 0. -1.
<mgrwt>
<rscale>  0 0.12321129E+03</rscale>
<asrwt>0</asrwt>
<pdfrwt beam="2">  1        1 0.23064351E-01 0.13180900E+03</pdfrwt>
<pdfrwt beam="1">  1       -1 0.14073595E-01 0.13180900E+03</pdfrwt>
<totfact> 0.71446203E+03</totfact>
</mgrwt>
</event>
<event>
 7    1  0.5107591E-006  0.1312487E+03  0.7546771E-02  0.1242707E+00
          1   -1    0    0  501    0  0.00000000000E+00  0.00000000000E+00  0.75798907815E+02  0.75798907815E+02  0.00000000000E+00 0. -1.
         -1   -1    0    0    0  501 -0.00000000000E+00 -0.00000000000E+00 -0.18860818184E+03  0.18860818184E+03  0.00000000000E+00 0.  1.
         23    2    1    2    0    0  0.22950393058E+02 -0.32792345344E+02 -0.17194654485E+01  0.92456001558E+02  0.83325249522E+02 0.  0.
          5    1    1    2  502    0 -0.38906946607E+02  0.20306124072E+02  0.13092475246E+02  0.46039027761E+02  0.47000000000E+01 0.  1.
         -5    1    1    2    0  502  0.15956553549E+02  0.12486221273E+02 -0.12418228382E+03  0.12591206033E+03  0.47000000000E+01 0.  1.
        -11    1    3    3    0    0  0.39207967757E+02 -0.16844686583E+02  0.30890920663E+02  0.52680709763E+02  0.00000000000E+00 0. -1.
         11    1    3    3    0    0 -0.16257574699E+02 -0.15947658761E+02 -0.32610386111E+02  0.39775291795E+02  0.00000000000E+00 0.  1.
<mgrwt>
<rscale>  0 0.12023651E+03</rscale>
<asrwt>0</asrwt>
<pdfrwt beam="1">  1        1 0.11661370E-01 0.13124874E+03</pdfrwt>
<pdfrwt beam="2">  1       -1 0.29016643E-01 0.13124874E+03</pdfrwt>
<totfact> 0.53606401E+03</totfact>
</mgrwt>
</event>
<event>
 7    1  0.5107591E-006  0.1499899E+03  0.7546771E-02  0.1209454E+00
          4   -1    0    0  501    0  0.00000000000E+00  0.00000000000E+00  0.34989789077E+02  0.34989789077E+02  0.00000000000E+00 0. -1.
         -4   -1    0    0    0  501 -0.00000000000E+00 -0.00000000000E+00 -0.53689953624E+03  0.53689953624E+03  0.00000000000E+00 0.  1.
         23    2    1    2    0    0  0.36224505595E+02  0.74578387726E+02 -0.20987282593E+03  0.24358680971E+03  0.91726659590E+02 0.  0.
          5    1    1    2  502    0  0.31637580227E+02  0.81985454093E+01 -0.27776637042E+02  0.43148397361E+02  0.47000000000E+01 0. -1.
         -5    1    1    2    0  502 -0.67862085822E+02 -0.82776933136E+02 -0.26426028419E+03  0.28515411824E+03  0.47000000000E+01 0. -1.
        -11    1    3    3    0    0  0.57582348875E+02  0.50317799522E+02 -0.83842135229E+02  0.11347736114E+03  0.00000000000E+00 0. -1.
         11    1    3    3    0    0 -0.21357843280E+02  0.24260588204E+02 -0.12603069070E+03  0.13010944858E+03  0.00000000000E+00 0.  1.
<mgrwt>
<rscale>  0 0.14291906E+03</rscale>
<asrwt>0</asrwt>
<pdfrwt beam="1">  1        4 0.53830443E-02 0.14998993E+03</pdfrwt>
<pdfrwt beam="2">  1       -4 0.82599931E-01 0.14998993E+03</pdfrwt>
<totfact> 0.47481155E+02</totfact>
</mgrwt>
</event>
<event>
 7    1  0.5107591E-006  0.1333159E+03  0.7546771E-02  0.1235190E+00
          2   -1    0    0  501    0  0.00000000000E+00  0.00000000000E+00  0.81625070643E+02  0.81625070643E+02  0.00000000000E+00 0. -1.
         -2   -1    0    0    0  501 -0.00000000000E+00 -0.00000000000E+00 -0.22585238643E+03  0.22585238643E+03  0.00000000000E+00 0.  1.
         23    2    1    2    0    0 -0.42488220399E+02 -0.18503394481E+02  0.10407170942E+02  0.10330855290E+03  0.91742702242E+02 0.  0.
          5    1    1    2  502    0  0.10686051379E+02  0.54046264596E+02 -0.14513651081E+03  0.15531222483E+03  0.47000000000E+01 0. -1.
         -5    1    1    2    0  502  0.31802169020E+02 -0.35542870116E+02 -0.94979759203E+01  0.48856679349E+02  0.47000000000E+01 0. -1.
        -11    1    3    3    0    0  0.32067463816E+01 -0.11686709506E+02  0.44352343828E+02  0.45978177480E+02  0.00000000000E+00 0. -1.
         11    1    3    3    0    0 -0.45694966781E+02 -0.68166849753E+01 -0.33945172885E+02  0.57330375416E+02  0.00000000000E+00 0.  1.
<mgrwt>
<rscale>  0 0.12492279E+03</rscale>
<asrwt>0</asrwt>
<pdfrwt beam="1">  1        2 0.12557703E-01 0.13331585E+03</pdfrwt>
<pdfrwt beam="2">  1       -2 0.34746521E-01 0.13331585E+03</pdfrwt>
<totfact> 0.36007548E+03</totfact>
</mgrwt>
</event>
<event>
 7    1  0.5107591E-006  0.1334172E+03  0.7546771E-02  0.1235765E+00
          1   -1    0    0  501    0  0.00000000000E+00  0.00000000000E+00  0.31167007544E+03  0.31167007544E+03  0.00000000000E+00 0. -1.
         -1   -1    0    0    0  501 -0.00000000000E+00 -0.00000000000E+00 -0.44243887522E+02  0.44243887522E+02  0.00000000000E+00 0.  1.
         23    2    1    2    0    0 -0.15614588068E+02  0.43935179104E+02  0.12036758220E+03  0.15735319788E+03  0.89986436287E+02 0.  0.
          5    1    1    2  502    0 -0.32065932919E+02 -0.67036445171E+02  0.56238455249E+02  0.93311108041E+02  0.47000000000E+01 0. -1.
         -5    1    1    2    0  502  0.47680520987E+02  0.23101266067E+02  0.90820150469E+02  0.10524965704E+03  0.47000000000E+01 0. -1.
        -11    1    3    3    0    0 -0.49113138228E+02  0.47028204020E+01  0.66035369195E+02  0.82431103663E+02  0.00000000000E+00 0.  1.
         11    1    3    3    0    0  0.33498550161E+02  0.39232358702E+02  0.54332213002E+02  0.74922094217E+02  0.00000000000E+00 0. -1.
<mgrwt>
<rscale>  0 0.12455580E+03</rscale>
<asrwt>0</asrwt>
<pdfrwt beam="1">  1        1 0.47949241E-01 0.13341718E+03</pdfrwt>
<pdfrwt beam="2">  1       -1 0.68067521E-02 0.13341718E+03</pdfrwt>
<totfact> 0.87213020E+03</totfact>
</mgrwt>
</event>
<event>
 7    1  0.5107591E-006  0.1285727E+03  0.7546771E-02  0.1244899E+00
         -1   -1    0    0    0  501 -0.00000000000E+00  0.00000000000E+00  0.15051783760E+03  0.15051783760E+03  0.00000000000E+00 0.  1.
          1   -1    0    0  501    0  0.00000000000E+00 -0.00000000000E+00 -0.86744918218E+02  0.86744918218E+02  0.00000000000E+00 0. -1.
         23    2    1    2    0    0  0.71903804092E+01  0.29210925916E+02  0.76324461722E+00  0.94080534962E+02  0.89138009586E+02 0.  0.
          5    1    1    2  502    0  0.27126707969E+02  0.12268377893E+02  0.80840701822E+02  0.86276766585E+02  0.47000000000E+01 0. -1.
         -5    1    1    2    0  502 -0.34317088378E+02 -0.41479303809E+02 -0.17831027061E+02  0.56905454266E+02  0.47000000000E+01 0. -1.
        -11    1    3    3    0    0  0.45639172298E+02 -0.64476710378E-01  0.26713367354E+01  0.45717329813E+02  0.00000000000E+00 0.  1.
         11    1    3    3    0    0 -0.38448791889E+02  0.29275402627E+02 -0.19080921182E+01  0.48363205148E+02  0.00000000000E+00 0. -1.
<mgrwt>
<rscale>  0 0.11891396E+03</rscale>
<asrwt>0</asrwt>
<pdfrwt beam="2">  1        1 0.13345372E-01 0.12857266E+03</pdfrwt>
<pdfrwt beam="1">  1       -1 0.23156590E-01 0.12857266E+03</pdfrwt>
<totfact> 0.65081243E+03</totfact>
</mgrwt>
</event>
<event>
 7    1  0.5107591E-006  0.1256589E+03  0.7546771E-02  0.1249210E+00
         -1   -1    0    0    0  501 -0.00000000000E+00  0.00000000000E+00  0.32888054044E+02  0.32888054044E+02  0.00000000000E+00 0.  1.
          1   -1    0    0  501    0  0.00000000000E+00 -0.00000000000E+00 -0.39107491757E+03  0.39107491757E+03  0.00000000000E+00 0. -1.
         23    2    1    2    0    0 -0.59437663353E+01  0.11437518843E+02 -0.21150594657E+03  0.23081676781E+03  0.91517592140E+02 0.  0.
          5    1    1    2  502    0  0.39916599290E+02 -0.15087306246E+02 -0.15227001340E+03  0.15820622203E+03  0.47000000000E+01 0.  1.
         -5    1    1    2    0  502 -0.33972832954E+02  0.36497874032E+01  0.55890964477E+01  0.34939981771E+02  0.47000000000E+01 0.  1.
        -11    1    3    3    0    0  0.37116790809E+02 -0.31236710824E+01 -0.46040308028E+02  0.59220971322E+02  0.00000000000E+00 0.  1.
         11    1    3    3    0    0 -0.43060557144E+02  0.14561189925E+02 -0.16546563854E+03  0.17159579649E+03  0.00000000000E+00 0. -1.
<mgrwt>
<rscale>  0 0.11636905E+03</rscale>
<asrwt>0</asrwt>
<pdfrwt beam="2">  1        1 0.60165372E-01 0.12565892E+03</pdfrwt>
<pdfrwt beam="1">  1       -1 0.50597006E-02 0.12565892E+03</pdfrwt>
<totfact> 0.10170915E+04</totfact>
</mgrwt>
</event>
<event>
 7    1  0.5107591E-006  0.1347324E+03  0.7546771E-02  0.1233273E+00
         -4   -1    0    0    0  501 -0.00000000000E+00  0.00000000000E+00  0.10436511107E+03  0.10436511107E+03  0.00000000000E+00 0.  1.
          4   -1    0    0  501    0  0.00000000000E+00 -0.00000000000E+00 -0.14063375823E+03  0.14063375823E+03  0.00000000000E+00 0. -1.
         23    2    1    2    0    0  0.49657592171E+02 -0.78139598527E+01 -0.37823560073E+02  0.11025748960E+03  0.90549201470E+02 0.  0.
          5    1    1    2  502    0 -0.88816744995E+02  0.52965113285E+01  0.19706331899E+02  0.91251831437E+02  0.47000000000E+01 0. -1.
         -5    1    1    2    0  502  0.39159152824E+02  0.25174485241E+01 -0.18151418988E+02  0.43489548265E+02  0.47000000000E+01 0. -1.
        -11    1    3    3    0    0 -0.20888769271E+02  0.13064347689E+01 -0.32849343543E+02  0.38950312253E+02  0.00000000000E+00 0.  1.
         11    1    3    3    0    0  0.70546361441E+02 -0.91203946216E+01 -0.49742165300E+01  0.71307177344E+02  0.00000000000E+00 0. -1.
<mgrwt>
<rscale>  0 0.12615639E+03</rscale>
<asrwt>0</asrwt>
<pdfrwt beam="2">  1        4 0.21635963E-01 0.13473241E+03</pdfrwt>
<pdfrwt beam="1">  1       -4 0.16056171E-01 0.13473241E+03</pdfrwt>
<totfact> 0.10769065E+03</totfact>
</mgrwt>
</event>
<event>
 7    1  0.5107591E-006  0.1633408E+03  0.7546771E-02  0.1190941E+00
          3   -1    0    0  501    0  0.00000000000E+00  0.00000000000E+00  0.32940448022E+03  0.32940448022E+03  0.00000000000E+00 0. -1.
         -3   -1    0    0    0  501 -0.00000000000E+00 -0.00000000000E+00 -0.71840132353E+02  0.71840132353E+02  0.00000000000E+00 0.  1.
         23    2    1    2    0    0  0.68779112790E+02 -0.79539225175E+02  0.13815984502E+03  0.19891402196E+03  0.97064878613E+02 0.  0.
          5    1    1    2  502    0 -0.74048074059E+02  0.10955671995E+03  0.10054180092E+03  0.16618223699E+03  0.47000000000E+01 0.  1.
         -5    1    1    2    0  502  0.52689612687E+01 -0.30017494778E+02  0.18862701932E+02  0.36148353625E+02  0.47000000000E+01 0.  1.
        -11    1    3    3    0    0  0.88463889816E+02 -0.74177374148E+02  0.89263063799E+02  0.14593161822E+03  0.00000000000E+00 0.  1.
         11    1    3    3    0    0 -0.19684777025E+02 -0.53618510267E+01  0.48896781221E+02  0.52982403746E+02  0.00000000000E+00 0. -1.
<mgrwt>
<rscale>  0 0.15802790E+03</rscale>
<asrwt>0</asrwt>
<pdfrwt beam="1">  1        3 0.50677611E-01 0.16334085E+03</pdfrwt>
<pdfrwt beam="2">  1       -3 0.11052328E-01 0.16334085E+03</pdfrwt>
<totfact> 0.57744778E+02</totfact>
</mgrwt>
</event>
<event>
 7    1  0.5107591E-006  0.1507973E+03  0.7546771E-02  0.1207411E+00
          3   -1    0    0  501    0  0.00000000000E+00  0.00000000000E+00  0.71374533806E+02  0.71374533806E+02  0.00000000000E+00 0. -1.
         -3   -1    0    0    0  501 -0.00000000000E+00 -0.00000000000E+00 -0.33397588497E+03  0.33397588497E+03  0.00000000000E+00 0.  1.
         23    2    1    2    0    0 -0.73945902164E+02  0.40573961531E+02 -0.34152159635E+02  0.13161904561E+03  0.95094481218E+02 0.  0.
          5    1    1    2  502    0 -0.18122172612E+02 -0.29994645506E+02 -0.10552312363E+02  0.36898959273E+02  0.47000000000E+01 0.  1.
         -5    1    1    2    0  502  0.92068074776E+02 -0.10579316025E+02 -0.21789687917E+03  0.23683241390E+03  0.47000000000E+01 0.  1.
        -11    1    3    3    0    0  0.11573428375E+02  0.23632879711E+02  0.16239459944E+02  0.30922116794E+02  0.00000000000E+00 0. -1.
         11    1    3    3    0    0 -0.85519330539E+02  0.16941081821E+02 -0.50391619579E+02  0.10069692882E+03  0.00000000000E+00 0.  1.
<mgrwt>
<rscale>  0 0.14449106E+03</rscale>
<asrwt>0</asrwt>
<pdfrwt beam="1">  1        3 0.10980698E-01 0.15079732E+03</pdfrwt>
<pdfrwt beam="2">  1       -3 0.51380904E-01 0.15079732E+03</pdfrwt>
<totfact> 0.56124946E+02</totfact>
</mgrwt>
</event>
<event>
 7    1  0.5107591E-006  0.1370386E+03  0.7546771E-02  0.1229430E+00
         -1   -1    0    0    0  501 -0.00000000000E+00  0.00000000000E+00  0.36407599954E+02  0.36407599954E+02  0.00000000000E+00 0.  1.
          1   -1    0    0  501    0  0.00000000000E+00 -0.00000000000E+00 -0.40767122216E+03  0.40767122216E+03  0.00000000000E+00 0. -1.
         23    2    1    2    0    0 -0.51390040566E+02  0.22626099762E+02 -0.16815720424E+03  0.19906494051E+03  0.90537995023E+02 0.  0.
          5    1    1    2  502    0  0.87794094186E+02 -0.35118794258E+02 -0.11645734302E+03  0.15008509395E+03  0.47000000000E+01 0. -1.
         -5    1    1    2    0  502 -0.36404053620E+02  0.12492694496E+02 -0.86649074946E+02  0.94928787650E+02  0.47000000000E+01 0. -1.
        -11    1    3    3    0    0  0.65203062630E+01  0.22403290784E+02 -0.12416846681E+03  0.12634171909E+03  0.00000000000E+00 0. -1.
         11    1    3    3    0    0 -0.57910346829E+02  0.22280897758E+00 -0.43988737433E+02  0.72723221426E+02  0.00000000000E+00 0.  1.
<mgrwt>
<rscale>  0 0.12867873E+03</rscale>
<asrwt>0</asrwt>
<pdfrwt beam="2">  1        1 0.62718652E-01 0.13703863E+03</pdfrwt>
<pdfrwt beam="1">  1       -1 0.56011690E-02 0.13703863E+03</pdfrwt>
<totfact> 0.83545776E+03</totfact>
</mgrwt>
</event>
<event>
 7    1  0.5107591E-006  0.1286009E+03  0.7546771E-02  0.1243534E+00
          1   -1    0    0  501    0  0.00000000000E+00  0.00000000000E+00  0.16858605444E+02  0.16858605444E+02  0.00000000000E+00 0. -1.
         -1   -1    0    0    0  501 -0.00000000000E+00 -0.00000000000E+00 -0.78496249140E+03  0.78496249140E+03  0.00000000000E+00 0.  1.
         23    2    1    2    0    0  0.80250777889E+01 -0.29148539774E+02 -0.25089131180E+03  0.26886045216E+03  0.91790267202E+02 0.  0.
          5    1    1    2  502    0  0.21002415971E+02 -0.14071910826E+02 -0.43353173613E+03  0.43429365225E+03  0.47000000000E+01 0. -1.
         -5    1    1    2    0  502 -0.29027493760E+02  0.43220450600E+02 -0.83680838025E+02  0.98666992438E+02  0.47000000000E+01 0. -1.
        -11    1    3    3    0    0 -0.30988271436E+02  0.41816678719E+01 -0.34905553180E+02  0.46863172701E+02  0.00000000000E+00 0. -1.
         11    1    3    3    0    0  0.39013349225E+02 -0.33330207646E+02 -0.21598575862E+03  0.22199727946E+03  0.00000000000E+00 0.  1.
<mgrwt>
<rscale>  0 0.11973566E+03</rscale>
<asrwt>0</asrwt>
<pdfrwt beam="1">  1        1 0.25936317E-02 0.12860094E+03</pdfrwt>
<pdfrwt beam="2">  1       -1 0.12076346E+00 0.12860094E+03</pdfrwt>
<totfact> 0.26242138E+03</totfact>
</mgrwt>
</event>
<event>
 7    1  0.5107591E-006  0.1332724E+03  0.7546771E-02  0.1233090E+00
          1   -1    0    0  501    0  0.00000000000E+00  0.00000000000E+00  0.25849109478E+03  0.25849109478E+03  0.00000000000E+00 0. -1.
         -1   -1    0    0    0  501 -0.00000000000E+00 -0.00000000000E+00 -0.56433393911E+02  0.56433393911E+02  0.00000000000E+00 0.  1.
         23    2    1    2    0    0 -0.28080962798E+02  0.36720984002E+02  0.10356626762E+03  0.14920756397E+03  0.96953361058E+02 0.  0.
          5    1    1    2  502    0  0.25036977217E+02  0.44410073012E+02  0.29621254909E+02  0.59149079076E+02  0.47000000000E+01 0. -1.
         -5    1    1    2    0  502  0.30439855802E+01 -0.81131057015E+02  0.68870178346E+02  0.10656784565E+03  0.47000000000E+01 0. -1.
        -11    1    3    3    0    0 -0.58332043617E+02  0.16097371591E+02  0.93260812161E+02  0.11117253154E+03  0.00000000000E+00 0. -1.
         11    1    3    3    0    0  0.30251080819E+02  0.20623612411E+02  0.10305455454E+02  0.38035032427E+02  0.00000000000E+00 0.  1.
<mgrwt>
<rscale>  0 0.12627473E+03</rscale>
<asrwt>0</asrwt>
<pdfrwt beam="1">  1        1 0.39767860E-01 0.13327242E+03</pdfrwt>
<pdfrwt beam="2">  1       -1 0.86820608E-02 0.13327242E+03</pdfrwt>
<totfact> 0.76189726E+03</totfact>
</mgrwt>
</event>
<event>
 7    1  0.5107591E-006  0.1385254E+03  0.7546771E-02  0.1228193E+00
         -4   -1    0    0    0  501 -0.00000000000E+00  0.00000000000E+00  0.51389018492E+02  0.51389018492E+02  0.00000000000E+00 0.  1.
          4   -1    0    0  501    0  0.00000000000E+00 -0.00000000000E+00 -0.33046427692E+03  0.33046427692E+03  0.00000000000E+00 0. -1.
         23    2    1    2    0    0 -0.21440262241E+02 -0.55705362839E+02 -0.18903738957E+03  0.21663800414E+03  0.87373439247E+02 0.  0.
          5    1    1    2  502    0  0.22997427766E+02  0.88035299650E+02 -0.28395217195E+02  0.95433086651E+02  0.47000000000E+01 0.  1.
         -5    1    1    2    0  502 -0.15571655246E+01 -0.32329936810E+02 -0.61642651663E+02  0.69782204627E+02  0.47000000000E+01 0.  1.
        -11    1    3    3    0    0 -0.32377643066E+02 -0.35575049395E+02 -0.18761576666E+03  0.19368420641E+03  0.00000000000E+00 0. -1.
         11    1    3    3    0    0  0.10937380825E+02 -0.20130313444E+02 -0.14216229108E+01  0.22953797733E+02  0.00000000000E+00 0.  1.
<mgrwt>
<rscale>  0 0.12950428E+03</rscale>
<asrwt>0</asrwt>
<pdfrwt beam="2">  1        4 0.50840660E-01 0.13852536E+03</pdfrwt>
<pdfrwt beam="1">  1       -4 0.79060025E-02 0.13852536E+03</pdfrwt>
<totfact> 0.70184246E+02</totfact>
</mgrwt>
</event>
<event>
 7    1  0.5107591E-006  0.1477919E+03  0.7546771E-02  0.1212634E+00
          3   -1    0    0  501    0  0.00000000000E+00  0.00000000000E+00  0.45013505231E+02  0.45013505231E+02  0.00000000000E+00 0. -1.
         -3   -1    0    0    0  501 -0.00000000000E+00 -0.00000000000E+00 -0.41741591405E+03  0.41741591405E+03  0.00000000000E+00 0.  1.
         23    2    1    2    0    0 -0.78566229711E+02  0.66698067136E+01 -0.12202978569E+03  0.17169090793E+03  0.91484209005E+02 0.  0.
          5    1    1    2  502    0  0.64166549154E+02 -0.12531164028E+02 -0.34156107154E+02  0.73912825397E+02  0.47000000000E+01 0. -1.
         -5    1    1    2    0  502  0.14399680556E+02  0.58613573143E+01 -0.21621651598E+03  0.21682568596E+03  0.47000000000E+01 0. -1.
        -11    1    3    3    0    0 -0.95294285585E+02 -0.97521179118E+01 -0.86154246538E+02  0.12883578255E+03  0.00000000000E+00 0.  1.
         11    1    3    3    0    0  0.16728055874E+02  0.16421924625E+02 -0.35875539150E+02  0.42855125377E+02  0.00000000000E+00 0. -1.
<mgrwt>
<rscale>  0 0.14051793E+03</rscale>
<asrwt>0</asrwt>
<pdfrwt beam="1">  1        3 0.69251544E-02 0.14779185E+03</pdfrwt>
<pdfrwt beam="2">  1       -3 0.64217835E-01 0.14779185E+03</pdfrwt>
<totfact> 0.75496009E+02</totfact>
</mgrwt>
</event>
<event>
 7    1  0.5107591E-006  0.2294204E+03  0.7546771E-02  0.1127048E+00
          2   -1    0    0  501    0  0.00000000000E+00  0.00000000000E+00  0.20114405855E+02  0.20114405855E+02  0.00000000000E+00 0. -1.
         -2   -1    0    0    0  501 -0.00000000000E+00 -0.00000000000E+00 -0.65417933838E+03  0.65417933838E+03  0.00000000000E+00 0.  1.
         23    2    1    2    0    0  0.33210457303E+02 -0.49506897808E+01 -0.21705738867E+03  0.23766084186E+03  0.90781727105E+02 0.  0.
          5    1    1    2  502    0 -0.79188875880E+02 -0.81186955483E+01 -0.29272840309E+03  0.30339545029E+03  0.47000000000E+01 0. -1.
         -5    1    1    2    0  502  0.45978418577E+02  0.13069385329E+02 -0.12427914077E+03  0.13323745208E+03  0.47000000000E+01 0. -1.
        -11    1    3    3    0    0 -0.61019259014E+01  0.13357531951E+02  0.15745455074E+01  0.14769439836E+02  0.00000000000E+00 0. -1.
         11    1    3    3    0    0  0.39312383205E+02 -0.18308221732E+02 -0.21863193418E+03  0.22289140203E+03  0.00000000000E+00 0.  1.
<mgrwt>
<rscale>  0 0.22942039E+03</rscale>
<asrwt>0</asrwt>
<pdfrwt beam="1">  1        2 0.30945237E-02 0.22942039E+03</pdfrwt>
<pdfrwt beam="2">  1       -2 0.10064298E+00 0.22942039E+03</pdfrwt>
<totfact> 0.25105381E+03</totfact>
</mgrwt>
</event>
<event>
 7    1  0.5107591E-006  0.1790962E+03  0.7546771E-02  0.1174412E+00
         -2   -1    0    0    0  501 -0.00000000000E+00  0.00000000000E+00  0.14163045840E+03  0.14163045840E+03  0.00000000000E+00 0.  1.
          2   -1    0    0  501    0  0.00000000000E+00 -0.00000000000E+00 -0.19979118770E+03  0.19979118770E+03  0.00000000000E+00 0. -1.
         23    2    1    2    0    0 -0.65215593389E+02  0.11045364641E+03 -0.21507536752E+02  0.15861327924E+03  0.90788306445E+02 0.  0.
          5    1    1    2  502    0  0.18927755589E+02  0.27031817064E+02 -0.99303728662E+00  0.33347491487E+02  0.47000000000E+01 0.  1.
         -5    1    1    2    0  502  0.46287837800E+02 -0.13748546348E+03 -0.35660155256E+02  0.14946087538E+03  0.47000000000E+01 0.  1.
        -11    1    3    3    0    0  0.19285589695E+02  0.17433165683E+01 -0.85043063873E+00  0.19382888195E+02  0.00000000000E+00 0.  1.
         11    1    3    3    0    0 -0.84501183083E+02  0.10871032984E+03 -0.20657106113E+02  0.13923039104E+03  0.00000000000E+00 0. -1.
<mgrwt>
<rscale>  0 0.17333736E+03</rscale>
<asrwt>0</asrwt>
<pdfrwt beam="2">  1        2 0.30737106E-01 0.17909618E+03</pdfrwt>
<pdfrwt beam="1">  1       -2 0.21789301E-01 0.17909618E+03</pdfrwt>
<totfact> 0.30260370E+03</totfact>
</mgrwt>
</event>
<event>
 7    1  0.5107591E-006  0.1395933E+03  0.7546771E-02  0.1225119E+00
          2   -1    0    0  501    0  0.00000000000E+00  0.00000000000E+00  0.11344205539E+03  0.11344205539E+03  0.00000000000E+00 0. -1.
         -2   -1    0    0    0  501 -0.00000000000E+00 -0.00000000000E+00 -0.16209225544E+03  0.16209225544E+03  0.00000000000E+00 0.  1.
         23    2    1    2    0    0  0.38555995250E+02 -0.48733536541E+02  0.31414836495E+02  0.11460982340E+03  0.91032946315E+02 0.  0.
          5    1    1    2  502    0  0.28300255824E+02  0.29403918655E+02  0.14370407309E+02  0.43521184706E+02  0.47000000000E+01 0.  1.
         -5    1    1    2    0  502 -0.66856251074E+02  0.19329617886E+02 -0.94435443853E+02  0.11740330273E+03  0.47000000000E+01 0.  1.
        -11    1    3    3    0    0  0.21282747516E+02  0.25857507048E+02  0.66876535101E+01  0.34150998844E+02  0.00000000000E+00 0.  1.
         11    1    3    3    0    0  0.17273247734E+02 -0.74591043589E+02  0.24727182985E+02  0.80458824559E+02  0.00000000000E+00 0. -1.
<mgrwt>
<rscale>  0 0.13158724E+03</rscale>
<asrwt>0</asrwt>
<pdfrwt beam="1">  1        2 0.17452624E-01 0.13959327E+03</pdfrwt>
<pdfrwt beam="2">  1       -2 0.24937270E-01 0.13959327E+03</pdfrwt>
<totfact> 0.44496340E+03</totfact>
</mgrwt>
</event>
<event>
 7    1  0.5107591E-006  0.2291367E+03  0.7546771E-02  0.1127249E+00
         -1   -1    0    0    0  501 -0.00000000000E+00  0.00000000000E+00  0.46755310855E+03  0.46755310855E+03  0.00000000000E+00 0.  1.
          1   -1    0    0  501    0  0.00000000000E+00 -0.00000000000E+00 -0.28073616053E+02  0.28073616053E+02  0.00000000000E+00 0. -1.
         23    2    1    2    0    0  0.15368498483E+02 -0.22104195150E+02  0.14433818456E+03  0.17395300534E+03  0.93281028916E+02 0.  0.
          5    1    1    2  502    0 -0.32857075747E+02  0.55878507398E+02  0.26518117992E+03  0.27302956469E+03  0.47000000000E+01 0.  1.
         -5    1    1    2    0  502  0.17488577264E+02 -0.33774312248E+02  0.29960128022E+02  0.48644154568E+02  0.47000000000E+01 0.  1.
        -11    1    3    3    0    0 -0.14161269836E+02 -0.36103565028E+01 -0.86937274012E+01  0.17004620948E+02  0.00000000000E+00 0. -1.
         11    1    3    3    0    0  0.29529768319E+02 -0.18493838647E+02  0.15303191196E+03  0.15694838439E+03  0.00000000000E+00 0.  1.
<mgrwt>
<rscale>  0 0.22913670E+03</rscale>
<asrwt>0</asrwt>
<pdfrwt beam="2">  1        1 0.43190182E-02 0.22913670E+03</pdfrwt>
<pdfrwt beam="1">  1       -1 0.71931242E-01 0.22913670E+03</pdfrwt>
<totfact> 0.40959652E+03</totfact>
</mgrwt>
</event>
<event>
 7    1  0.5107591E-006  0.1412079E+03  0.7546771E-02  0.1222586E+00
          1   -1    0    0  501    0  0.00000000000E+00  0.00000000000E+00  0.56138203849E+03  0.56138203849E+03  0.00000000000E+00 0. -1.
         -1   -1    0    0    0  501 -0.00000000000E+00 -0.00000000000E+00 -0.32031358135E+02  0.32031358135E+02  0.00000000000E+00 0.  1.
         23    2    1    2    0    0  0.25711250190E+02 -0.60446564651E+02  0.33406478614E+03  0.35242325370E+03  0.91038523936E+02 0.  0.
          5    1    1    2  502    0 -0.28977719732E+01  0.52551786237E+02  0.20707914098E+03  0.21371464140E+03  0.47000000000E+01 0. -1.
         -5    1    1    2    0  502 -0.22813478217E+02  0.78947784139E+01 -0.11793246767E+02  0.27275501533E+02  0.47000000000E+01 0. -1.
        -11    1    3    3    0    0 -0.14991130054E+02 -0.27005809756E+02  0.27469644452E+02  0.41335567096E+02  0.00000000000E+00 0.  1.
         11    1    3    3    0    0  0.40702380244E+02 -0.33440754895E+02  0.30659514169E+03  0.31108768660E+03  0.00000000000E+00 0. -1.
<mgrwt>
<rscale>  0 0.13333768E+03</rscale>
<asrwt>0</asrwt>
<pdfrwt beam="1">  1        1 0.86366460E-01 0.14120789E+03</pdfrwt>
<pdfrwt beam="2">  1       -1 0.49279017E-02 0.14120789E+03</pdfrwt>
<totfact> 0.66834096E+03</totfact>
</mgrwt>
</event>
<event>
 7    1  0.5107591E-006  0.2258442E+03  0.7546771E-02  0.1132284E+00
          1   -1    0    0  501    0  0.00000000000E+00  0.00000000000E+00  0.78120544459E+03  0.78120544459E+03  0.00000000000E+00 0. -1.
         -1   -1    0    0    0  501 -0.00000000000E+00 -0.00000000000E+00 -0.87683188479E+02  0.87683188479E+02  0.00000000000E+00 0.  1.
         23    2    1    2    0    0 -0.14289032247E+03  0.12231522381E+03  0.57747545994E+03  0.61497438329E+03  0.96627775720E+02 0.  0.
          5    1    1    2  502    0 -0.51956196061E+00 -0.84988867734E+01 -0.22338829003E+02  0.24364201244E+02  0.47000000000E+01 0. -1.
         -5    1    1    2    0  502  0.14340988443E+03 -0.11381633703E+03  0.13838562517E+03  0.22955004853E+03  0.47000000000E+01 0. -1.
        -11    1    3    3    0    0 -0.57044414151E+02  0.61267951600E+02  0.39937306107E+03  0.40805228708E+03  0.00000000000E+00 0. -1.
         11    1    3    3    0    0 -0.85845908316E+02  0.61047272207E+02  0.17810239887E+03  0.20692209621E+03  0.00000000000E+00 0.  1.
<mgrwt>
<rscale>  0 0.22215906E+03</rscale>
<asrwt>0</asrwt>
<pdfrwt beam="1">  1        1 0.12018545E+00 0.22584417E+03</pdfrwt>
<pdfrwt beam="2">  1       -1 0.13489722E-01 0.22584417E+03</pdfrwt>
<totfact> 0.91287987E+02</totfact>
</mgrwt>
</event>
<event>
 7    1  0.5107591E-006  0.3008101E+03  0.7546771E-02  0.1086214E+00
         -4   -1    0    0    0  501 -0.00000000000E+00  0.00000000000E+00  0.10373324878E+03  0.10373324878E+03  0.00000000000E+00 0.  1.
          4   -1    0    0  501    0  0.00000000000E+00 -0.00000000000E+00 -0.10998290461E+04  0.10998290461E+04  0.00000000000E+00 0. -1.
         23    2    1    2    0    0 -0.14948146022E+03  0.22915116361E+03 -0.78287388326E+03  0.83484788239E+03  0.96044296628E+02 0.  0.
          5    1    1    2  502    0  0.12777792834E+03 -0.82557021029E+02 -0.11680669758E+03  0.19185607963E+03  0.47000000000E+01 0. -1.
         -5    1    1    2    0  502  0.21703531884E+02 -0.14659414259E+03 -0.96415216522E+02  0.17685833289E+03  0.47000000000E+01 0. -1.
        -11    1    3    3    0    0 -0.42105909471E+02  0.86394650970E+01 -0.87489735665E+02  0.97478212008E+02  0.00000000000E+00 0.  1.
         11    1    3    3    0    0 -0.10737555075E+03  0.22051169852E+03 -0.69538414759E+03  0.73736967039E+03  0.00000000000E+00 0. -1.
<mgrwt>
<rscale>  0 0.29806130E+03</rscale>
<asrwt>0</asrwt>
<pdfrwt beam="2">  1        4 0.16920447E+00 0.30081013E+03</pdfrwt>
<pdfrwt beam="1">  1       -4 0.15958961E-01 0.30081013E+03</pdfrwt>
<totfact> 0.14301936E+01</totfact>
</mgrwt>
</event>
<event>
 7    1  0.5107591E-006  0.3903752E+03  0.7546771E-02  0.1086998E+00
          2   -1    0    0  501    0  0.00000000000E+00  0.00000000000E+00  0.18431821431E+04  0.18431821431E+04  0.00000000000E+00 0. -1.
         -2   -1    0    0    0  501 -0.00000000000E+00 -0.00000000000E+00 -0.37123796782E+02  0.37123796782E+02  0.00000000000E+00 0.  1.
         23    2    1    2    0    0  0.91078961849E+02  0.18576261338E+01  0.54110378528E+03  0.55648464002E+03  0.92644590070E+02 0.  0.
          5    1    1    2  502    0  0.23279547707E+02  0.88676056570E+02  0.10990095972E+04  0.11028370529E+04  0.47000000000E+01 0. -1.
         -5    1    1    2    0  502 -0.11435850956E+03 -0.90533682704E+02  0.16594496382E+03  0.22098424702E+03  0.47000000000E+01 0.  1.
        -11    1    3    3    0    0  0.11018898971E+03  0.45002380708E+01  0.47421883889E+03  0.48687305609E+03  0.00000000000E+00 0.  1.
         11    1    3    3    0    0 -0.19110027862E+02 -0.26426119370E+01  0.66884946391E+02  0.69611583924E+02  0.00000000000E+00 0. -1.
<mgrwt>
<rscale>  0 0.29650987E+03</rscale>
<asrwt>0</asrwt>
<pdfrwt beam="1">  1        2 0.28356641E+00 0.39037519E+03</pdfrwt>
<pdfrwt beam="2">  1       -2 0.57113548E-02 0.39037519E+03</pdfrwt>
<totfact> 0.14223617E+03</totfact>
</mgrwt>
</event>
<event>
 7    1  0.5107591E-006  0.1459655E+03  0.7546771E-02  0.1215124E+00
          1   -1    0    0  501    0  0.00000000000E+00  0.00000000000E+00  0.35543424284E+03  0.35543424284E+03  0.00000000000E+00 0. -1.
         -1   -1    0    0    0  501 -0.00000000000E+00 -0.00000000000E+00 -0.49733392363E+02  0.49733392363E+02  0.00000000000E+00 0.  1.
         23    2    1    2    0    0 -0.18713603167E+02  0.73021362819E+02  0.15507418340E+03  0.19541937208E+03  0.91969615934E+02 0.  0.
          5    1    1    2  502    0  0.61802100182E+02 -0.39112678910E+02  0.13318503255E+03  0.15201856510E+03  0.47000000000E+01 0.  1.
         -5    1    1    2    0  502 -0.43088497015E+02 -0.33908683909E+02  0.17441634526E+02  0.57729698028E+02  0.47000000000E+01 0.  1.
        -11    1    3    3    0    0 -0.26574631886E+02  0.83772244535E+02  0.15888017149E+03  0.18156791817E+03  0.00000000000E+00 0. -1.
         11    1    3    3    0    0  0.78610287195E+01 -0.10750881716E+02 -0.38059880888E+01  0.13851453914E+02  0.00000000000E+00 0.  1.
<mgrwt>
<rscale>  0 0.13867454E+03</rscale>
<asrwt>0</asrwt>
<pdfrwt beam="1">  1        1 0.54682190E-01 0.14596555E+03</pdfrwt>
<pdfrwt beam="2">  1       -1 0.76512913E-02 0.14596555E+03</pdfrwt>
<totfact> 0.62484568E+03</totfact>
</mgrwt>
</event>
<event>
 7    1  0.5107591E-006  0.1622775E+03  0.7546771E-02  0.1198161E+00
          1   -1    0    0  501    0  0.00000000000E+00  0.00000000000E+00  0.41727960676E+02  0.41727960676E+02  0.00000000000E+00 0. -1.
         -1   -1    0    0    0  501 -0.00000000000E+00 -0.00000000000E+00 -0.49297069165E+03  0.49297069165E+03  0.00000000000E+00 0.  1.
         23    2    1    2    0    0 -0.77163699654E+02 -0.32677791750E+02 -0.19547219945E+03  0.23179181266E+03  0.92173689537E+02 0.  0.
          5    1    1    2  502    0  0.11536238907E+02  0.67671511095E+02 -0.19488172637E+03  0.20667243526E+03  0.47000000000E+01 0. -1.
         -5    1    1    2    0  502  0.65627460747E+02 -0.34993719345E+02 -0.60888805151E+02  0.96234404401E+02  0.47000000000E+01 0.  1.
        -11    1    3    3    0    0 -0.37607324108E+02  0.16682107921E+02 -0.14542672567E+03  0.15113416586E+03  0.00000000000E+00 0.  1.
         11    1    3    3    0    0 -0.39556375547E+02 -0.49359899672E+02 -0.50045473775E+02  0.80657646800E+02  0.00000000000E+00 0. -1.
<mgrwt>
<rscale>  0 0.15189673E+03</rscale>
<asrwt>0</asrwt>
<pdfrwt beam="1">  1        1 0.64196866E-02 0.16227751E+03</pdfrwt>
<pdfrwt beam="2">  1       -1 0.75841641E-01 0.16227751E+03</pdfrwt>
<totfact> 0.20977262E+03</totfact>
</mgrwt>
</event>
<event>
 7    1  0.5107591E-006  0.1973252E+03  0.7546771E-02  0.1156146E+00
         -2   -1    0    0    0  501 -0.00000000000E+00  0.00000000000E+00  0.25173770413E+02  0.25173770413E+02  0.00000000000E+00 0.  1.
          2   -1    0    0  501    0  0.00000000000E+00 -0.00000000000E+00 -0.14071558046E+04  0.14071558046E+04  0.00000000000E+00 0. -1.
         23    2    1    2    0    0  0.12663264779E+03  0.85300018626E+02 -0.66812969950E+03  0.69170660552E+03  0.93535084856E+02 0.  0.
          5    1    1    2  502    0 -0.33216834949E+02 -0.92445401705E+02 -0.44914365182E+03  0.45978431943E+03  0.47000000000E+01 0. -1.
         -5    1    1    2    0  502 -0.93415812842E+02  0.71453830790E+01 -0.26470868290E+03  0.28083865010E+03  0.47000000000E+01 0. -1.
        -11    1    3    3    0    0  0.55108682912E+02  0.83792907103E+02 -0.48153053086E+03  0.49186367050E+03  0.00000000000E+00 0. -1.
         11    1    3    3    0    0  0.71523964880E+02  0.15071115234E+01 -0.18659916864E+03  0.19984293501E+03  0.00000000000E+00 0.  1.
<mgrwt>
<rscale>  0 0.19258992E+03</rscale>
<asrwt>0</asrwt>
<pdfrwt beam="2">  1        2 0.21648558E+00 0.19732518E+03</pdfrwt>
<pdfrwt beam="1">  1       -2 0.38728865E-02 0.19732518E+03</pdfrwt>
<totfact> 0.43960493E+03</totfact>
</mgrwt>
</event>
<event>
 7    1  0.5107591E-006  0.1803458E+03  0.7546771E-02  0.1173318E+00
          2   -1    0    0  501    0  0.00000000000E+00  0.00000000000E+00  0.27139590078E+03  0.27139590078E+03  0.00000000000E+00 0. -1.
         -2   -1    0    0    0  501 -0.00000000000E+00 -0.00000000000E+00 -0.11217696488E+03  0.11217696488E+03  0.00000000000E+00 0.  1.
         23    2    1    2    0    0  0.11382534713E+03  0.62827818446E+02  0.12195823201E+03  0.19941815766E+03  0.89388180598E+02 0.  0.
          5    1    1    2  502    0 -0.10532027275E+03 -0.39629742101E+02  0.77490091858E+02  0.13671020681E+03  0.47000000000E+01 0. -1.
         -5    1    1    2    0  502 -0.85050743777E+01 -0.23198076345E+02 -0.40229387966E+02  0.47444501182E+02  0.47000000000E+01 0. -1.
        -11    1    3    3    0    0  0.10025643890E+03  0.77046863670E+02  0.71478648132E+02  0.14524727151E+03  0.00000000000E+00 0.  1.
         11    1    3    3    0    0  0.13568908223E+02 -0.14219045225E+02  0.50479583881E+02  0.54170886150E+02  0.00000000000E+00 0. -1.
<mgrwt>
<rscale>  0 0.17441782E+03</rscale>
<asrwt>0</asrwt>
<pdfrwt beam="1">  1        2 0.41753215E-01 0.18034577E+03</pdfrwt>
<pdfrwt beam="2">  1       -2 0.17257995E-01 0.18034577E+03</pdfrwt>
<totfact> 0.32297901E+03</totfact>
</mgrwt>
</event>
<event>
 7    1  0.5107591E-006  0.1519459E+03  0.7546771E-02  0.1207176E+00
         -2   -1    0    0    0  501 -0.00000000000E+00  0.00000000000E+00  0.79407481099E+02  0.79407481099E+02  0.00000000000E+00 0.  1.
          2   -1    0    0  501    0  0.00000000000E+00 -0.00000000000E+00 -0.25707548859E+03  0.25707548859E+03  0.00000000000E+00 0. -1.
         23    2    1    2    0    0  0.79214150151E+02 -0.34475513460E+02 -0.12222608563E+03  0.17473819296E+03  0.90170823756E+02 0.  0.
          5    1    1    2  502    0 -0.45885238226E+02 -0.41145435833E+02  0.54925464370E+00  0.61812568767E+02  0.47000000000E+01 0.  1.
         -5    1    1    2    0  502 -0.33328911925E+02  0.75620949293E+02 -0.55991176501E+02  0.99932207962E+02  0.47000000000E+01 0.  1.
        -11    1    3    3    0    0  0.45944167239E+02 -0.53807802679E+02 -0.11583131420E+03  0.13573149775E+03  0.00000000000E+00 0. -1.
         11    1    3    3    0    0  0.33269982912E+02  0.19332289218E+02 -0.63947714327E+01  0.39006695208E+02  0.00000000000E+00 0.  1.
<mgrwt>
<rscale>  0 0.14467293E+03</rscale>
<asrwt>0</asrwt>
<pdfrwt beam="2">  1        2 0.39550074E-01 0.15194593E+03</pdfrwt>
<pdfrwt beam="1">  1       -2 0.12216536E-01 0.15194593E+03</pdfrwt>
<totfact> 0.59704295E+03</totfact>
</mgrwt>
</event>
<event>
 7    1  0.5107591E-006  0.1393078E+03  0.7546771E-02  0.1225817E+00
         -2   -1    0    0    0  501 -0.00000000000E+00  0.00000000000E+00  0.41646352188E+03  0.41646352188E+03  0.00000000000E+00 0. -1.
          2   -1    0    0  501    0  0.00000000000E+00 -0.00000000000E+00 -0.41061363779E+02  0.41061363779E+02  0.00000000000E+00 0.  1.
         23    2    1    2    0    0 -0.44993552291E+02  0.41845250607E+02  0.96664614865E+02  0.14591408813E+03  0.90395954565E+02 0.  0.
          5    1    1    2  502    0  0.81071877083E+02 -0.90832273508E+01  0.11762399506E+03  0.14322237425E+03  0.47000000000E+01 0. -1.
         -5    1    1    2    0  502 -0.36078324792E+02 -0.32762023256E+02  0.16111354817E+03  0.16838842327E+03  0.47000000000E+01 0. -1.
        -11    1    3    3    0    0  0.18112502833E+02  0.28388910254E+02  0.66810956049E+02  0.74817757467E+02  0.00000000000E+00 0. -1.
         11    1    3    3    0    0 -0.63106055124E+02  0.13456340353E+02  0.29853658816E+02  0.71096330663E+02  0.00000000000E+00 0.  1.
<mgrwt>
<rscale>  0 0.13111079E+03</rscale>
<asrwt>0</asrwt>
<pdfrwt beam="2">  1        2 0.63171332E-02 0.13930783E+03</pdfrwt>
<pdfrwt beam="1">  1       -2 0.64071308E-01 0.13930783E+03</pdfrwt>
<totfact> 0.25564260E+03</totfact>
</mgrwt>
</event>
<event>
 7    1  0.5107591E-006  0.1352008E+03  0.7546771E-02  0.1232072E+00
         -3   -1    0    0    0  501 -0.00000000000E+00  0.00000000000E+00  0.16153658136E+03  0.16153658136E+03  0.00000000000E+00 0.  1.
          3   -1    0    0  501    0  0.00000000000E+00 -0.00000000000E+00 -0.89798099420E+02  0.89798099420E+02  0.00000000000E+00 0. -1.
         23    2    1    2    0    0  0.45058948347E+02 -0.25007794198E+02  0.22444746468E+02  0.10742802342E+03  0.91549521986E+02 0.  0.
          5    1    1    2  502    0 -0.71141482828E+01  0.40128716314E+02  0.81788103103E+02  0.91500321245E+02  0.47000000000E+01 0.  1.
         -5    1    1    2    0  502 -0.37944800064E+02 -0.15120922115E+02 -0.32494367626E+02  0.52406336115E+02  0.47000000000E+01 0.  1.
        -11    1    3    3    0    0  0.10820401825E+02 -0.32477545265E+02  0.51544990459E+02  0.61876959229E+02  0.00000000000E+00 0.  1.
         11    1    3    3    0    0  0.34238546522E+02  0.74697510666E+01 -0.29100243991E+02  0.45551064194E+02  0.00000000000E+00 0. -1.
<mgrwt>
<rscale>  0 0.12693777E+03</rscale>
<asrwt>0</asrwt>
<pdfrwt beam="2">  1        3 0.13815092E-01 0.13520079E+03</pdfrwt>
<pdfrwt beam="1">  1       -3 0.24851782E-01 0.13520079E+03</pdfrwt>
<totfact> 0.14913284E+03</totfact>
</mgrwt>
</event>
<event>
 7    1  0.5107591E-006  0.1450641E+03  0.7546771E-02  0.1216829E+00
          2   -1    0    0  501    0  0.00000000000E+00  0.00000000000E+00  0.73190993471E+03  0.73190993471E+03  0.00000000000E+00 0. -1.
         -2   -1    0    0    0  501 -0.00000000000E+00 -0.00000000000E+00 -0.23906679349E+02  0.23906679349E+02  0.00000000000E+00 0.  1.
         23    2    1    2    0    0 -0.62105626005E+02 -0.39513667908E+02  0.36954403875E+03  0.38757996928E+03  0.90757904797E+02 0.  0.
          5    1    1    2  502    0  0.63344147495E+01 -0.32859810292E+01 -0.97535749806E+01  0.12967062368E+02  0.47000000000E+01 0.  1.
         -5    1    1    2    0  502  0.55771211256E+02  0.42799648937E+02  0.34821279160E+03  0.35526958241E+03  0.47000000000E+01 0.  1.
        -11    1    3    3    0    0 -0.54072412118E+01  0.16383948513E+02  0.11368851608E+02  0.20662110571E+02  0.00000000000E+00 0.  1.
         11    1    3    3    0    0 -0.56698384793E+02 -0.55897616420E+02  0.35817518714E+03  0.36691785871E+03  0.00000000000E+00 0. -1.
<mgrwt>
<rscale>  0 0.13743049E+03</rscale>
<asrwt>0</asrwt>
<pdfrwt beam="1">  1        2 0.11260151E+00 0.14506407E+03</pdfrwt>
<pdfrwt beam="2">  1       -2 0.36779512E-02 0.14506407E+03</pdfrwt>
<totfact> 0.11885339E+04</totfact>
</mgrwt>
</event>
<event>
 7    1  0.5107591E-006  0.1697367E+03  0.7546771E-02  0.1181971E+00
          1   -1    0    0  501    0  0.00000000000E+00  0.00000000000E+00  0.47730526051E+03  0.47730526051E+03  0.00000000000E+00 0. -1.
         -1   -1    0    0    0  501 -0.00000000000E+00 -0.00000000000E+00 -0.55504144106E+02  0.55504144106E+02  0.00000000000E+00 0.  1.
         23    2    1    2    0    0 -0.10740718553E+03  0.40624487118E+02  0.20902991748E+03  0.26062907405E+03  0.10510640028E+03 0.  0.
          5    1    1    2  502    0 -0.12960921465E+02 -0.46777532102E+02  0.69392495315E+02  0.84814688591E+02  0.47000000000E+01 0. -1.
         -5    1    1    2    0  502  0.12036810700E+03  0.61530449840E+01  0.14337870360E+03  0.18736564197E+03  0.47000000000E+01 0. -1.
        -11    1    3    3    0    0 -0.32705754013E+02  0.46393636299E+02  0.25177548348E+02  0.62096254117E+02  0.00000000000E+00 0.  1.
         11    1    3    3    0    0 -0.74701431519E+02 -0.57691491805E+01  0.18385236914E+03  0.19853281993E+03  0.00000000000E+00 0. -1.
<mgrwt>
<rscale>  0 0.16610587E+03</rscale>
<asrwt>0</asrwt>
<pdfrwt beam="1">  1        1 0.73431576E-01 0.16973671E+03</pdfrwt>
<pdfrwt beam="2">  1       -1 0.85390994E-02 0.16973671E+03</pdfrwt>
<totfact> 0.36626380E+03</totfact>
</mgrwt>
</event>
<event>
 7    1  0.5107591E-006  0.1302180E+03  0.7546771E-02  0.1241192E+00
          1   -1    0    0  501    0  0.00000000000E+00  0.00000000000E+00  0.14193374700E+03  0.14193374700E+03  0.00000000000E+00 0. -1.
         -1   -1    0    0    0  501 -0.00000000000E+00 -0.00000000000E+00 -0.95269163877E+02  0.95269163877E+02  0.00000000000E+00 0.  1.
         23    2    1    2    0    0  0.34031727694E+02 -0.13152442093E+02  0.43734214254E+02  0.10695191168E+03  0.90525602411E+02 0.  0.
          5    1    1    2  502    0  0.40691737440E+02  0.33101934585E+02  0.32712111823E+01  0.52766906217E+02  0.47000000000E+01 0. -1.
         -5    1    1    2    0  502 -0.74723465134E+02 -0.19949492491E+02 -0.34084231205E+00  0.77484092985E+02  0.47000000000E+01 0. -1.
        -11    1    3    3    0    0  0.15316400609E+02  0.32438635558E+02  0.45128453547E+02  0.57649236976E+02  0.00000000000E+00 0.  1.
         11    1    3    3    0    0  0.18715327085E+02 -0.45591077651E+02 -0.13942392932E+01  0.49302674699E+02  0.00000000000E+00 0. -1.
<mgrwt>
<rscale>  0 0.12116225E+03</rscale>
<asrwt>0</asrwt>
<pdfrwt beam="1">  1        1 0.21835961E-01 0.13021803E+03</pdfrwt>
<pdfrwt beam="2">  1       -1 0.14656794E-01 0.13021803E+03</pdfrwt>
<totfact> 0.71787051E+03</totfact>
</mgrwt>
</event>
<event>
 7    1  0.5107591E-006  0.1296195E+03  0.7546771E-02  0.1241900E+00
          3   -1    0    0  501    0  0.00000000000E+00  0.00000000000E+00  0.12678449064E+03  0.12678449064E+03  0.00000000000E+00 0. -1.
         -3   -1    0    0    0  501 -0.00000000000E+00 -0.00000000000E+00 -0.10328818317E+03  0.10328818317E+03  0.00000000000E+00 0.  1.
         23    2    1    2    0    0  0.33888930147E+02  0.46733878246E+01  0.23971877834E+02  0.10045227266E+03  0.91354846697E+02 0.  0.
          5    1    1    2  502    0  0.96437652099E+00 -0.62086790355E+02  0.88081858130E+00  0.62278129388E+02  0.47000000000E+01 0. -1.
         -5    1    1    2    0  502 -0.34853306668E+02  0.57413402531E+02 -0.13563889482E+01  0.67342271768E+02  0.47000000000E+01 0. -1.
        -11    1    3    3    0    0  0.64247641704E+02  0.99663786321E+00  0.49663859373E+01  0.64447014988E+02  0.00000000000E+00 0.  1.
         11    1    3    3    0    0 -0.30358711557E+02  0.36767499614E+01  0.19005491897E+02  0.36005257671E+02  0.00000000000E+00 0. -1.
<mgrwt>
<rscale>  0 0.12072847E+03</rscale>
<asrwt>0</asrwt>
<pdfrwt beam="1">  1        3 0.19505306E-01 0.12961953E+03</pdfrwt>
<pdfrwt beam="2">  1       -3 0.15890490E-01 0.12961953E+03</pdfrwt>
<totfact> 0.17941267E+03</totfact>
</mgrwt>
</event>
<event>
 7    1  0.5107591E-006  0.2407238E+03  0.7546771E-02  0.1136949E+00
          1   -1    0    0  501    0  0.00000000000E+00  0.00000000000E+00  0.74323580597E+03  0.74323580597E+03  0.00000000000E+00 0. -1.
         -1   -1    0    0    0  501 -0.00000000000E+00 -0.00000000000E+00 -0.53845895475E+02  0.53845895475E+02  0.00000000000E+00 0.  1.
         23    2    1    2    0    0  0.63529705663E+02  0.11337201890E+03  0.32370644215E+03  0.35927769556E+03  0.86054422697E+02 0.  0.
          5    1    1    2  502    0 -0.80219622343E+02 -0.22759539634E+02  0.32745970235E+03  0.33794249676E+03  0.47000000000E+01 0. -1.
         -5    1    1    2    0  502  0.16689916681E+02 -0.90612479266E+02  0.38223765991E+02  0.99861509122E+02  0.47000000000E+01 0.  1.
        -11    1    3    3    0    0  0.37254379239E+02  0.92833283039E+01  0.37791383638E+02  0.53872605600E+02  0.00000000000E+00 0.  1.
         11    1    3    3    0    0  0.26275326424E+02  0.10408869060E+03  0.28591505851E+03  0.30540508996E+03  0.00000000000E+00 0. -1.
<mgrwt>
<rscale>  0 0.21593746E+03</rscale>
<asrwt>0</asrwt>
<pdfrwt beam="1">  1        1 0.11434396E+00 0.24072380E+03</pdfrwt>
<pdfrwt beam="2">  1       -1 0.82839844E-02 0.24072380E+03</pdfrwt>
<totfact> 0.20979192E+03</totfact>
</mgrwt>
</event>
<event>
 7    1  0.5107591E-006  0.1346384E+03  0.7546771E-02  0.1233155E+00
          1   -1    0    0  501    0  0.00000000000E+00  0.00000000000E+00  0.11031371874E+03  0.11031371874E+03  0.00000000000E+00 0. -1.
         -1   -1    0    0    0  501 -0.00000000000E+00 -0.00000000000E+00 -0.13920943348E+03  0.13920943348E+03  0.00000000000E+00 0.  1.
         23    2    1    2    0    0 -0.28128718067E+02  0.41369574785E+02  0.20635606887E+02  0.10606291983E+03  0.91218683351E+02 0.  0.
          5    1    1    2  502    0  0.50952983584E+02  0.28513541016E+02 -0.35423622516E+02  0.68455471582E+02  0.47000000000E+01 0.  1.
         -5    1    1    2    0  502 -0.22824265517E+02 -0.69883115801E+02 -0.14107699115E+02  0.75004760814E+02  0.47000000000E+01 0.  1.
        -11    1    3    3    0    0 -0.48173424963E+01  0.34822098638E+02  0.54244947606E+02  0.64639768587E+02  0.00000000000E+00 0. -1.
         11    1    3    3    0    0 -0.23311375571E+02  0.65474761473E+01 -0.33609340719E+02  0.41423151238E+02  0.00000000000E+00 0.  1.
<mgrwt>
<rscale>  0 0.12623292E+03</rscale>
<asrwt>0</asrwt>
<pdfrwt beam="1">  1        1 0.16971341E-01 0.13463835E+03</pdfrwt>
<pdfrwt beam="2">  1       -1 0.21416836E-01 0.13463835E+03</pdfrwt>
<totfact> 0.54310545E+03</totfact>
</mgrwt>
</event>
<event>
 7    1  0.5107591E-006  0.1708984E+03  0.7546771E-02  0.1184252E+00
         -1   -1    0    0    0  501 -0.00000000000E+00  0.00000000000E+00  0.24616317290E+03  0.24616317290E+03  0.00000000000E+00 0.  1.
          1   -1    0    0  501    0  0.00000000000E+00 -0.00000000000E+00 -0.11710522620E+03  0.11710522620E+03  0.00000000000E+00 0. -1.
         23    2    1    2    0    0  0.29783829204E+01  0.11655438380E+03 -0.65800158046E+01  0.14508514016E+03  0.86096493188E+02 0.  0.
          5    1    1    2  502    0  0.49423043410E+02 -0.12737024492E+02  0.62061222546E+02  0.80489467365E+02  0.47000000000E+01 0.  1.
         -5    1    1    2    0  502 -0.52401426331E+02 -0.10381735931E+03  0.73576739961E+02  0.13769379158E+03  0.47000000000E+01 0.  1.
        -11    1    3    3    0    0  0.38303279551E+02  0.59359399175E+02 -0.25733016801E+02  0.75185554786E+02  0.00000000000E+00 0. -1.
         11    1    3    3    0    0 -0.35324896631E+02  0.57194984625E+02  0.19153000996E+02  0.69899585373E+02  0.00000000000E+00 0.  1.
<mgrwt>
<rscale>  0 0.16400139E+03</rscale>
<asrwt>0</asrwt>
<pdfrwt beam="2">  1        1 0.18016189E-01 0.17089844E+03</pdfrwt>
<pdfrwt beam="1">  1       -1 0.37871257E-01 0.17089844E+03</pdfrwt>
<totfact> 0.19580274E+03</totfact>
</mgrwt>
</event>
<event>
 7    1  0.5107591E-006  0.1280518E+03  0.7546771E-02  0.1256126E+00
         -2   -1    0    0    0  501 -0.00000000000E+00  0.00000000000E+00  0.10260848743E+03  0.10260848743E+03  0.00000000000E+00 0.  1.
          2   -1    0    0  501    0  0.00000000000E+00 -0.00000000000E+00 -0.19235010375E+03  0.19235010375E+03  0.00000000000E+00 0. -1.
         23    2    1    2    0    0  0.10564706117E+02  0.26967082620E+02 -0.13842106567E+03  0.15796602244E+03  0.70384915033E+02 0.  0.
          5    1    1    2  502    0  0.20561870816E+02 -0.12554277021E+02  0.84012215942E+02  0.87524527022E+02  0.47000000000E+01 0. -1.
         -5    1    1    2    0  502 -0.31126576933E+02 -0.14412805600E+02 -0.35332766583E+02  0.49468041716E+02  0.47000000000E+01 0. -1.
        -11    1    3    3    0    0 -0.39565907181E+01  0.39026565527E+02 -0.13249798261E+03  0.13818264299E+03  0.00000000000E+00 0. -1.
         11    1    3    3    0    0  0.14521296835E+02 -0.12059482906E+02 -0.59230830616E+01  0.19783379456E+02  0.00000000000E+00 0.  1.
<mgrwt>
<rscale>  0 0.11243490E+03</rscale>
<asrwt>0</asrwt>
<pdfrwt beam="2">  1        2 0.29592324E-01 0.12805185E+03</pdfrwt>
<pdfrwt beam="1">  1       -2 0.15785921E-01 0.12805185E+03</pdfrwt>
<totfact> 0.53228480E+03</totfact>
</mgrwt>
</event>
<event>
 7    1  0.5107591E-006  0.4266152E+03  0.7546771E-02  0.1034935E+00
         -1   -1    0    0    0  501 -0.00000000000E+00  0.00000000000E+00  0.23792374814E+03  0.23792374814E+03  0.00000000000E+00 0.  1.
          1   -1    0    0  501    0  0.00000000000E+00 -0.00000000000E+00 -0.19123827506E+03  0.19123827506E+03  0.00000000000E+00 0. -1.
         23    2    1    2    0    0  0.88307729034E+02 -0.10218495483E+02  0.22585402239E+02  0.12939630139E+03  0.91272283643E+02 0.  0.
          5    1    1    2  502    0  0.10226063494E+03  0.31173785271E+02  0.98514847166E+01  0.10746247763E+03  0.47000000000E+01 0. -1.
         -5    1    1    2    0  502 -0.19056836398E+03 -0.20955289788E+02  0.14248586126E+02  0.19230324419E+03  0.47000000000E+01 0.  1.
        -11    1    3    3    0    0  0.10561829244E+03 -0.14335912006E+02  0.29033806800E+02  0.11047037616E+03  0.00000000000E+00 0. -1.
         11    1    3    3    0    0 -0.17310563409E+02  0.41174165239E+01 -0.64484045608E+01  0.18925925228E+02  0.00000000000E+00 0.  1.
<mgrwt>
<rscale>  0 0.42661518E+03</rscale>
<asrwt>0</asrwt>
<pdfrwt beam="2">  1        1 0.29421273E-01 0.42661518E+03</pdfrwt>
<pdfrwt beam="1">  1       -1 0.36603654E-01 0.42661518E+03</pdfrwt>
<totfact> 0.11277550E+03</totfact>
</mgrwt>
</event>
<event>
 7    1  0.5107591E-006  0.1258013E+03  0.7546771E-02  0.1248893E+00
         -1   -1    0    0    0  501 -0.00000000000E+00  0.00000000000E+00  0.86967612890E+03  0.86967612890E+03  0.00000000000E+00 0.  1.
          1   -1    0    0  501    0  0.00000000000E+00 -0.00000000000E+00 -0.28280983613E+02  0.28280983613E+02  0.00000000000E+00 0. -1.
         23    2    1    2    0    0 -0.10060116716E+02  0.99808270097E+01  0.69439785350E+02  0.11581834191E+03  0.91603393366E+02 0.  0.
          5    1    1    2  502    0  0.44826388267E+02  0.33614748060E+02  0.20975371383E+03  0.21715908187E+03  0.47000000000E+01 0. -1.
         -5    1    1    2    0  502 -0.34766271550E+02 -0.43595575070E+02  0.56220164611E+03  0.56497968874E+03  0.47000000000E+01 0. -1.
        -11    1    3    3    0    0  0.25683716723E+02  0.26939334221E+02  0.66423110942E+02  0.76140729575E+02  0.00000000000E+00 0.  1.
         11    1    3    3    0    0 -0.35743833440E+02 -0.16958507211E+02  0.30166744079E+01  0.39677612331E+02  0.00000000000E+00 0. -1.
<mgrwt>
<rscale>  0 0.11655362E+03</rscale>
<asrwt>0</asrwt>
<pdfrwt beam="2">  1        1 0.43509212E-02 0.12580135E+03</pdfrwt>
<pdfrwt beam="1">  1       -1 0.13379631E+00 0.12580135E+03</pdfrwt>
<totfact> 0.10040782E+03</totfact>
</mgrwt>
</event>
<event>
 7    1  0.5107591E-006  0.1266298E+03  0.7546771E-02  0.1247564E+00
          3   -1    0    0  501    0  0.00000000000E+00  0.00000000000E+00  0.35361139517E+02  0.35361139517E+02  0.00000000000E+00 0. -1.
         -3   -1    0    0    0  501 -0.00000000000E+00 -0.00000000000E+00 -0.48788012373E+03  0.48788012373E+03  0.00000000000E+00 0.  1.
         23    2    1    2    0    0  0.76309236392E+01 -0.18710956174E+02 -0.60387738037E+02  0.11117085313E+03  0.91126005095E+02 0.  0.
          5    1    1    2  502    0 -0.49510249958E+02 -0.32864234763E+02 -0.16860813771E+03  0.17883544638E+03  0.47000000000E+01 0. -1.
         -5    1    1    2    0  502  0.41879326319E+02  0.51575190937E+02 -0.22352310847E+03  0.23323496374E+03  0.47000000000E+01 0. -1.
        -11    1    3    3    0    0  0.43936175248E+02  0.12217697780E+02 -0.31204442882E+02  0.55257369554E+02  0.00000000000E+00 0. -1.
         11    1    3    3    0    0 -0.36305251609E+02 -0.30928653954E+02 -0.29183295154E+02  0.55913483578E+02  0.00000000000E+00 0.  1.
<mgrwt>
<rscale>  0 0.11733253E+03</rscale>
<asrwt>0</asrwt>
<pdfrwt beam="1">  1        3 0.54401755E-02 0.12662981E+03</pdfrwt>
<pdfrwt beam="2">  1       -3 0.75058479E-01 0.12662981E+03</pdfrwt>
<totfact> 0.78018024E+02</totfact>
</mgrwt>
</event>
<event>
 7    1  0.5107591E-006  0.2390353E+03  0.7546771E-02  0.1123469E+00
          2   -1    0    0  501    0  0.00000000000E+00  0.00000000000E+00  0.63382283662E+03  0.63382283662E+03  0.00000000000E+00 0. -1.
         -2   -1    0    0    0  501 -0.00000000000E+00 -0.00000000000E+00 -0.99313298328E+02  0.99313298328E+02  0.00000000000E+00 0.  1.
         23    2    1    2    0    0 -0.13998931533E+03 -0.14804144051E+03  0.40396971616E+03  0.46077877273E+03  0.87248319808E+02 0.  0.
          5    1    1    2  502    0  0.13084207980E+03  0.50670488544E+02  0.87321180684E+02  0.16533065914E+03  0.47000000000E+01 0. -1.
         -5    1    1    2    0  502  0.91472355393E+01  0.97370951963E+02  0.43218641450E+02  0.10702670308E+03  0.47000000000E+01 0. -1.
        -11    1    3    3    0    0 -0.66866595797E+02 -0.10699711789E+03  0.31077984275E+03  0.33541561611E+03  0.00000000000E+00 0.  1.
         11    1    3    3    0    0 -0.73122719537E+02 -0.41044322611E+02  0.93189873405E+02  0.12536315662E+03  0.00000000000E+00 0. -1.
<mgrwt>
<rscale>  0 0.23456326E+03</rscale>
<asrwt>0</asrwt>
<pdfrwt beam="1">  1        2 0.97511203E-01 0.23903533E+03</pdfrwt>
<pdfrwt beam="2">  1       -2 0.15278969E-01 0.23903533E+03</pdfrwt>
<totfact> 0.15672664E+03</totfact>
</mgrwt>
</event>
<event>
 7    1  0.5107591E-006  0.2146379E+03  0.7546771E-02  0.1140829E+00
         -2   -1    0    0    0  501 -0.00000000000E+00  0.00000000000E+00  0.43998683634E+02  0.43998683634E+02  0.00000000000E+00 0.  1.
          2   -1    0    0  501    0  0.00000000000E+00 -0.00000000000E+00 -0.98210277043E+03  0.98210277043E+03  0.00000000000E+00 0. -1.
         23    2    1    2    0    0 -0.88894199690E+02  0.15971607935E+03 -0.48669022766E+03  0.52625757138E+03  0.81659347238E+02 0.  0.
          5    1    1    2  502    0  0.62747420202E+02 -0.14805806814E+03 -0.44031276929E+03  0.46878124438E+03  0.47000000000E+01 0. -1.
         -5    1    1    2    0  502  0.26146779488E+02 -0.11658011213E+02 -0.11101089853E+02  0.31062638313E+02  0.47000000000E+01 0.  1.
        -11    1    3    3    0    0  0.15501136566E+02  0.24074384249E+02 -0.82148501726E+02  0.86995617980E+02  0.00000000000E+00 0. -1.
         11    1    3    3    0    0 -0.10439533626E+03  0.13564169510E+03 -0.40454172593E+03  0.43926195340E+03  0.00000000000E+00 0.  1.
<mgrwt>
<rscale>  0 0.21093339E+03</rscale>
<asrwt>0</asrwt>
<pdfrwt beam="2">  1        2 0.15109272E+00 0.21463792E+03</pdfrwt>
<pdfrwt beam="1">  1       -2 0.67690289E-02 0.21463792E+03</pdfrwt>
<totfact> 0.32869423E+03</totfact>
</mgrwt>
</event>
<event>
 7    1  0.5107591E-006  0.1708251E+03  0.7546771E-02  0.1182714E+00
          2   -1    0    0  501    0  0.00000000000E+00  0.00000000000E+00  0.47837520288E+03  0.47837520288E+03  0.00000000000E+00 0. -1.
         -2   -1    0    0    0  501 -0.00000000000E+00 -0.00000000000E+00 -0.63717731726E+02  0.63717731726E+02  0.00000000000E+00 0.  1.
         23    2    1    2    0    0 -0.86289341751E+02  0.78161855923E+02  0.30251175770E+03  0.33774552697E+03  0.94887044531E+02 0.  0.
          5    1    1    2  502    0  0.53518192630E+02 -0.62317425937E+01  0.11287215239E+03  0.12516087385E+03  0.47000000000E+01 0.  1.
         -5    1    1    2    0  502  0.32771149121E+02 -0.71930113329E+02 -0.72643894266E+00  0.79186533778E+02  0.47000000000E+01 0.  1.
        -11    1    3    3    0    0 -0.45454447327E+02  0.94460361529E+02  0.19094190735E+03  0.21782488073E+03  0.00000000000E+00 0.  1.
         11    1    3    3    0    0 -0.40834894424E+02 -0.16298505607E+02  0.11156985035E+03  0.11992064624E+03  0.00000000000E+00 0. -1.
<mgrwt>
<rscale>  0 0.16541614E+03</rscale>
<asrwt>0</asrwt>
<pdfrwt beam="1">  1        2 0.73596183E-01 0.17082506E+03</pdfrwt>
<pdfrwt beam="2">  1       -2 0.98027283E-02 0.17082506E+03</pdfrwt>
<totfact> 0.43783119E+03</totfact>
</mgrwt>
</event>
<event>
 7    1  0.5107591E-006  0.2328908E+03  0.7546771E-02  0.1124621E+00
          2   -1    0    0  501    0  0.00000000000E+00  0.00000000000E+00  0.76053803256E+02  0.76053803256E+02  0.00000000000E+00 0. -1.
         -2   -1    0    0    0  501 -0.00000000000E+00 -0.00000000000E+00 -0.17828862064E+03  0.17828862064E+03  0.00000000000E+00 0.  1.
         23    2    1    2    0    0 -0.14827305037E+02  0.31945317430E+02 -0.20772924518E+02  0.98539530267E+02  0.89655855090E+02 0.  0.
          5    1    1    2  502    0 -0.28949556966E+02  0.38535511182E+02 -0.19781238927E+02  0.52311087582E+02  0.47000000000E+01 0. -1.
         -5    1    1    2    0  502  0.43776862002E+02 -0.70480828611E+02 -0.61680653939E+02  0.10349180605E+03  0.47000000000E+01 0.  1.
        -11    1    3    3    0    0  0.98543573161E+00  0.50549884371E+02  0.17190509721E+02  0.53402017920E+02  0.00000000000E+00 0. -1.
         11    1    3    3    0    0 -0.15812740768E+02 -0.18604566941E+02 -0.37963434239E+02  0.45137512347E+02  0.00000000000E+00 0.  1.
<mgrwt>
<rscale>  0 0.23289077E+03</rscale>
<asrwt>0</asrwt>
<pdfrwt beam="1">  1        2 0.11700585E-01 0.23289077E+03</pdfrwt>
<pdfrwt beam="2">  1       -2 0.27429018E-01 0.23289077E+03</pdfrwt>
<totfact> 0.62363771E+03</totfact>
</mgrwt>
</event>
<event>
 7    1  0.5107591E-006  0.1859762E+03  0.7546771E-02  0.1164622E+00
          2   -1    0    0  501    0  0.00000000000E+00  0.00000000000E+00  0.68359543446E+03  0.68359543446E+03  0.00000000000E+00 0. -1.
         -2   -1    0    0    0  501 -0.00000000000E+00 -0.00000000000E+00 -0.48222373279E+02  0.48222373279E+02  0.00000000000E+00 0.  1.
         23    2    1    2    0    0  0.12504391355E+03 -0.57672722053E+02  0.34237599758E+03  0.38478116297E+03  0.10896373926E+03 0.  0.
          5    1    1    2  502    0  0.13432841038E+02  0.40888582348E+02  0.98976138479E+02  0.10803093711E+03  0.47000000000E+01 0. -1.
         -5    1    1    2    0  502 -0.13847675459E+03  0.16784139705E+02  0.19402092513E+03  0.23900570766E+03  0.47000000000E+01 0. -1.
        -11    1    3    3    0    0  0.54739755536E+02 -0.82364922625E+02  0.22465275953E+03  0.24545729502E+03  0.00000000000E+00 0. -1.
         11    1    3    3    0    0  0.70304158017E+02  0.24692200571E+02  0.11772323805E+03  0.13932386795E+03  0.00000000000E+00 0.  1.
<mgrwt>
<rscale>  0 0.18332595E+03</rscale>
<asrwt>0</asrwt>
<pdfrwt beam="1">  1        2 0.10516852E+00 0.18597622E+03</pdfrwt>
<pdfrwt beam="2">  1       -2 0.74188271E-02 0.18597622E+03</pdfrwt>
<totfact> 0.45188082E+03</totfact>
</mgrwt>
</event>
<event>
 7    1  0.5107591E-006  0.2849776E+03  0.7546771E-02  0.1094847E+00
          2   -1    0    0  501    0  0.00000000000E+00  0.00000000000E+00  0.45249332647E+03  0.45249332647E+03  0.00000000000E+00 0. -1.
         -2   -1    0    0    0  501 -0.00000000000E+00 -0.00000000000E+00 -0.25512779418E+03  0.25512779418E+03  0.00000000000E+00 0.  1.
         23    2    1    2    0    0  0.18404187363E+03  0.17808848804E+03  0.30010458898E+03  0.40468950820E+03  0.90132751540E+02 0.  0.
          5    1    1    2  502    0 -0.14888591348E+03 -0.60858001639E+02 -0.42444153684E+02  0.16641606827E+03  0.47000000000E+01 0.  1.
         -5    1    1    2    0  502 -0.35155960145E+02 -0.11723048640E+03 -0.60294903007E+02  0.13651554418E+03  0.47000000000E+01 0.  1.
        -11    1    3    3    0    0  0.71488930108E+01  0.53597182042E+02  0.46051058015E+02  0.71024393967E+02  0.00000000000E+00 0.  1.
         11    1    3    3    0    0  0.17689298062E+03  0.12449130600E+03  0.25405353097E+03  0.33366511423E+03  0.00000000000E+00 0. -1.
<mgrwt>
<rscale>  0 0.28154608E+03</rscale>
<asrwt>0</asrwt>
<pdfrwt beam="1">  1        2 0.69614358E-01 0.28497763E+03</pdfrwt>
<pdfrwt beam="2">  1       -2 0.39250430E-01 0.28497763E+03</pdfrwt>
<totfact> 0.43258284E+02</totfact>
</mgrwt>
</event>
<event>
 7    1  0.5107591E-006  0.1487096E+03  0.7546771E-02  0.1211919E+00
         -2   -1    0    0    0  501 -0.00000000000E+00  0.00000000000E+00  0.25732736727E+02  0.25732736727E+02  0.00000000000E+00 0.  1.
          2   -1    0    0  501    0  0.00000000000E+00 -0.00000000000E+00 -0.71396317104E+03  0.71396317104E+03  0.00000000000E+00 0. -1.
         23    2    1    2    0    0 -0.10582308789E+02 -0.79857676017E+02 -0.35312242324E+03  0.37307357654E+03  0.89438325357E+02 0.  0.
          5    1    1    2  502    0 -0.83474396269E+01  0.51490692726E+02 -0.32711482865E+03  0.33128110769E+03  0.47000000000E+01 0. -1.
         -5    1    1    2    0  502  0.18929748416E+02  0.28366983291E+02 -0.79931824260E+01  0.35341223542E+02  0.47000000000E+01 0. -1.
        -11    1    3    3    0    0  0.28456227275E+02 -0.66287819001E+02 -0.27933919210E+03  0.28850340736E+03  0.00000000000E+00 0. -1.
         11    1    3    3    0    0 -0.39038536064E+02 -0.13569857016E+02 -0.73783231140E+02  0.84570169178E+02  0.00000000000E+00 0.  1.
<mgrwt>
<rscale>  0 0.14105291E+03</rscale>
<asrwt>0</asrwt>
<pdfrwt beam="2">  1        2 0.10984047E+00 0.14870963E+03</pdfrwt>
<pdfrwt beam="1">  1       -2 0.39588832E-02 0.14870963E+03</pdfrwt>
<totfact> 0.10994470E+04</totfact>
</mgrwt>
</event>
<event>
 7    1  0.5107591E-006  0.1457093E+03  0.7546771E-02  0.1221002E+00
          1   -1    0    0  501    0  0.00000000000E+00  0.00000000000E+00  0.35661427670E+02  0.35661427670E+02  0.00000000000E+00 0. -1.
         -1   -1    0    0    0  501 -0.00000000000E+00 -0.00000000000E+00 -0.52717966887E+03  0.52717966887E+03  0.00000000000E+00 0.  1.
         23    2    1    2    0    0  0.38678924448E+02 -0.49915509903E+02 -0.10146293079E+03  0.14645863445E+03  0.84662789665E+02 0.  0.
          5    1    1    2  502    0  0.44036355173E+02  0.35051323872E+02 -0.21263917171E+03  0.22001205246E+03  0.47000000000E+01 0. -1.
         -5    1    1    2    0  502 -0.82715279621E+02  0.14864186031E+02 -0.17741613870E+03  0.19637040964E+03  0.47000000000E+01 0.  1.
        -11    1    3    3    0    0 -0.22590874158E+02 -0.32397363902E+02 -0.24255508939E+02  0.46349395863E+02  0.00000000000E+00 0.  1.
         11    1    3    3    0    0  0.61269798606E+02 -0.17518146001E+02 -0.77207421855E+02  0.10010923859E+03  0.00000000000E+00 0. -1.
<mgrwt>
<rscale>  0 0.13444702E+03</rscale>
<asrwt>0</asrwt>
<pdfrwt beam="1">  1        1 0.54863736E-02 0.14570933E+03</pdfrwt>
<pdfrwt beam="2">  1       -1 0.81104562E-01 0.14570933E+03</pdfrwt>
<totfact> 0.22550782E+03</totfact>
</mgrwt>
</event>
<event>
 7    1  0.5107591E-006  0.1439283E+03  0.7546771E-02  0.1219178E+00
          1   -1    0    0  501    0  0.00000000000E+00  0.00000000000E+00  0.27027759351E+03  0.27027759351E+03  0.00000000000E+00 0. -1.
         -1   -1    0    0    0  501 -0.00000000000E+00 -0.00000000000E+00 -0.61528835404E+02  0.61528835404E+02  0.00000000000E+00 0.  1.
         23    2    1    2    0    0  0.13281453618E+02  0.70099520718E+02  0.87240417802E+02  0.14344608350E+03  0.88744287472E+02 0.  0.
          5    1    1    2  502    0 -0.24627631693E+02  0.14136683866E+02 -0.11042529591E+02  0.30828453307E+02  0.47000000000E+01 0. -1.
         -5    1    1    2    0  502  0.11346178075E+02 -0.84236204585E+02  0.13255086990E+03  0.15753189211E+03  0.47000000000E+01 0. -1.
        -11    1    3    3    0    0 -0.17413537672E+02  0.29307275810E+02 -0.83318169000E+01  0.35093687217E+02  0.00000000000E+00 0.  1.
         11    1    3    3    0    0  0.30694991290E+02  0.40792244909E+02  0.95572234702E+02  0.10835239629E+03  0.00000000000E+00 0. -1.
<mgrwt>
<rscale>  0 0.13574062E+03</rscale>
<asrwt>0</asrwt>
<pdfrwt beam="1">  1        1 0.41581168E-01 0.14392826E+03</pdfrwt>
<pdfrwt beam="2">  1       -1 0.94659748E-02 0.14392826E+03</pdfrwt>
<totfact> 0.63551488E+03</totfact>
</mgrwt>
</event>
<event>
 7    1  0.5107591E-006  0.1413454E+03  0.7546771E-02  0.1222569E+00
          3   -1    0    0  501    0  0.00000000000E+00  0.00000000000E+00  0.20292560756E+03  0.20292560756E+03  0.00000000000E+00 0. -1.
         -3   -1    0    0    0  501 -0.00000000000E+00 -0.00000000000E+00 -0.79905069798E+02  0.79905069798E+02  0.00000000000E+00 0.  1.
         23    2    1    2    0    0  0.31215125204E+02  0.58262150870E+02  0.39980833099E+02  0.11889744525E+03  0.90384031810E+02 0.  0.
          5    1    1    2  502    0  0.23632607398E+02 -0.80724290637E+01  0.85703492141E+02  0.89391514187E+02  0.47000000000E+01 0.  1.
         -5    1    1    2    0  502 -0.54847732602E+02 -0.50189721806E+02 -0.26637874805E+01  0.74541717918E+02  0.47000000000E+01 0.  1.
        -11    1    3    3    0    0  0.27820539230E+02  0.75055534337E+02  0.53067272234E+01  0.80221424766E+02  0.00000000000E+00 0.  1.
         11    1    3    3    0    0  0.33945859742E+01 -0.16793383467E+02  0.34674105876E+02  0.38676020484E+02  0.00000000000E+00 0. -1.
<mgrwt>
<rscale>  0 0.13334916E+03</rscale>
<asrwt>0</asrwt>
<pdfrwt beam="1">  1        3 0.31219324E-01 0.14134536E+03</pdfrwt>
<pdfrwt beam="2">  1       -3 0.12293088E-01 0.14134536E+03</pdfrwt>
<totfact> 0.12046347E+03</totfact>
</mgrwt>
</event>
<event>
 7    1  0.5107591E-006  0.2256868E+03  0.7546771E-02  0.1133197E+00
          1   -1    0    0  501    0  0.00000000000E+00  0.00000000000E+00  0.38708212296E+03  0.38708212296E+03  0.00000000000E+00 0. -1.
         -1   -1    0    0    0  501 -0.00000000000E+00 -0.00000000000E+00 -0.15450026688E+03  0.15450026688E+03  0.00000000000E+00 0.  1.
         23    2    1    2    0    0  0.57504477693E+02 -0.17889369445E+03  0.23833005913E+03  0.31582244591E+03  0.87366363040E+02 0.  0.
          5    1    1    2  502    0 -0.25718762184E+02  0.13856312425E+03  0.50196166541E+02  0.14967611455E+03  0.47000000000E+01 0.  1.
         -5    1    1    2    0  502 -0.31785715509E+02  0.40330570200E+02 -0.55944369595E+02  0.76083829376E+02  0.47000000000E+01 0.  1.
        -11    1    3    3    0    0  0.16916777801E+02 -0.87537685869E+02  0.17795114848E+03  0.19903676812E+03  0.00000000000E+00 0. -1.
         11    1    3    3    0    0  0.40587699892E+02 -0.91356008583E+02  0.60378910643E+02  0.11678567779E+03  0.00000000000E+00 0.  1.
<mgrwt>
<rscale>  0 0.22092283E+03</rscale>
<asrwt>0</asrwt>
<pdfrwt beam="1">  1        1 0.59551095E-01 0.22568675E+03</pdfrwt>
<pdfrwt beam="2">  1       -1 0.23769272E-01 0.22568675E+03</pdfrwt>
<totfact> 0.95870862E+02</totfact>
</mgrwt>
</event>
<event>
 7    1  0.5107591E-006  0.1527673E+03  0.7546771E-02  0.1205768E+00
          1   -1    0    0  501    0  0.00000000000E+00  0.00000000000E+00  0.57661944734E+03  0.57661944734E+03  0.00000000000E+00 0. -1.
         -1   -1    0    0    0  501 -0.00000000000E+00 -0.00000000000E+00 -0.34395767637E+02  0.34395767637E+02  0.00000000000E+00 0.  1.
         23    2    1    2    0    0  0.66402745831E+02 -0.57505305737E+02  0.20782238748E+03  0.24337126851E+03  0.91231818779E+02 0.  0.
          5    1    1    2  502    0 -0.63449264699E+02  0.17700269782E+02  0.31707296694E+03  0.32387723771E+03  0.47000000000E+01 0. -1.
         -5    1    1    2    0  502 -0.29534811324E+01  0.39805035955E+02  0.17328325281E+02  0.43766708755E+02  0.47000000000E+01 0. -1.
        -11    1    3    3    0    0  0.66303412007E+02 -0.12472447847E+01  0.81379708927E+02  0.10497787904E+03  0.00000000000E+00 0.  1.
         11    1    3    3    0    0  0.99333824475E-01 -0.56258060952E+02  0.12644267855E+03  0.13839338947E+03  0.00000000000E+00 0. -1.
<mgrwt>
<rscale>  0 0.14577109E+03</rscale>
<asrwt>0</asrwt>
<pdfrwt beam="1">  1        1 0.88710677E-01 0.15276730E+03</pdfrwt>
<pdfrwt beam="2">  1       -1 0.52916570E-02 0.15276730E+03</pdfrwt>
<totfact> 0.58252163E+03</totfact>
</mgrwt>
</event>
<event>
 7    1  0.5107591E-006  0.1333598E+03  0.7546771E-02  0.1235349E+00
          2   -1    0    0  501    0  0.00000000000E+00  0.00000000000E+00  0.39952185007E+03  0.39952185007E+03  0.00000000000E+00 0. -1.
         -2   -1    0    0    0  501 -0.00000000000E+00 -0.00000000000E+00 -0.65630616181E+02  0.65630616181E+02  0.00000000000E+00 0.  1.
         23    2    1    2    0    0  0.59557515900E+01 -0.46065643620E+02  0.31407241182E+03  0.33032802648E+03  0.91200935930E+02 0.  0.
          5    1    1    2  502    0  0.60304816241E+01  0.76926277347E+01  0.69727612108E+02  0.70566090442E+02  0.47000000000E+01 0.  1.
         -5    1    1    2    0  502 -0.11986233214E+02  0.38373015885E+02 -0.49908790040E+02  0.64258349325E+02  0.47000000000E+01 0.  1.
        -11    1    3    3    0    0 -0.36319207903E+02 -0.44894613827E+02  0.21471207965E+03  0.22234182773E+03  0.00000000000E+00 0. -1.
         11    1    3    3    0    0  0.42274959493E+02 -0.11710297930E+01  0.99360332175E+02  0.10798619875E+03  0.00000000000E+00 0.  1.
<mgrwt>
<rscale>  0 0.12482129E+03</rscale>
<asrwt>0</asrwt>
<pdfrwt beam="1">  1        2 0.61464899E-01 0.13335983E+03</pdfrwt>
<pdfrwt beam="2">  1       -2 0.10097018E-01 0.13335983E+03</pdfrwt>
<totfact> 0.50174525E+03</totfact>
</mgrwt>
</event>
<event>
 6    1  0.5107591E-006  0.1409247E+03  0.7546771E-02  0.1239865E+00
          1   -1    0    0  501    0  0.00000000000E+00  0.00000000000E+00  0.18543759170E+03  0.18543759170E+03  0.00000000000E+00 0. -1.
         -1   -1    0    0    0  501 -0.00000000000E+00 -0.00000000000E+00 -0.66282871699E+02  0.66282871699E+02  0.00000000000E+00 0.  1.
          5    1    1    2  502    0  0.89061050596E+02 -0.10048741944E+02  0.37166634007E+02  0.97140602383E+02  0.47000000000E+01 0.  1.
         -5    1    1    2    0  502 -0.36019615576E+02 -0.27714463317E+02  0.53844916033E+02  0.70617768061E+02  0.47000000000E+01 0.  1.
        -11    1    1    2    0    0 -0.12190763821E+02  0.85969388629E+01  0.30245410303E+02  0.33723981449E+02  0.00000000000E+00 0. -1.
         11    1    1    2    0    0 -0.40850671199E+02  0.29166266398E+02 -0.21022403443E+01  0.50238111504E+02  0.00000000000E+00 0.  1.
<mgrwt>
<rscale>  0 0.12198074E+03</rscale>
<asrwt>0</asrwt>
<pdfrwt beam="1">  1        1 0.28528860E-01 0.14092469E+03</pdfrwt>
<pdfrwt beam="2">  1       -1 0.10197365E-01 0.14092469E+03</pdfrwt>
<totfact> 0.90415523E+03</totfact>
</mgrwt>
</event>
<event>
 7    1  0.5107591E-006  0.2551764E+03  0.7546771E-02  0.1112603E+00
         -2   -1    0    0    0  501 -0.00000000000E+00  0.00000000000E+00  0.51505885254E+03  0.51505885254E+03  0.00000000000E+00 0.  1.
          2   -1    0    0  501    0  0.00000000000E+00 -0.00000000000E+00 -0.11899366633E+03  0.11899366633E+03  0.00000000000E+00 0. -1.
         23    2    1    2    0    0 -0.10988251959E+03  0.19344507241E+03  0.17548991022E+03  0.29675675903E+03  0.88162924677E+02 0.  0.
          5    1    1    2  502    0  0.18668640704E+02 -0.13953244553E+01  0.80179531735E+02  0.82470069633E+02  0.47000000000E+01 0. -1.
         -5    1    1    2    0  502  0.91213878885E+02 -0.19204974795E+03  0.14039574425E+03  0.25482569021E+03  0.47000000000E+01 0. -1.
        -11    1    3    3    0    0 -0.10221376137E+03  0.96195737725E+02  0.11908780510E+03  0.18407383924E+03  0.00000000000E+00 0.  1.
         11    1    3    3    0    0 -0.76687582182E+01  0.97249334682E+02  0.56402105128E+02  0.11268291979E+03  0.00000000000E+00 0. -1.
<mgrwt>
<rscale>  0 0.25111301E+03</rscale>
<asrwt>0</asrwt>
<pdfrwt beam="2">  1        2 0.18306718E-01 0.25517636E+03</pdfrwt>
<pdfrwt beam="1">  1       -2 0.79239822E-01 0.25517636E+03</pdfrwt>
<totfact> 0.44855531E+02</totfact>
</mgrwt>
</event>
<event>
 7    1  0.5107591E-006  0.1430376E+03  0.7546771E-02  0.1219545E+00
          1   -1    0    0  501    0  0.00000000000E+00  0.00000000000E+00  0.86565317397E+03  0.86565317397E+03  0.00000000000E+00 0. -1.
         -1   -1    0    0    0  501 -0.00000000000E+00 -0.00000000000E+00 -0.20813426627E+02  0.20813426627E+02  0.00000000000E+00 0.  1.
         23    2    1    2    0    0  0.68715645614E+02  0.10760228199E+02  0.50111942181E+03  0.51417181381E+03  0.91729802892E+02 0.  0.
          5    1    1    2  502    0 -0.28189766830E+02 -0.12617963919E+02  0.32646989933E+03  0.32796121895E+03  0.47000000000E+01 0.  1.
         -5    1    1    2    0  502 -0.40525878784E+02  0.18577357202E+01  0.17250426210E+02  0.44333567842E+02  0.47000000000E+01 0.  1.
        -11    1    3    3    0    0 -0.22688158829E+02  0.64035209779E+01  0.10787320447E+03  0.11041913726E+03  0.00000000000E+00 0.  1.
         11    1    3    3    0    0  0.91403804442E+02  0.43567072207E+01  0.39324621734E+03  0.40375267655E+03  0.00000000000E+00 0. -1.
<mgrwt>
<rscale>  0 0.13547922E+03</rscale>
<asrwt>0</asrwt>
<pdfrwt beam="1">  1        1 0.13317738E+00 0.14303757E+03</pdfrwt>
<pdfrwt beam="2">  1       -1 0.32020663E-02 0.14303757E+03</pdfrwt>
<totfact> 0.67639034E+03</totfact>
</mgrwt>
</event>
<event>
 7    1  0.5107591E-006  0.1511887E+03  0.7546771E-02  0.1208134E+00
          4   -1    0    0  501    0  0.00000000000E+00  0.00000000000E+00  0.31065853339E+02  0.31065853339E+02  0.00000000000E+00 0. -1.
         -4   -1    0    0    0  501 -0.00000000000E+00 -0.00000000000E+00 -0.61214260868E+03  0.61214260868E+03  0.00000000000E+00 0.  1.
         23    2    1    2    0    0  0.71827554534E+02  0.45537571380E+02 -0.24430531872E+03  0.27405668177E+03  0.90493690773E+02 0.  0.
          5    1    1    2  502    0 -0.18258453667E+02 -0.20955523050E+02 -0.99173620633E+00  0.28206003214E+02  0.47000000000E+01 0. -1.
         -5    1    1    2    0  502 -0.53569100867E+02 -0.24582048330E+02 -0.33577970042E+03  0.34094577704E+03  0.47000000000E+01 0. -1.
        -11    1    3    3    0    0  0.47964602889E+02 -0.19812742327E+02 -0.76921352524E+02  0.92790313950E+02  0.00000000000E+00 0.  1.
         11    1    3    3    0    0  0.23862951645E+02  0.65350313706E+02 -0.16738396620E+03  0.18126636782E+03  0.00000000000E+00 0. -1.
<mgrwt>
<rscale>  0 0.14393191E+03</rscale>
<asrwt>0</asrwt>
<pdfrwt beam="1">  1        4 0.47793623E-02 0.15118874E+03</pdfrwt>
<pdfrwt beam="2">  1       -4 0.94175780E-01 0.15118874E+03</pdfrwt>
<totfact> 0.42847637E+02</totfact>
</mgrwt>
</event>
<event>
 7    1  0.5107591E-006  0.3288942E+03  0.7546771E-02  0.1072930E+00
          1   -1    0    0  501    0  0.00000000000E+00  0.00000000000E+00  0.59222777935E+03  0.59222777935E+03  0.00000000000E+00 0. -1.
         -1   -1    0    0    0  501 -0.00000000000E+00 -0.00000000000E+00 -0.19781668875E+03  0.19781668875E+03  0.00000000000E+00 0.  1.
         23    2    1    2    0    0 -0.26043629064E+03  0.15722956736E+03  0.32427919099E+03  0.45375604343E+03  0.90495054577E+02 0.  0.
          5    1    1    2  502    0  0.50713887606E+02 -0.95707995485E+02  0.40244993680E+02  0.11564457753E+03  0.47000000000E+01 0. -1.
         -5    1    1    2    0  502  0.20972240303E+03 -0.61521571874E+02  0.29886905924E+02  0.22064384715E+03  0.47000000000E+01 0. -1.
        -11    1    3    3    0    0 -0.30807397094E+02  0.10265027472E+02  0.33301133343E+01  0.32642857711E+02  0.00000000000E+00 0.  1.
         11    1    3    3    0    0 -0.22962889354E+03  0.14696453989E+03  0.32094907766E+03  0.42111318572E+03  0.00000000000E+00 0. -1.
<mgrwt>
<rscale>  0 0.32598013E+03</rscale>
<asrwt>0</asrwt>
<pdfrwt beam="1">  1        1 0.91111965E-01 0.32889424E+03</pdfrwt>
<pdfrwt beam="2">  1       -1 0.30433337E-01 0.32889424E+03</pdfrwt>
<totfact> 0.35806138E+02</totfact>
</mgrwt>
</event>
<event>
 7    1  0.5107591E-006  0.1271864E+03  0.7546771E-02  0.1246238E+00
         -3   -1    0    0    0  501 -0.00000000000E+00  0.00000000000E+00  0.29618055644E+03  0.29618055644E+03  0.00000000000E+00 0.  1.
          3   -1    0    0  501    0  0.00000000000E+00 -0.00000000000E+00 -0.51164941699E+02  0.51164941699E+02  0.00000000000E+00 0. -1.
         23    2    1    2    0    0 -0.79372582221E+01 -0.22092578767E+02  0.33167753635E+02  0.10025057339E+03  0.91646033626E+02 0.  0.
          5    1    1    2  502    0  0.11090946454E+02 -0.44404128984E+02  0.14703408284E+03  0.15406442575E+03  0.47000000000E+01 0.  1.
         -5    1    1    2    0  502 -0.31536882316E+01  0.66496707750E+02  0.64813778263E+02  0.93030498998E+02  0.47000000000E+01 0.  1.
        -11    1    3    3    0    0  0.51401910286E+01 -0.28837529819E+02 -0.26069719270E+02  0.39212943688E+02  0.00000000000E+00 0. -1.
         11    1    3    3    0    0 -0.13077449251E+02  0.67449510521E+01  0.59237472905E+02  0.61037629703E+02  0.00000000000E+00 0.  1.
<mgrwt>
<rscale>  0 0.11811605E+03</rscale>
<asrwt>0</asrwt>
<pdfrwt beam="2">  1        3 0.78715297E-02 0.12718642E+03</pdfrwt>
<pdfrwt beam="1">  1       -3 0.45566238E-01 0.12718642E+03</pdfrwt>
<totfact> 0.12001675E+03</totfact>
</mgrwt>
</event>
<event>
 7    1  0.5107591E-006  0.1339887E+03  0.7546771E-02  0.1239025E+00
          1   -1    0    0  501    0  0.00000000000E+00  0.00000000000E+00  0.40846592923E+03  0.40846592923E+03  0.00000000000E+00 0. -1.
         -1   -1    0    0    0  501 -0.00000000000E+00 -0.00000000000E+00 -0.40202804586E+02  0.40202804586E+02  0.00000000000E+00 0.  1.
         23    2    1    2    0    0  0.46296976279E+02  0.13536132065E+02  0.26021043414E+03  0.27653980596E+03  0.80238129088E+02 0.  0.
          5    1    1    2  502    0  0.39565679125E+02 -0.13013111419E+02  0.12853572047E+02  0.43841628024E+02  0.47000000000E+01 0.  1.
         -5    1    1    2    0  502 -0.85862655404E+02 -0.52302064586E+00  0.95199118454E+02  0.12828729983E+03  0.47000000000E+01 0.  1.
        -11    1    3    3    0    0 -0.16997381354E+01  0.37942351309E+02  0.13503249387E+03  0.14027218375E+03  0.00000000000E+00 0. -1.
         11    1    3    3    0    0  0.47996714414E+02 -0.24406219244E+02  0.12517794027E+03  0.13626762221E+03  0.00000000000E+00 0.  1.
<mgrwt>
<rscale>  0 0.12250222E+03</rscale>
<asrwt>0</asrwt>
<pdfrwt beam="1">  1        1 0.62840909E-01 0.13398875E+03</pdfrwt>
<pdfrwt beam="2">  1       -1 0.61850471E-02 0.13398875E+03</pdfrwt>
<totfact> 0.71801145E+03</totfact>
</mgrwt>
</event>
<event>
 7    1  0.5107591E-006  0.1375949E+03  0.7546771E-02  0.1226589E+00
         -1   -1    0    0    0  501 -0.00000000000E+00  0.00000000000E+00  0.96888724396E+03  0.96888724396E+03  0.00000000000E+00 0.  1.
          1   -1    0    0  501    0  0.00000000000E+00 -0.00000000000E+00 -0.25225414694E+02  0.25225414694E+02  0.00000000000E+00 0. -1.
         23    2    1    2    0    0  0.57390890616E+02 -0.40862728457E+01  0.14148173325E+03  0.18021753626E+03  0.95660167165E+02 0.  0.
          5    1    1    2  502    0 -0.22877242577E+02 -0.51313239325E+02  0.56650149504E+03  0.56929996543E+03  0.47000000000E+01 0.  1.
         -5    1    1    2    0  502 -0.34513648039E+02  0.55399512171E+02  0.23567860098E+03  0.24459515697E+03  0.47000000000E+01 0.  1.
        -11    1    3    3    0    0  0.95909210762E+01 -0.22405563540E+02  0.12362154948E+03  0.12600112119E+03  0.00000000000E+00 0.  1.
         11    1    3    3    0    0  0.47799969540E+02  0.18319290695E+02  0.17860183772E+02  0.54216415078E+02  0.00000000000E+00 0. -1.
<mgrwt>
<rscale>  0 0.13058616E+03</rscale>
<asrwt>0</asrwt>
<pdfrwt beam="2">  1        1 0.38808338E-02 0.13759493E+03</pdfrwt>
<pdfrwt beam="1">  1       -1 0.14905955E+00 0.13759493E+03</pdfrwt>
<totfact> 0.89763706E+02</totfact>
</mgrwt>
</event>
<event>
 7    1  0.5107591E-006  0.1281158E+03  0.7546771E-02  0.1243831E+00
          1   -1    0    0  501    0  0.00000000000E+00  0.00000000000E+00  0.26152945062E+02  0.26152945062E+02  0.00000000000E+00 0. -1.
         -1   -1    0    0    0  501 -0.00000000000E+00 -0.00000000000E+00 -0.50885576331E+03  0.50885576331E+03  0.00000000000E+00 0.  1.
         23    2    1    2    0    0  0.25981061778E+00 -0.28097109292E+02 -0.15247345336E+03  0.18079820651E+03  0.93007109645E+02 0.  0.
          5    1    1    2  502    0 -0.82311462639E+01 -0.39015874575E+02 -0.22840834986E+03  0.23191044505E+03  0.47000000000E+01 0.  1.
         -5    1    1    2    0  502  0.79713356462E+01  0.67112983868E+02 -0.10182101503E+03  0.12230005682E+03  0.47000000000E+01 0.  1.
        -11    1    3    3    0    0 -0.15054072281E+02 -0.59509096165E+02 -0.10814390435E+03  0.12435055958E+03  0.00000000000E+00 0. -1.
         11    1    3    3    0    0  0.15313882899E+02  0.31411986872E+02 -0.44329549007E+02  0.56447646929E+02  0.00000000000E+00 0.  1.
<mgrwt>
<rscale>  0 0.11955630E+03</rscale>
<asrwt>0</asrwt>
<pdfrwt beam="1">  1        1 0.40235303E-02 0.12811575E+03</pdfrwt>
<pdfrwt beam="2">  1       -1 0.78285496E-01 0.12811575E+03</pdfrwt>
<totfact> 0.36807675E+03</totfact>
</mgrwt>
</event>
<event>
 7    1  0.5107591E-006  0.1307560E+03  0.7546771E-02  0.1237604E+00
          2   -1    0    0  501    0  0.00000000000E+00  0.00000000000E+00  0.28543587161E+03  0.28543587161E+03  0.00000000000E+00 0.  1.
         -2   -1    0    0    0  501 -0.00000000000E+00 -0.00000000000E+00 -0.50466103442E+02  0.50466103442E+02  0.00000000000E+00 0. -1.
         23    2    1    2    0    0 -0.30409558385E+02 -0.23463875717E+02  0.14034602602E+03  0.17449939903E+03  0.96321018144E+02 0.  0.
          5    1    1    2  502    0  0.44511916603E+02  0.67354752864E+02  0.77470541496E+02  0.11198994711E+03  0.47000000000E+01 0. -1.
         -5    1    1    2    0  502 -0.14102358218E+02 -0.43890877146E+02  0.17153200648E+02  0.49412628917E+02  0.47000000000E+01 0. -1.
        -11    1    3    3    0    0 -0.43943724689E+02  0.26844068252E+02  0.73708617258E+02  0.89914488254E+02  0.00000000000E+00 0.  1.
         11    1    3    3    0    0  0.13534166304E+02 -0.50307943969E+02  0.66637408763E+02  0.84584910774E+02  0.00000000000E+00 0. -1.
<mgrwt>
<rscale>  0 0.12339219E+03</rscale>
<asrwt>0</asrwt>
<pdfrwt beam="1">  1        2 0.43913210E-01 0.13075603E+03</pdfrwt>
<pdfrwt beam="2">  1       -2 0.77640161E-02 0.13075603E+03</pdfrwt>
<totfact> 0.10772350E+04</totfact>
</mgrwt>
</event>
<event>
 7    1  0.5107591E-006  0.1881449E+03  0.7546771E-02  0.1165163E+00
          1   -1    0    0  501    0  0.00000000000E+00  0.00000000000E+00  0.26317010890E+03  0.26317010890E+03  0.00000000000E+00 0. -1.
         -1   -1    0    0    0  501 -0.00000000000E+00 -0.00000000000E+00 -0.12068747844E+03  0.12068747844E+03  0.00000000000E+00 0.  1.
         23    2    1    2    0    0 -0.10799962342E+03  0.90069878472E+02  0.79905824707E+02  0.18557909963E+03  0.90984392785E+02 0.  0.
          5    1    1    2  502    0  0.93555935009E+02 -0.11305293204E+03  0.20870172328E+02  0.14829474877E+03  0.47000000000E+01 0.  1.
         -5    1    1    2    0  502  0.14443688413E+02  0.22983053572E+02  0.41706633428E+02  0.49983738939E+02  0.47000000000E+01 0.  1.
        -11    1    3    3    0    0 -0.45138506816E+01  0.50861068573E+02  0.36612276263E+01  0.51192067081E+02  0.00000000000E+00 0. -1.
         11    1    3    3    0    0 -0.10348577274E+03  0.39208809899E+02  0.76244597081E+02  0.13438703255E+03  0.00000000000E+00 0.  1.
<mgrwt>
<rscale>  0 0.18275529E+03</rscale>
<asrwt>0</asrwt>
<pdfrwt beam="1">  1        1 0.40487709E-01 0.18814490E+03</pdfrwt>
<pdfrwt beam="2">  1       -1 0.18567304E-01 0.18814490E+03</pdfrwt>
<totfact> 0.23225995E+03</totfact>
</mgrwt>
</event>
<event>
 7    1  0.5107591E-006  0.1499837E+03  0.7546771E-02  0.1209646E+00
         -1   -1    0    0    0  501 -0.00000000000E+00  0.00000000000E+00  0.29702742796E+03  0.29702742796E+03  0.00000000000E+00 0.  1.
          1   -1    0    0  501    0  0.00000000000E+00 -0.00000000000E+00 -0.91238596005E+02  0.91238596005E+02  0.00000000000E+00 0. -1.
         23    2    1    2    0    0 -0.16035512894E+02 -0.81324568476E+02 -0.12098598122E+02  0.12374754118E+03  0.91083778796E+02 0.  0.
          5    1    1    2  502    0 -0.25573836982E+02  0.94009841492E+02  0.10433202789E+03  0.14282553511E+03  0.47000000000E+01 0.  1.
         -5    1    1    2    0  502  0.41609349876E+02 -0.12685273016E+02  0.11355540219E+03  0.12169294768E+03  0.47000000000E+01 0.  1.
        -11    1    3    3    0    0  0.98534552657E+01 -0.39587942067E+02 -0.47938221737E+02  0.62947349754E+02  0.00000000000E+00 0. -1.
         11    1    3    3    0    0 -0.25888968160E+02 -0.41736626409E+02  0.35839623616E+02  0.60800191425E+02  0.00000000000E+00 0.  1.
<mgrwt>
<rscale>  0 0.14277287E+03</rscale>
<asrwt>0</asrwt>
<pdfrwt beam="2">  1        1 0.14036707E-01 0.14998365E+03</pdfrwt>
<pdfrwt beam="1">  1       -1 0.45696527E-01 0.14998365E+03</pdfrwt>
<totfact> 0.19303973E+03</totfact>
</mgrwt>
</event>
<event>
 7    1  0.5107591E-006  0.1425625E+03  0.7546771E-02  0.1220836E+00
          2   -1    0    0  501    0  0.00000000000E+00  0.00000000000E+00  0.12337458740E+03  0.12337458740E+03  0.00000000000E+00 0.  1.
         -2   -1    0    0    0  501 -0.00000000000E+00 -0.00000000000E+00 -0.14277633624E+03  0.14277633624E+03  0.00000000000E+00 0. -1.
         23    2    1    2    0    0  0.52074727560E+02  0.44600004084E+02  0.26790903944E+02  0.11629159638E+03  0.90028024748E+02 0.  0.
          5    1    1    2  502    0 -0.20688063492E+02 -0.13005381435E+02  0.43212771028E+02  0.49865514108E+02  0.47000000000E+01 0. -1.
         -5    1    1    2    0  502 -0.31386664068E+02 -0.31594622649E+02 -0.89405423809E+02  0.99993813149E+02  0.47000000000E+01 0. -1.
        -11    1    3    3    0    0  0.34754500461E+02  0.49423037585E+02  0.55746510370E+02  0.82208183077E+02  0.00000000000E+00 0.  1.
         11    1    3    3    0    0  0.17320227099E+02 -0.48230335007E+01 -0.28955606427E+02  0.34083413304E+02  0.00000000000E+00 0. -1.
<mgrwt>
<rscale>  0 0.13456450E+03</rscale>
<asrwt>0</asrwt>
<pdfrwt beam="1">  1        2 0.18980706E-01 0.14256247E+03</pdfrwt>
<pdfrwt beam="2">  1       -2 0.21965590E-01 0.14256247E+03</pdfrwt>
<totfact> 0.50412564E+03</totfact>
</mgrwt>
</event>
<event>
 7    1  0.5107591E-006  0.2139718E+03  0.7546771E-02  0.1142762E+00
         -1   -1    0    0    0  501 -0.00000000000E+00  0.00000000000E+00  0.59623178172E+03  0.59623178172E+03  0.00000000000E+00 0.  1.
          1   -1    0    0  501    0  0.00000000000E+00 -0.00000000000E+00 -0.74616937019E+02  0.74616937019E+02  0.00000000000E+00 0. -1.
         23    2    1    2    0    0 -0.17351338046E+03 -0.72748006174E+01  0.15976910470E+03  0.25047239980E+03  0.83966900156E+02 0.  0.
          5    1    1    2  502    0  0.91800660324E+01  0.20998229319E+02  0.77979690316E+00  0.23407206798E+02  0.47000000000E+01 0.  1.
         -5    1    1    2    0  502  0.16433331443E+03 -0.13723428701E+02  0.36106594310E+03  0.39696911214E+03  0.47000000000E+01 0.  1.
        -11    1    3    3    0    0 -0.92685889014E+02 -0.44567294578E+02  0.72628886311E+02  0.12590422112E+03  0.00000000000E+00 0.  1.
         11    1    3    3    0    0 -0.80827491451E+02  0.37292493961E+02  0.87140218391E+02  0.12456817869E+03  0.00000000000E+00 0. -1.
<mgrwt>
<rscale>  0 0.20849717E+03</rscale>
<asrwt>0</asrwt>
<pdfrwt beam="2">  1        1 0.11479529E-01 0.21397175E+03</pdfrwt>
<pdfrwt beam="1">  1       -1 0.91727963E-01 0.21397175E+03</pdfrwt>
<totfact> 0.64867985E+02</totfact>
</mgrwt>
</event>
<event>
 7    1  0.5107591E-006  0.3953002E+03  0.7546771E-02  0.1094592E+00
         -1   -1    0    0    0  501 -0.00000000000E+00  0.00000000000E+00  0.25461841472E+03  0.25461841472E+03  0.00000000000E+00 0.  1.
          1   -1    0    0  501    0  0.00000000000E+00 -0.00000000000E+00 -0.26319223004E+03  0.26319223004E+03  0.00000000000E+00 0. -1.
         23    2    1    2    0    0 -0.23691730386E+02 -0.30386954777E+02 -0.60768409848E+02  0.11907948310E+03  0.94881286623E+02 0.  0.
          5    1    1    2  502    0  0.13719141379E+03 -0.13511062023E+03  0.57509890783E+01  0.19269542701E+03  0.47000000000E+01 0. -1.
         -5    1    1    2    0  502 -0.11349968341E+03  0.16549757500E+03  0.46443605448E+02  0.20603573465E+03  0.47000000000E+01 0.  1.
        -11    1    3    3    0    0  0.13314161648E+02 -0.42387183513E+02  0.28377058518E+01  0.44519577728E+02  0.00000000000E+00 0. -1.
         11    1    3    3    0    0 -0.37005892034E+02  0.12000228737E+02 -0.63606115700E+02  0.74559905374E+02  0.00000000000E+00 0.  1.
<mgrwt>
<rscale>  0 0.28201833E+03</rscale>
<asrwt>0</asrwt>
<pdfrwt beam="2">  1        1 0.40491112E-01 0.39530022E+03</pdfrwt>
<pdfrwt beam="1">  1       -1 0.39172064E-01 0.39530022E+03</pdfrwt>
<totfact> 0.66448074E+02</totfact>
</mgrwt>
</event>
<event>
 7    1  0.5107591E-006  0.1720328E+03  0.7546771E-02  0.1182403E+00
         -1   -1    0    0    0  501 -0.00000000000E+00  0.00000000000E+00  0.60937645451E+03  0.60937645451E+03  0.00000000000E+00 0.  1.
          1   -1    0    0  501    0  0.00000000000E+00 -0.00000000000E+00 -0.43447796265E+02  0.43447796265E+02  0.00000000000E+00 0. -1.
         23    2    1    2    0    0  0.25297150045E+02 -0.11546570716E+03  0.20389072144E+03  0.25199165700E+03  0.89196937047E+02 0.  0.
          5    1    1    2  502    0 -0.43627165371E+02  0.13561465616E+03  0.27877005033E+03  0.31309662324E+03  0.47000000000E+01 0.  1.
         -5    1    1    2    0  502  0.18330015327E+02 -0.20148949003E+02  0.83267886475E+02  0.87735970535E+02  0.47000000000E+01 0.  1.
        -11    1    3    3    0    0 -0.18350156812E+02  0.32262137434E+01  0.46467585764E+02  0.50063691802E+02  0.00000000000E+00 0.  1.
         11    1    3    3    0    0  0.43647306856E+02 -0.11869192090E+03  0.15742313567E+03  0.20192796520E+03  0.00000000000E+00 0. -1.
<mgrwt>
<rscale>  0 0.16570451E+03</rscale>
<asrwt>0</asrwt>
<pdfrwt beam="2">  1        1 0.66842768E-02 0.17203285E+03</pdfrwt>
<pdfrwt beam="1">  1       -1 0.93750218E-01 0.17203285E+03</pdfrwt>
<totfact> 0.12773449E+03</totfact>
</mgrwt>
</event>
<event>
 7    1  0.5107591E-006  0.2282779E+03  0.7546771E-02  0.1127858E+00
         -2   -1    0    0    0  501 -0.00000000000E+00  0.00000000000E+00  0.39738161122E+02  0.39738161122E+02  0.00000000000E+00 0.  1.
          2   -1    0    0  501    0  0.00000000000E+00 -0.00000000000E+00 -0.32783860369E+03  0.32783860369E+03  0.00000000000E+00 0. -1.
         23    2    1    2    0    0 -0.86177929670E+01  0.32231825402E+02 -0.15177522017E+03  0.17964685526E+03  0.90133890529E+02 0.  0.
          5    1    1    2  502    0 -0.33816583073E+02  0.34111944838E+02 -0.69061116778E+02  0.84253865917E+02  0.47000000000E+01 0. -1.
         -5    1    1    2    0  502  0.42434376040E+02 -0.66343770239E+02 -0.67264105615E+02  0.10367604363E+03  0.47000000000E+01 0. -1.
        -11    1    3    3    0    0  0.20795871727E+02  0.32482476072E+02 -0.17796192048E+02  0.42476864104E+02  0.00000000000E+00 0.  1.
         11    1    3    3    0    0 -0.29413664694E+02 -0.25065067049E+00 -0.13397902813E+03  0.13716999116E+03  0.00000000000E+00 0. -1.
<mgrwt>
<rscale>  0 0.22827793E+03</rscale>
<asrwt>0</asrwt>
<pdfrwt beam="2">  1        2 0.50436708E-01 0.22827793E+03</pdfrwt>
<pdfrwt beam="1">  1       -2 0.61135633E-02 0.22827793E+03</pdfrwt>
<totfact> 0.13978047E+04</totfact>
</mgrwt>
</event>
<event>
 7    1  0.5107591E-006  0.2310362E+03  0.7546771E-02  0.1128798E+00
          1   -1    0    0  501    0  0.00000000000E+00  0.00000000000E+00  0.90989015629E+03  0.90989015629E+03  0.00000000000E+00 0. -1.
         -1   -1    0    0    0  501 -0.00000000000E+00 -0.00000000000E+00 -0.56249736181E+02  0.56249736181E+02  0.00000000000E+00 0.  1.
         23    2    1    2    0    0 -0.10676745469E+03  0.16233792918E+03  0.49213421153E+03  0.53711252431E+03  0.92416930169E+02 0.  0.
          5    1    1    2  502    0  0.58981515083E+02 -0.39731575432E+02  0.40289729703E+02  0.81870443552E+02  0.47000000000E+01 0. -1.
         -5    1    1    2    0  502  0.47785939603E+02 -0.12260635375E+03  0.32121647887E+03  0.34715692461E+03  0.47000000000E+01 0. -1.
        -11    1    3    3    0    0 -0.16535652158E+02  0.55742991582E+02  0.62564795182E+02  0.85411138027E+02  0.00000000000E+00 0.  1.
         11    1    3    3    0    0 -0.90231802528E+02  0.10659493760E+03  0.42956941635E+03  0.45170138628E+03  0.00000000000E+00 0. -1.
<mgrwt>
<rscale>  0 0.22696057E+03</rscale>
<asrwt>0</asrwt>
<pdfrwt beam="1">  1        1 0.13998309E+00 0.23103624E+03</pdfrwt>
<pdfrwt beam="2">  1       -1 0.86538062E-02 0.23103624E+03</pdfrwt>
<totfact> 0.14309157E+03</totfact>
</mgrwt>
</event>
<event>
 7    1  0.5107591E-006  0.2205416E+03  0.7546771E-02  0.1133480E+00
          1   -1    0    0  501    0  0.00000000000E+00  0.00000000000E+00  0.13388318873E+03  0.13388318873E+03  0.00000000000E+00 0. -1.
         -1   -1    0    0    0  501 -0.00000000000E+00 -0.00000000000E+00 -0.90822833116E+02  0.90822833116E+02  0.00000000000E+00 0.  1.
         23    2    1    2    0    0  0.14836017867E+02 -0.19229795137E+02  0.31100209886E+02  0.96812558405E+02  0.88405633094E+02 0.  0.
          5    1    1    2  502    0 -0.11000149913E+02  0.60136909280E+02 -0.30620678674E+02  0.68535881977E+02  0.47000000000E+01 0. -1.
         -5    1    1    2    0  502 -0.38358679536E+01 -0.40907114143E+02  0.42580824402E+02  0.59357581464E+02  0.47000000000E+01 0. -1.
        -11    1    3    3    0    0  0.30403736086E+02 -0.13311146097E+02 -0.22886104356E+02  0.40315599350E+02  0.00000000000E+00 0.  1.
         11    1    3    3    0    0 -0.15567718219E+02 -0.59186490395E+01  0.53986314242E+02  0.56496959054E+02  0.00000000000E+00 0. -1.
<mgrwt>
<rscale>  0 0.22054161E+03</rscale>
<asrwt>0</asrwt>
<pdfrwt beam="1">  1        1 0.20597413E-01 0.22054161E+03</pdfrwt>
<pdfrwt beam="2">  1       -1 0.13972744E-01 0.22054161E+03</pdfrwt>
<totfact> 0.86411490E+03</totfact>
</mgrwt>
</event>
<event>
 6    1  0.5107591E-006  0.1237627E+03  0.7546771E-02  0.1289159E+00
         -2   -1    0    0    0  501 -0.00000000000E+00  0.00000000000E+00  0.15115148004E+03  0.15115148004E+03  0.00000000000E+00 0.  1.
          2   -1    0    0  501    0  0.00000000000E+00 -0.00000000000E+00 -0.76996186419E+02  0.76996186419E+02  0.00000000000E+00 0. -1.
          5    1    1    2  502    0  0.54044379100E+02 -0.63158556298E+01  0.47424155021E+02  0.72331358511E+02  0.47000000000E+01 0. -1.
         -5    1    1    2    0  502 -0.67077294092E+02  0.15791792021E+02  0.66621674185E+02  0.95965001689E+02  0.47000000000E+01 0.  1.
        -11    1    1    2    0    0  0.87099046116E+00 -0.23862939178E+02 -0.13512904953E+02  0.27437148009E+02  0.00000000000E+00 0. -1.
         11    1    1    2    0    0  0.12161924531E+02  0.14387002787E+02 -0.26377630630E+02  0.32414158251E+02  0.00000000000E+00 0.  1.
<mgrwt>
<rscale>  0 0.95901246E+02</rscale>
<asrwt>0</asrwt>
<pdfrwt beam="2">  1        2 0.11845567E-01 0.12376273E+03</pdfrwt>
<pdfrwt beam="1">  1       -2 0.23254074E-01 0.12376273E+03</pdfrwt>
<totfact> 0.78540416E+03</totfact>
</mgrwt>
</event>
<event>
 7    1  0.5107591E-006  0.1732407E+03  0.7546771E-02  0.1180453E+00
          2   -1    0    0  501    0  0.00000000000E+00  0.00000000000E+00  0.48656843455E+03  0.48656843455E+03  0.00000000000E+00 0. -1.
         -2   -1    0    0    0  501 -0.00000000000E+00 -0.00000000000E+00 -0.57788367686E+02  0.57788367686E+02  0.00000000000E+00 0.  1.
         23    2    1    2    0    0  0.87414657834E+02  0.82133425084E+02  0.13305630965E+03  0.20162532448E+03  0.92528741549E+02 0.  0.
          5    1    1    2  502    0 -0.24945190436E+02  0.91959522709E+01  0.52126997273E-01  0.26998532946E+02  0.47000000000E+01 0.  1.
         -5    1    1    2    0  502 -0.62469467398E+02 -0.91329377355E+02  0.29567163021E+03  0.31573294481E+03  0.47000000000E+01 0.  1.
        -11    1    3    3    0    0  0.37083792437E+02 -0.14574195847E+02  0.20057586666E+02  0.44608537624E+02  0.00000000000E+00 0.  1.
         11    1    3    3    0    0  0.50330865397E+02  0.96707620931E+02  0.11299872298E+03  0.15701678685E+03  0.00000000000E+00 0. -1.
<mgrwt>
<rscale>  0 0.16752605E+03</rscale>
<asrwt>0</asrwt>
<pdfrwt beam="1">  1        2 0.74856679E-01 0.17324066E+03</pdfrwt>
<pdfrwt beam="2">  1       -2 0.88905185E-02 0.17324066E+03</pdfrwt>
<totfact> 0.50132837E+03</totfact>
</mgrwt>
</event>
<event>
 7    1  0.5107591E-006  0.1338942E+03  0.7546771E-02  0.1234366E+00
          1   -1    0    0  501    0  0.00000000000E+00  0.00000000000E+00  0.52319489619E+02  0.52319489619E+02  0.00000000000E+00 0. -1.
         -1   -1    0    0    0  501 -0.00000000000E+00 -0.00000000000E+00 -0.27666936496E+03  0.27666936496E+03  0.00000000000E+00 0.  1.
         23    2    1    2    0    0  0.43366814310E+02  0.20609934328E+02 -0.70159124496E+02  0.12477706643E+03  0.91332160716E+02 0.  0.
          5    1    1    2  502    0  0.17225091752E+02 -0.42293304946E+02 -0.12542782516E+03  0.13356517792E+03  0.47000000000E+01 0.  1.
         -5    1    1    2    0  502 -0.60591906062E+02  0.21683370618E+02 -0.28762925678E+02  0.70646610217E+02  0.47000000000E+01 0.  1.
        -11    1    3    3    0    0  0.41891182779E+01  0.28916129569E+02 -0.78594520720E+02  0.83849805894E+02  0.00000000000E+00 0.  1.
         11    1    3    3    0    0  0.39177696032E+02 -0.83061952416E+01  0.84353962234E+01  0.40927260539E+02  0.00000000000E+00 0. -1.
<mgrwt>
<rscale>  0 0.12545122E+03</rscale>
<asrwt>0</asrwt>
<pdfrwt beam="1">  1        1 0.80491524E-02 0.13389424E+03</pdfrwt>
<pdfrwt beam="2">  1       -1 0.42564517E-01 0.13389424E+03</pdfrwt>
<totfact> 0.45456407E+03</totfact>
</mgrwt>
</event>
<event>
 7    1  0.5107591E-006  0.2910792E+03  0.7546771E-02  0.1091357E+00
          1   -1    0    0  501    0  0.00000000000E+00  0.00000000000E+00  0.24499912015E+04  0.24499912015E+04  0.00000000000E+00 0. -1.
         -1   -1    0    0    0  501 -0.00000000000E+00 -0.00000000000E+00 -0.34282141330E+02  0.34282141330E+02  0.00000000000E+00 0.  1.
         23    2    1    2    0    0  0.17831887166E+03  0.19314646371E+03  0.14050542600E+04  0.14325365725E+04  0.94235775822E+02 0.  0.
          5    1    1    2  502    0 -0.16710466368E+03 -0.19441146274E+03  0.10067736980E+04  0.10389105613E+04  0.47000000000E+01 0.  1.
         -5    1    1    2    0  502 -0.11214207979E+02  0.12649990213E+01  0.38811021021E+01  0.12826208974E+02  0.47000000000E+01 0.  1.
        -11    1    3    3    0    0  0.18609816409E+03  0.16067218009E+03  0.12362527001E+04  0.12604637300E+04  0.00000000000E+00 0. -1.
         11    1    3    3    0    0 -0.77792924284E+01  0.32474283620E+02  0.16880155986E+03  0.17207284242E+03  0.00000000000E+00 0.  1.
<mgrwt>
<rscale>  0 0.28807713E+03</rscale>
<asrwt>0</asrwt>
<pdfrwt beam="1">  1        1 0.37692159E+00 0.29107921E+03</pdfrwt>
<pdfrwt beam="2">  1       -1 0.52741775E-02 0.29107921E+03</pdfrwt>
<totfact> 0.27674472E+02</totfact>
</mgrwt>
</event>
<event>
 7    1  0.5107591E-006  0.1442080E+03  0.7546771E-02  0.1218308E+00
         -3   -1    0    0    0  501 -0.00000000000E+00  0.00000000000E+00  0.21644429405E+03  0.21644429405E+03  0.00000000000E+00 0.  1.
          3   -1    0    0  501    0  0.00000000000E+00 -0.00000000000E+00 -0.78249794154E+02  0.78249794154E+02  0.00000000000E+00 0. -1.
         23    2    1    2    0    0  0.68768806498E+02 -0.21043028138E+02  0.50139912299E+02  0.12572795334E+03  0.90119640844E+02 0.  0.
          5    1    1    2  502    0 -0.59880833291E+02  0.11400694075E+02  0.11968942182E+03  0.13439991710E+03  0.47000000000E+01 0.  1.
         -5    1    1    2    0  502 -0.88879732072E+01  0.96423340626E+01 -0.31634834223E+02  0.34566217760E+02  0.47000000000E+01 0.  1.
        -11    1    3    3    0    0  0.47368428333E+02  0.12224320873E+02 -0.13542599480E+02  0.50760260285E+02  0.00000000000E+00 0. -1.
         11    1    3    3    0    0  0.21400378165E+02 -0.33267349011E+02  0.63682511779E+02  0.74967693057E+02  0.00000000000E+00 0.  1.
<mgrwt>
<rscale>  0 0.13636312E+03</rscale>
<asrwt>0</asrwt>
<pdfrwt beam="2">  1        3 0.12038430E-01 0.14420799E+03</pdfrwt>
<pdfrwt beam="1">  1       -3 0.33299122E-01 0.14420799E+03</pdfrwt>
<totfact> 0.11093375E+03</totfact>
</mgrwt>
</event>
<event>
 7    1  0.5107591E-006  0.1477597E+03  0.7546771E-02  0.1212576E+00
         -1   -1    0    0    0  501 -0.00000000000E+00  0.00000000000E+00  0.24367922923E+02  0.24367922923E+02  0.00000000000E+00 0.  1.
          1   -1    0    0  501    0  0.00000000000E+00 -0.00000000000E+00 -0.74315696136E+03  0.74315696136E+03  0.00000000000E+00 0. -1.
         23    2    1    2    0    0  0.49539856935E+02 -0.61243692457E+02 -0.34397829774E+03  0.36464024309E+03  0.91850151201E+02 0.  0.
          5    1    1    2  502    0 -0.44773881183E+02  0.23481707415E+02 -0.35701254605E+03  0.36060523992E+03  0.47000000000E+01 0.  1.
         -5    1    1    2    0  502 -0.47659757519E+01  0.37761985042E+02 -0.17798194646E+02  0.42279401271E+02  0.47000000000E+01 0.  1.
        -11    1    3    3    0    0 -0.58675249564E+01  0.13312718255E+02 -0.91987804476E+01  0.17212608117E+02  0.00000000000E+00 0. -1.
         11    1    3    3    0    0  0.55407381891E+02 -0.74556410713E+02 -0.33477951729E+03  0.34742763498E+03  0.00000000000E+00 0.  1.
<mgrwt>
<rscale>  0 0.14056107E+03</rscale>
<asrwt>0</asrwt>
<pdfrwt beam="2">  1        1 0.11433182E+00 0.14775975E+03</pdfrwt>
<pdfrwt beam="1">  1       -1 0.37489118E-02 0.14775975E+03</pdfrwt>
<totfact> 0.67749846E+03</totfact>
</mgrwt>
</event>
<event>
 7    1  0.5107591E-006  0.1894162E+03  0.7546771E-02  0.1163193E+00
          1   -1    0    0  501    0  0.00000000000E+00  0.00000000000E+00  0.27905922892E+03  0.27905922892E+03  0.00000000000E+00 0. -1.
         -1   -1    0    0    0  501 -0.00000000000E+00 -0.00000000000E+00 -0.12799309543E+03  0.12799309543E+03  0.00000000000E+00 0.  1.
         23    2    1    2    0    0  0.14130959084E+03  0.16890390693E+02  0.13206469533E+03  0.21668546462E+03  0.96217571491E+02 0.  0.
          5    1    1    2  502    0  0.87176844713E+01  0.23551983335E+02  0.23689926890E+02  0.34842453668E+02  0.47000000000E+01 0. -1.
         -5    1    1    2    0  502 -0.15002727531E+03 -0.40442374028E+02 -0.46884887325E+01  0.15552440606E+03  0.47000000000E+01 0. -1.
        -11    1    3    3    0    0  0.75877552242E+02  0.56279141813E+02  0.84237779260E+02  0.12657309427E+03  0.00000000000E+00 0. -1.
         11    1    3    3    0    0  0.65432038600E+02 -0.39388751120E+02  0.47826916067E+02  0.90112370353E+02  0.00000000000E+00 0.  1.
<mgrwt>
<rscale>  0 0.18484671E+03</rscale>
<asrwt>0</asrwt>
<pdfrwt beam="1">  1        1 0.42932189E-01 0.18941617E+03</pdfrwt>
<pdfrwt beam="2">  1       -1 0.19691245E-01 0.18941617E+03</pdfrwt>
<totfact> 0.19640156E+03</totfact>
</mgrwt>
</event>
<event>
 7    1  0.5107591E-006  0.1956836E+03  0.7546771E-02  0.1159245E+00
          1   -1    0    0  501    0  0.00000000000E+00  0.00000000000E+00  0.23937473379E+02  0.23937473379E+02  0.00000000000E+00 0. -1.
         -1   -1    0    0    0  501 -0.00000000000E+00 -0.00000000000E+00 -0.14029665907E+04  0.14029665907E+04  0.00000000000E+00 0.  1.
         23    2    1    2    0    0 -0.13421483024E+03  0.68222681832E+02 -0.65576820525E+03  0.67763881118E+03  0.80588240020E+02 0.  0.
          5    1    1    2  502    0  0.31226606833E+01  0.30031773496E+02 -0.86045113231E+02  0.91309966269E+02  0.47000000000E+01 0. -1.
         -5    1    1    2    0  502  0.13109216956E+03 -0.98254455328E+02 -0.63721579881E+03  0.65795528660E+03  0.47000000000E+01 0. -1.
        -11    1    3    3    0    0 -0.24427289324E+02  0.54391787556E+02 -0.25465246987E+03  0.26153974732E+03  0.00000000000E+00 0.  1.
         11    1    3    3    0    0 -0.10978754092E+03  0.13830894277E+02 -0.40111573539E+03  0.41609906387E+03  0.00000000000E+00 0. -1.
<mgrwt>
<rscale>  0 0.18913364E+03</rscale>
<asrwt>0</asrwt>
<pdfrwt beam="1">  1        1 0.36826865E-02 0.19568360E+03</pdfrwt>
<pdfrwt beam="2">  1       -1 0.21584111E+00 0.19568360E+03</pdfrwt>
<totfact> 0.33545847E+02</totfact>
</mgrwt>
</event>
<event>
 7    1  0.5107591E-006  0.1993263E+03  0.7546771E-02  0.1154710E+00
          1   -1    0    0  501    0  0.00000000000E+00  0.00000000000E+00  0.78346178276E+02  0.78346178276E+02  0.00000000000E+00 0. -1.
         -1   -1    0    0    0  501 -0.00000000000E+00 -0.00000000000E+00 -0.78991558200E+03  0.78991558200E+03  0.00000000000E+00 0.  1.
         23    2    1    2    0    0 -0.11451321156E+03 -0.10485531293E+03 -0.64027723614E+02  0.19073596709E+03  0.90403249282E+02 0.  0.
          5    1    1    2  502    0 -0.25305357369E+02  0.29295603606E+02 -0.16136356965E+03  0.16600868987E+03  0.47000000000E+01 0.  1.
         -5    1    1    2    0  502  0.13981856893E+03  0.75559709323E+02 -0.48617811046E+03  0.51151710331E+03  0.47000000000E+01 0.  1.
        -11    1    3    3    0    0 -0.65895303502E+02 -0.11033941412E+03 -0.32610572290E+02  0.13259120166E+03  0.00000000000E+00 0. -1.
         11    1    3    3    0    0 -0.48617908059E+02  0.54841011950E+01 -0.31417151324E+02  0.58144765433E+02  0.00000000000E+00 0.  1.
<mgrwt>
<rscale>  0 0.19421879E+03</rscale>
<asrwt>0</asrwt>
<pdfrwt beam="1">  1        1 0.12053258E-01 0.19932630E+03</pdfrwt>
<pdfrwt beam="2">  1       -1 0.12152548E+00 0.19932630E+03</pdfrwt>
<totfact> 0.32149603E+02</totfact>
</mgrwt>
</event>
<event>
 7    1  0.5107591E-006  0.2281894E+03  0.7546771E-02  0.1154145E+00
          2   -1    0    0  501    0  0.00000000000E+00  0.00000000000E+00  0.36263438016E+03  0.36263438016E+03  0.00000000000E+00 0.  1.
         -2   -1    0    0    0  501 -0.00000000000E+00 -0.00000000000E+00 -0.14752079052E+03  0.14752079052E+03  0.00000000000E+00 0. -1.
         23    2    1    2    0    0  0.22650528737E+02  0.76071611288E+02  0.25134544992E+03  0.27910725626E+03  0.91795363758E+02 0.  0.
          5    1    1    2  502    0  0.52665339752E+02 -0.64469690758E+02 -0.10097025867E+03  0.13094679138E+03  0.47000000000E+01 0. -1.
         -5    1    1    2    0  502 -0.75315868490E+02 -0.11601920530E+02  0.64738398387E+02  0.10010112303E+03  0.47000000000E+01 0.  1.
        -11    1    3    3    0    0  0.57822971636E+02  0.56683279013E+02  0.15999211267E+03  0.17931527064E+03  0.00000000000E+00 0.  1.
         11    1    3    3    0    0 -0.35172442898E+02  0.19388332275E+02  0.91353337248E+02  0.99791985621E+02  0.00000000000E+00 0. -1.
<mgrwt>
<rscale>  0 0.19486479E+03</rscale>
<asrwt>0</asrwt>
<pdfrwt beam="1">  1        2 0.55789904E-01 0.22818938E+03</pdfrwt>
<pdfrwt beam="2">  1       -2 0.22695506E-01 0.22818938E+03</pdfrwt>
<totfact> 0.14937183E+03</totfact>
</mgrwt>
</event>
<event>
 7    1  0.5107591E-006  0.1292789E+03  0.7546771E-02  0.1242429E+00
          2   -1    0    0  501    0  0.00000000000E+00  0.00000000000E+00  0.48638941131E+02  0.48638941131E+02  0.00000000000E+00 0. -1.
         -2   -1    0    0    0  501 -0.00000000000E+00 -0.00000000000E+00 -0.30013869443E+03  0.30013869443E+03  0.00000000000E+00 0.  1.
         23    2    1    2    0    0  0.15570283167E+02  0.29032607347E+02 -0.50006698185E+02  0.10937737220E+03  0.91528212476E+02 0.  0.
          5    1    1    2  502    0 -0.35134423846E+02  0.40971631950E+02 -0.10852398284E+03  0.12129570155E+03  0.47000000000E+01 0. -1.
         -5    1    1    2    0  502  0.19564140679E+02 -0.70004239297E+02 -0.92969072273E+02  0.11810456181E+03  0.47000000000E+01 0. -1.
        -11    1    3    3    0    0 -0.27758216728E+02 -0.12508597532E+02 -0.37076020571E+02  0.47975148874E+02  0.00000000000E+00 0. -1.
         11    1    3    3    0    0  0.43328499894E+02  0.41541204879E+02 -0.12930677614E+02  0.61402223327E+02  0.00000000000E+00 0.  1.
<mgrwt>
<rscale>  0 0.12040592E+03</rscale>
<asrwt>0</asrwt>
<pdfrwt beam="1">  1        2 0.74829141E-02 0.12927890E+03</pdfrwt>
<pdfrwt beam="2">  1       -2 0.46175184E-01 0.12927890E+03</pdfrwt>
<totfact> 0.39645527E+03</totfact>
</mgrwt>
</event>
<event>
 7    1  0.5107591E-006  0.1545177E+03  0.7546771E-02  0.1203653E+00
         -2   -1    0    0    0  501 -0.00000000000E+00  0.00000000000E+00  0.60610199584E+03  0.60610199584E+03  0.00000000000E+00 0.  1.
          2   -1    0    0  501    0  0.00000000000E+00 -0.00000000000E+00 -0.33077743086E+02  0.33077743086E+02  0.00000000000E+00 0. -1.
         23    2    1    2    0    0  0.72388471496E+02  0.54860026885E+02  0.28002139454E+03  0.30792997906E+03  0.90328164205E+02 0.  0.
          5    1    1    2  502    0 -0.10759188978E+02 -0.41013207311E+02  0.13627964751E+02  0.44784536892E+02  0.47000000000E+01 0. -1.
         -5    1    1    2    0  502 -0.61629282518E+02 -0.13846819574E+02  0.27937489346E+03  0.28646522298E+03  0.47000000000E+01 0. -1.
        -11    1    3    3    0    0  0.90000478580E+02  0.25001235091E+02  0.20678140665E+03  0.22690019400E+03  0.00000000000E+00 0.  1.
         11    1    3    3    0    0 -0.17612007084E+02  0.29858791794E+02  0.73239987888E+02  0.81029785059E+02  0.00000000000E+00 0. -1.
<mgrwt>
<rscale>  0 0.14744113E+03</rscale>
<asrwt>0</asrwt>
<pdfrwt beam="2">  1        2 0.50888840E-02 0.15451773E+03</pdfrwt>
<pdfrwt beam="1">  1       -2 0.93246453E-01 0.15451773E+03</pdfrwt>
<totfact> 0.15051208E+03</totfact>
</mgrwt>
</event>
<event>
 7    1  0.5107591E-006  0.1492854E+03  0.7546771E-02  0.1210460E+00
          1   -1    0    0  501    0  0.00000000000E+00  0.00000000000E+00  0.23533163274E+03  0.23533163274E+03  0.00000000000E+00 0. -1.
         -1   -1    0    0    0  501 -0.00000000000E+00 -0.00000000000E+00 -0.81181048135E+02  0.81181048135E+02  0.00000000000E+00 0.  1.
         23    2    1    2    0    0 -0.33027139791E+02 -0.74640168540E+02  0.97832018442E+02  0.15695736805E+03  0.91665505134E+02 0.  0.
          5    1    1    2  502    0  0.35414698342E+02  0.27230212130E+02 -0.34721766566E+02  0.56774786524E+02  0.47000000000E+01 0.  1.
         -5    1    1    2    0  502 -0.23875585517E+01  0.47409956410E+02  0.91040332725E+02  0.10278052629E+03  0.47000000000E+01 0.  1.
        -11    1    3    3    0    0 -0.55907394757E+02 -0.19473898690E+02  0.29306261597E+02  0.66058508063E+02  0.00000000000E+00 0.  1.
         11    1    3    3    0    0  0.22880254966E+02 -0.55166269850E+02  0.68525756845E+02  0.90898859991E+02  0.00000000000E+00 0. -1.
<mgrwt>
<rscale>  0 0.14215341E+03</rscale>
<asrwt>0</asrwt>
<pdfrwt beam="1">  1        1 0.36204866E-01 0.14928535E+03</pdfrwt>
<pdfrwt beam="2">  1       -1 0.12489392E-01 0.14928535E+03</pdfrwt>
<totfact> 0.49386207E+03</totfact>
</mgrwt>
</event>
<event>
 7    1  0.5107591E-006  0.1980430E+03  0.7546771E-02  0.1155838E+00
         -1   -1    0    0    0  501 -0.00000000000E+00  0.00000000000E+00  0.15804877759E+03  0.15804877759E+03  0.00000000000E+00 0.  1.
          1   -1    0    0  501    0  0.00000000000E+00 -0.00000000000E+00 -0.22583160527E+03  0.22583160527E+03  0.00000000000E+00 0. -1.
         23    2    1    2    0    0  0.14610604616E+03  0.47424637061E+02 -0.15611475557E+02  0.17908081203E+03  0.90720152906E+02 0.  0.
          5    1    1    2  502    0 -0.11208954401E+03 -0.16758946764E+02  0.23860424166E+02  0.11591521908E+03  0.47000000000E+01 0. -1.
         -5    1    1    2    0  502 -0.34016502151E+02 -0.30665690297E+02 -0.76031776294E+02  0.88884351752E+02  0.47000000000E+01 0. -1.
        -11    1    3    3    0    0  0.58432562830E+02 -0.25987579978E+02 -0.27576552125E+01  0.64010338026E+02  0.00000000000E+00 0.  1.
         11    1    3    3    0    0  0.87673483328E+02  0.73412217039E+02 -0.12853820345E+02  0.11507047400E+03  0.00000000000E+00 0. -1.
<mgrwt>
<rscale>  0 0.19293796E+03</rscale>
<asrwt>0</asrwt>
<pdfrwt beam="2">  1        1 0.34743324E-01 0.19804296E+03</pdfrwt>
<pdfrwt beam="1">  1       -1 0.24315196E-01 0.19804296E+03</pdfrwt>
<totfact> 0.18149377E+03</totfact>
</mgrwt>
</event>
<event>
 7    1  0.5107591E-006  0.1251444E+03  0.7546771E-02  0.1246963E+00
         -1   -1    0    0    0  501 -0.00000000000E+00  0.00000000000E+00  0.23790941801E+02  0.23790941801E+02  0.00000000000E+00 0.  1.
          1   -1    0    0  501    0  0.00000000000E+00 -0.00000000000E+00 -0.52299317157E+03  0.52299317157E+03  0.00000000000E+00 0. -1.
         23    2    1    2    0    0  0.42697187356E+01  0.43423717941E+01 -0.21221693338E+03  0.23369995684E+03  0.97686008853E+02 0.  0.
          5    1    1    2  502    0 -0.72618005923E+01 -0.55898971150E+02 -0.70046164864E+02  0.90033237949E+02  0.47000000000E+01 0. -1.
         -5    1    1    2    0  502  0.29920818566E+01  0.51556599356E+02 -0.21693913152E+03  0.22305091858E+03  0.47000000000E+01 0. -1.
        -11    1    3    3    0    0  0.26522069260E+02 -0.22480228495E+02 -0.23911270166E+02  0.42196322968E+02  0.00000000000E+00 0.  1.
         11    1    3    3    0    0 -0.22252350524E+02  0.26822600289E+02 -0.18830566321E+03  0.19150363387E+03  0.00000000000E+00 0. -1.
<mgrwt>
<rscale>  0 0.11768668E+03</rscale>
<asrwt>0</asrwt>
<pdfrwt beam="2">  1        1 0.80460481E-01 0.12514443E+03</pdfrwt>
<pdfrwt beam="1">  1       -1 0.36601452E-02 0.12514443E+03</pdfrwt>
<totfact> 0.11278384E+04</totfact>
</mgrwt>
</event>
<event>
 7    1  0.5107591E-006  0.1556577E+03  0.7546771E-02  0.1202488E+00
         -1   -1    0    0    0  501 -0.00000000000E+00  0.00000000000E+00  0.41345569807E+02  0.41345569807E+02  0.00000000000E+00 0.  1.
          1   -1    0    0  501    0  0.00000000000E+00 -0.00000000000E+00 -0.49076717832E+03  0.49076717832E+03  0.00000000000E+00 0. -1.
         23    2    1    2    0    0 -0.81236725468E+02  0.44790108791E+02 -0.22238276644E+03  0.25683840108E+03  0.88917433879E+02 0.  0.
          5    1    1    2  502    0  0.56524909471E+02 -0.24722225787E+02 -0.23426145750E+03  0.24229480867E+03  0.47000000000E+01 0. -1.
         -5    1    1    2    0  502  0.24711815997E+02 -0.20067883004E+02  0.72226154279E+01  0.32979538380E+02  0.47000000000E+01 0. -1.
        -11    1    3    3    0    0 -0.13114224922E+02 -0.15522122667E+02 -0.11182269021E+03  0.11365400668E+03  0.00000000000E+00 0.  1.
         11    1    3    3    0    0 -0.68122500546E+02  0.60312231459E+02 -0.11056007623E+03  0.14318439440E+03  0.00000000000E+00 0. -1.
<mgrwt>
<rscale>  0 0.14837221E+03</rscale>
<asrwt>0</asrwt>
<pdfrwt beam="2">  1        1 0.75502645E-01 0.15565773E+03</pdfrwt>
<pdfrwt beam="1">  1       -1 0.63608567E-02 0.15565773E+03</pdfrwt>
<totfact> 0.54880902E+03</totfact>
</mgrwt>
</event>
<event>
 7    1  0.5107591E-006  0.1460550E+03  0.7546771E-02  0.1215116E+00
         -1   -1    0    0    0  501 -0.00000000000E+00  0.00000000000E+00  0.44672035337E+03  0.44672035337E+03  0.00000000000E+00 0.  1.
          1   -1    0    0  501    0  0.00000000000E+00 -0.00000000000E+00 -0.39364854123E+02  0.39364854123E+02  0.00000000000E+00 0. -1.
         23    2    1    2    0    0 -0.46105714944E+02  0.59848195474E+02  0.16869728378E+03  0.20628204444E+03  0.91574913860E+02 0.  0.
          5    1    1    2  502    0  0.16404089350E+02  0.40280546813E+01 -0.10769287604E+02  0.20576368178E+02  0.47000000000E+01 0. -1.
         -5    1    1    2    0  502  0.29701625594E+02 -0.63876250155E+02  0.24942750306E+03  0.25922679488E+03  0.47000000000E+01 0. -1.
        -11    1    3    3    0    0 -0.51558659349E+02  0.23547162872E+02  0.15828192004E+03  0.16812474667E+03  0.00000000000E+00 0.  1.
         11    1    3    3    0    0  0.54529444048E+01  0.36301032602E+02  0.10415363748E+02  0.38157297764E+02  0.00000000000E+00 0. -1.
<mgrwt>
<rscale>  0 0.13868029E+03</rscale>
<asrwt>0</asrwt>
<pdfrwt beam="2">  1        1 0.60561317E-02 0.14605501E+03</pdfrwt>
<pdfrwt beam="1">  1       -1 0.68726204E-01 0.14605501E+03</pdfrwt>
<totfact> 0.27504170E+03</totfact>
</mgrwt>
</event>
<event>
 7    1  0.5107591E-006  0.2273444E+03  0.7546771E-02  0.1128523E+00
         -1   -1    0    0    0  501 -0.00000000000E+00  0.00000000000E+00  0.30597349963E+02  0.30597349963E+02  0.00000000000E+00 0.  1.
          1   -1    0    0  501    0  0.00000000000E+00 -0.00000000000E+00 -0.42230337152E+03  0.42230337152E+03  0.00000000000E+00 0. -1.
         23    2    1    2    0    0 -0.23841240545E+02  0.24847838837E+02 -0.20076945365E+03  0.22210310595E+03  0.88518903678E+02 0.  0.
          5    1    1    2  502    0  0.37819558353E+02 -0.71122559402E+02 -0.12780977423E+03  0.15114948177E+03  0.47000000000E+01 0.  1.
         -5    1    1    2    0  502 -0.13978317808E+02  0.46274720564E+02 -0.63126793670E+02  0.79648133758E+02  0.47000000000E+01 0.  1.
        -11    1    3    3    0    0 -0.20873183886E+02 -0.23685277327E+02 -0.26627494230E+02  0.41300189062E+02  0.00000000000E+00 0.  1.
         11    1    3    3    0    0 -0.29680566598E+01  0.48533116164E+02 -0.17414195942E+03  0.18080291689E+03  0.00000000000E+00 0. -1.
<mgrwt>
<rscale>  0 0.22734436E+03</rscale>
<asrwt>0</asrwt>
<pdfrwt beam="2">  1        1 0.64969746E-01 0.22734436E+03</pdfrwt>
<pdfrwt beam="1">  1       -1 0.47072849E-02 0.22734436E+03</pdfrwt>
<totfact> 0.10691770E+04</totfact>
</mgrwt>
</event>
<event>
 7    1  0.5107591E-006  0.1264597E+03  0.7546771E-02  0.1249139E+00
          1   -1    0    0  501    0  0.00000000000E+00  0.00000000000E+00  0.37506133907E+03  0.37506133907E+03  0.00000000000E+00 0. -1.
         -1   -1    0    0    0  501 -0.00000000000E+00 -0.00000000000E+00 -0.12171804245E+03  0.12171804245E+03  0.00000000000E+00 0.  1.
         23    2    1    2    0    0  0.25900160765E+01 -0.56752782191E+01  0.33444130399E+03  0.34654975765E+03  0.90591565561E+02 0.  0.
          5    1    1    2  502    0 -0.56267789778E+02 -0.27884660735E+02 -0.39643504387E+02  0.74413143402E+02  0.47000000000E+01 0. -1.
         -5    1    1    2    0  502  0.53677773702E+02  0.33559938954E+02 -0.41454502986E+02  0.75816480464E+02  0.47000000000E+01 0.  1.
        -11    1    3    3    0    0 -0.41490486476E+02  0.11958239444E+02  0.14937373845E+03  0.15548946491E+03  0.00000000000E+00 0. -1.
         11    1    3    3    0    0  0.44080502552E+02 -0.17633517663E+02  0.18506756554E+03  0.19106029275E+03  0.00000000000E+00 0.  1.
<mgrwt>
<rscale>  0 0.11641069E+03</rscale>
<asrwt>0</asrwt>
<pdfrwt beam="1">  1        1 0.57701744E-01 0.12645969E+03</pdfrwt>
<pdfrwt beam="2">  1       -1 0.18725853E-01 0.12645969E+03</pdfrwt>
<totfact> 0.14563228E+03</totfact>
</mgrwt>
</event>
<event>
 7    1  0.5107591E-006  0.2300566E+03  0.7546771E-02  0.1129643E+00
         -2   -1    0    0    0  501 -0.00000000000E+00  0.00000000000E+00  0.43907144891E+02  0.43907144891E+02  0.00000000000E+00 0.  1.
          2   -1    0    0  501    0  0.00000000000E+00 -0.00000000000E+00 -0.11490775678E+04  0.11490775678E+04  0.00000000000E+00 0. -1.
         23    2    1    2    0    0  0.40640534690E+02 -0.18880006437E+03 -0.62738947028E+03  0.66270113799E+03  0.90874273093E+02 0.  0.
          5    1    1    2  502    0 -0.65362861043E+02  0.19013260964E+03 -0.44929397530E+03  0.49224981370E+03  0.47000000000E+01 0.  1.
         -5    1    1    2    0  502  0.24722326353E+02 -0.13325452758E+01 -0.28486977291E+02  0.38033760955E+02  0.47000000000E+01 0.  1.
        -11    1    3    3    0    0 -0.69827485729E+01 -0.11079564917E+03 -0.23635647029E+03  0.26112988282E+03  0.00000000000E+00 0.  1.
         11    1    3    3    0    0  0.47623283263E+02 -0.78004415197E+02 -0.39103299999E+03  0.40157125517E+03  0.00000000000E+00 0. -1.
<mgrwt>
<rscale>  0 0.22578407E+03</rscale>
<asrwt>0</asrwt>
<pdfrwt beam="2">  1        2 0.17678117E+00 0.23005658E+03</pdfrwt>
<pdfrwt beam="1">  1       -2 0.67549451E-02 0.23005658E+03</pdfrwt>
<totfact> 0.26276088E+03</totfact>
</mgrwt>
</event>
<event>
 7    1  0.5107591E-006  0.2495146E+03  0.7546771E-02  0.1115851E+00
          1   -1    0    0  501    0  0.00000000000E+00  0.00000000000E+00  0.11212285573E+03  0.11212285573E+03  0.00000000000E+00 0. -1.
         -1   -1    0    0    0  501 -0.00000000000E+00 -0.00000000000E+00 -0.55969381123E+03  0.55969381123E+03  0.00000000000E+00 0.  1.
         23    2    1    2    0    0 -0.10458146671E+03  0.18893538187E+03 -0.13443732870E+03  0.27142909133E+03  0.94691576034E+02 0.  0.
          5    1    1    2  502    0  0.13988074161E+02 -0.13818458549E+03 -0.22324229028E+03  0.26296360215E+03  0.47000000000E+01 0. -1.
         -5    1    1    2    0  502  0.90593392545E+02 -0.50750796379E+02 -0.89891336522E+02  0.13742397348E+03  0.47000000000E+01 0. -1.
        -11    1    3    3    0    0 -0.68829305107E+02  0.41184750945E+02 -0.69476355841E+02  0.10611607311E+03  0.00000000000E+00 0. -1.
         11    1    3    3    0    0 -0.35752161600E+02  0.14775063092E+03 -0.64960972858E+02  0.16531301822E+03  0.00000000000E+00 0.  1.
<mgrwt>
<rscale>  0 0.24601222E+03</rscale>
<asrwt>0</asrwt>
<pdfrwt beam="1">  1        1 0.17249670E-01 0.24951461E+03</pdfrwt>
<pdfrwt beam="2">  1       -1 0.86106741E-01 0.24951461E+03</pdfrwt>
<totfact> 0.43418761E+02</totfact>
</mgrwt>
</event>
<event>
 7    1  0.5107591E-006  0.1497565E+03  0.7546771E-02  0.1207697E+00
          4   -1    0    0  501    0  0.00000000000E+00  0.00000000000E+00  0.11086366143E+03  0.11086366143E+03  0.00000000000E+00 0. -1.
         -4   -1    0    0    0  501 -0.00000000000E+00 -0.00000000000E+00 -0.20140474747E+03  0.20140474747E+03  0.00000000000E+00 0.  1.
         23    2    1    2    0    0 -0.36404687714E+02  0.74011142054E+02  0.13837350048E+02  0.12972564939E+03  0.99168147193E+02 0.  0.
          5    1    1    2  502    0 -0.40347141266E+02 -0.52760926596E+01 -0.87328574228E+01  0.41881759286E+02  0.47000000000E+01 0.  1.
         -5    1    1    2    0  502  0.76751828980E+02 -0.68735049394E+02 -0.95645578657E+02  0.14066100022E+03  0.47000000000E+01 0.  1.
        -11    1    3    3    0    0 -0.64719983028E+02  0.37163892903E+02  0.30127550965E+02  0.80482920337E+02  0.00000000000E+00 0. -1.
         11    1    3    3    0    0  0.28315295314E+02  0.36847249151E+02 -0.16290200917E+02  0.49242729053E+02  0.00000000000E+00 0.  1.
<mgrwt>
<rscale>  0 0.14426948E+03</rscale>
<asrwt>0</asrwt>
<pdfrwt beam="1">  1        4 0.17055948E-01 0.14975647E+03</pdfrwt>
<pdfrwt beam="2">  1       -4 0.30985346E-01 0.14975647E+03</pdfrwt>
<totfact> 0.50740578E+02</totfact>
</mgrwt>
</event>
<event>
 7    1  0.5107591E-006  0.1381697E+03  0.7546771E-02  0.1227284E+00
          2   -1    0    0  501    0  0.00000000000E+00  0.00000000000E+00  0.36655452778E+03  0.36655452778E+03  0.00000000000E+00 0. -1.
         -2   -1    0    0    0  501 -0.00000000000E+00 -0.00000000000E+00 -0.41553475666E+02  0.41553475666E+02  0.00000000000E+00 0.  1.
         23    2    1    2    0    0  0.47118204371E+02  0.35336054875E+02  0.14341911057E+03  0.17993511698E+03  0.91317266097E+02 0.  0.
          5    1    1    2  502    0  0.32056921785E+02 -0.11277018299E+02  0.71391766371E+01  0.35041050485E+02  0.47000000000E+01 0.  1.
         -5    1    1    2    0  502 -0.79175126156E+02 -0.24059036576E+02  0.17444276491E+03  0.19313183599E+03  0.47000000000E+01 0.  1.
        -11    1    3    3    0    0 -0.38362666803E+01  0.29659179745E+02  0.11981826339E+03  0.12349412993E+03  0.00000000000E+00 0.  1.
         11    1    3    3    0    0  0.50954471052E+02  0.56768751294E+01  0.23600847183E+02  0.56440987050E+02  0.00000000000E+00 0. -1.
<mgrwt>
<rscale>  0 0.13011574E+03</rscale>
<asrwt>0</asrwt>
<pdfrwt beam="1">  1        2 0.56393002E-01 0.13816970E+03</pdfrwt>
<pdfrwt beam="2">  1       -2 0.63928426E-02 0.13816970E+03</pdfrwt>
<totfact> 0.11172001E+04</totfact>
</mgrwt>
</event>
<event>
 7    1  0.5107591E-006  0.1712469E+03  0.7546771E-02  0.1182716E+00
         -1   -1    0    0    0  501 -0.00000000000E+00  0.00000000000E+00  0.10273800111E+03  0.10273800111E+03  0.00000000000E+00 0.  1.
          1   -1    0    0  501    0  0.00000000000E+00 -0.00000000000E+00 -0.25052065010E+03  0.25052065010E+03  0.00000000000E+00 0. -1.
         23    2    1    2    0    0 -0.76360506182E+02  0.88707615391E+02 -0.78950753553E+02  0.16869613835E+03  0.92331997017E+02 0.  0.
          5    1    1    2  502    0  0.62957194036E+02 -0.11928528846E+03 -0.41613671147E+02  0.14123163934E+03  0.47000000000E+01 0.  1.
         -5    1    1    2    0  502  0.13403312146E+02  0.30577673070E+02 -0.27218224288E+02  0.43330873523E+02  0.47000000000E+01 0.  1.
        -11    1    3    3    0    0 -0.47325871009E+02  0.14192549916E+02 -0.73468003628E+02  0.88536512790E+02  0.00000000000E+00 0. -1.
         11    1    3    3    0    0 -0.29034635173E+02  0.74515065475E+02 -0.54827499247E+01  0.80159625555E+02  0.00000000000E+00 0.  1.
<mgrwt>
<rscale>  0 0.16541413E+03</rscale>
<asrwt>0</asrwt>
<pdfrwt beam="2">  1        1 0.38541638E-01 0.17124687E+03</pdfrwt>
<pdfrwt beam="1">  1       -1 0.15805847E-01 0.17124687E+03</pdfrwt>
<totfact> 0.31812874E+03</totfact>
</mgrwt>
</event>
<event>
 7    1  0.5107591E-006  0.1486405E+03  0.7546771E-02  0.1211039E+00
         -1   -1    0    0    0  501 -0.00000000000E+00  0.00000000000E+00  0.13773069500E+02  0.13773069500E+02  0.00000000000E+00 0.  1.
          1   -1    0    0  501    0  0.00000000000E+00 -0.00000000000E+00 -0.13381877847E+04  0.13381877847E+04  0.00000000000E+00 0. -1.
         23    2    1    2    0    0  0.35169421732E+02 -0.72376562670E+02 -0.61376231471E+03  0.62592997627E+03  0.92784164563E+02 0.  0.
          5    1    1    2  502    0  0.40155607616E+02  0.11945655543E+02 -0.11298741036E+03  0.12059608787E+03  0.47000000000E+01 0. -1.
         -5    1    1    2    0  502 -0.75325029348E+02  0.60430907127E+02 -0.59766499014E+03  0.60543479006E+03  0.47000000000E+01 0. -1.
        -11    1    3    3    0    0 -0.22350781084E+02 -0.58202971049E+02 -0.27039937671E+03  0.27749408315E+03  0.00000000000E+00 0.  1.
         11    1    3    3    0    0  0.57520202817E+02 -0.14173591620E+02 -0.34336293799E+03  0.34843589313E+03  0.00000000000E+00 0. -1.
<mgrwt>
<rscale>  0 0.14171572E+03</rscale>
<asrwt>0</asrwt>
<pdfrwt beam="2">  1        1 0.20587508E+00 0.14864051E+03</pdfrwt>
<pdfrwt beam="1">  1       -1 0.21189334E-02 0.14864051E+03</pdfrwt>
<totfact> 0.56878605E+03</totfact>
</mgrwt>
</event>
<event>
 7    1  0.5107591E-006  0.1274407E+03  0.7546771E-02  0.1246176E+00
         -1   -1    0    0    0  501 -0.00000000000E+00  0.00000000000E+00  0.15408799124E+03  0.15408799124E+03  0.00000000000E+00 0.  1.
          1   -1    0    0  501    0  0.00000000000E+00 -0.00000000000E+00 -0.92421974275E+02  0.92421974275E+02  0.00000000000E+00 0. -1.
         23    2    1    2    0    0  0.11859080896E+02  0.21806660603E+02 -0.18493701098E+02  0.95955257331E+02  0.90825250800E+02 0.  0.
          5    1    1    2  502    0 -0.36525902687E+02  0.21122855589E+02 -0.13466114689E+02  0.44539228104E+02  0.47000000000E+01 0.  1.
         -5    1    1    2    0  502  0.24666821791E+02 -0.42929516192E+02  0.93625832748E+02  0.10601548007E+03  0.47000000000E+01 0.  1.
        -11    1    3    3    0    0  0.10808543199E+02  0.41766043920E+02 -0.45274677676E+02  0.62538176096E+02  0.00000000000E+00 0. -1.
         11    1    3    3    0    0  0.10505376978E+01 -0.19959383316E+02  0.26780976578E+02  0.33417081235E+02  0.00000000000E+00 0.  1.
<mgrwt>
<rscale>  0 0.11815264E+03</rscale>
<asrwt>0</asrwt>
<pdfrwt beam="2">  1        1 0.14218765E-01 0.12744073E+03</pdfrwt>
<pdfrwt beam="1">  1       -1 0.23705845E-01 0.12744073E+03</pdfrwt>
<totfact> 0.57655014E+03</totfact>
</mgrwt>
</event>
<event>
 7    1  0.5107591E-006  0.2596165E+03  0.7546771E-02  0.1109600E+00
         -2   -1    0    0    0  501 -0.00000000000E+00  0.00000000000E+00  0.22117200100E+03  0.22117200100E+03  0.00000000000E+00 0.  1.
          2   -1    0    0  501    0  0.00000000000E+00 -0.00000000000E+00 -0.34659036704E+03  0.34659036704E+03  0.00000000000E+00 0. -1.
         23    2    1    2    0    0 -0.19187704790E+03  0.12231432962E+03 -0.17777449396E+03  0.30291927070E+03  0.91535332632E+02 0.  0.
          5    1    1    2  502    0  0.20865078844E+03 -0.10236896406E+03  0.52711505562E+02  0.23835928582E+03  0.47000000000E+01 0.  1.
         -5    1    1    2    0  502 -0.16773740538E+02 -0.19945365560E+02 -0.35537763276E+00  0.26483811512E+02  0.47000000000E+01 0.  1.
        -11    1    3    3    0    0 -0.59267929322E+02 -0.52378328326E+01 -0.28434524562E+02  0.65944253169E+02  0.00000000000E+00 0.  1.
         11    1    3    3    0    0 -0.13260911858E+03  0.12755216245E+03 -0.14933996940E+03  0.23697501754E+03  0.00000000000E+00 0. -1.
<mgrwt>
<rscale>  0 0.25595246E+03</rscale>
<asrwt>0</asrwt>
<pdfrwt beam="2">  1        2 0.53321595E-01 0.25961645E+03</pdfrwt>
<pdfrwt beam="1">  1       -2 0.34026462E-01 0.25961645E+03</pdfrwt>
<totfact> 0.75845501E+02</totfact>
</mgrwt>
</event>
<event>
 6    1  0.6898552E-006  0.1376614E+03  0.7546771E-02  0.1280864E+00
         -2   -1    0    0    0  501 -0.00000000000E+00  0.00000000000E+00  0.56094104705E+02  0.56094104705E+02  0.00000000000E+00 0.  1.
          2   -1    0    0  501    0  0.00000000000E+00 -0.00000000000E+00 -0.14463611840E+03  0.14463611840E+03  0.00000000000E+00 0. -1.
          5    1    1    2  502    0 -0.36742925880E+02  0.52332192923E+02 -0.54118000822E+02  0.83902020425E+02  0.47000000000E+01 0. -1.
         -5    1    1    2    0  502  0.55580301702E+02 -0.27530849999E+02  0.46527606301E+01  0.62376724989E+02  0.47000000000E+01 0.  1.
        -11    1    1    2    0    0 -0.17771314810E+02 -0.55944394760E+01 -0.17787985426E+02  0.25759072356E+02  0.00000000000E+00 0.  1.
         11    1    1    2    0    0 -0.10660610110E+01 -0.19206903448E+02 -0.21288788080E+02  0.28692405338E+02  0.00000000000E+00 0. -1.
<mgrwt>
<rscale>  0 0.99730463E+02</rscale>
<asrwt>0</asrwt>
<pdfrwt beam="2">  1        2 0.22251710E-01 0.13766140E+03</pdfrwt>
<pdfrwt beam="1">  1       -2 0.86298623E-02 0.13766140E+03</pdfrwt>
<totfact> 0.19175138E+04</totfact>
</mgrwt>
</event>
<event>
 7    1  0.5107591E-006  0.1860751E+03  0.7546771E-02  0.1167011E+00
          2   -1    0    0  501    0  0.00000000000E+00  0.00000000000E+00  0.10538019180E+04  0.10538019180E+04  0.00000000000E+00 0. -1.
         -2   -1    0    0    0  501 -0.00000000000E+00 -0.00000000000E+00 -0.29431297182E+02  0.29431297182E+02  0.00000000000E+00 0.  1.
         23    2    1    2    0    0 -0.53000576898E+02 -0.12723979919E+03  0.50169915298E+03  0.52842748442E+03  0.92382566192E+02 0.  0.
          5    1    1    2  502    0 -0.19508352065E+02  0.10025131236E+03  0.36595483884E+03  0.37996833486E+03  0.47000000000E+01 0. -1.
         -5    1    1    2    0  502  0.72508928963E+02  0.26988486828E+02  0.15671662899E+03  0.17483739589E+03  0.47000000000E+01 0. -1.
        -11    1    3    3    0    0 -0.16581615297E+02 -0.12687119348E+03  0.41807963036E+03  0.43722057022E+03  0.00000000000E+00 0. -1.
         11    1    3    3    0    0 -0.36418961601E+02 -0.36860571230E+00  0.83619522620E+02  0.91206914197E+02  0.00000000000E+00 0.  1.
<mgrwt>
<rscale>  0 0.18082104E+03</rscale>
<asrwt>0</asrwt>
<pdfrwt beam="1">  1        2 0.16212334E+00 0.18607508E+03</pdfrwt>
<pdfrwt beam="2">  1       -2 0.45278927E-02 0.18607508E+03</pdfrwt>
<totfact> 0.54720155E+03</totfact>
</mgrwt>
</event>
<event>
 7    1  0.5107591E-006  0.1373374E+03  0.7546771E-02  0.1227825E+00
         -1   -1    0    0    0  501 -0.00000000000E+00  0.00000000000E+00  0.10197794395E+03  0.10197794395E+03  0.00000000000E+00 0.  1.
          1   -1    0    0  501    0  0.00000000000E+00 -0.00000000000E+00 -0.20916597474E+03  0.20916597474E+03  0.00000000000E+00 0. -1.
         23    2    1    2    0    0 -0.26147726368E+02 -0.50542266304E+02 -0.13213733699E+03  0.17155867579E+03  0.93455225296E+02 0.  0.
          5    1    1    2  502    0  0.35598698232E+02  0.73694212495E+02 -0.23139299228E+02  0.85179935665E+02  0.47000000000E+01 0.  1.
         -5    1    1    2    0  502 -0.94509718635E+01 -0.23151946192E+02  0.48088605441E+02  0.54405307231E+02  0.47000000000E+01 0.  1.
        -11    1    3    3    0    0 -0.25020133112E+02 -0.12832606317E+02  0.56661533546E+01  0.28684283845E+02  0.00000000000E+00 0.  1.
         11    1    3    3    0    0 -0.11275932561E+01 -0.37709659986E+02 -0.13780349035E+03  0.14287439195E+03  0.00000000000E+00 0. -1.
<mgrwt>
<rscale>  0 0.12975169E+03</rscale>
<asrwt>0</asrwt>
<pdfrwt beam="2">  1        1 0.32179380E-01 0.13733744E+03</pdfrwt>
<pdfrwt beam="1">  1       -1 0.15688915E-01 0.13733744E+03</pdfrwt>
<totfact> 0.39854994E+03</totfact>
</mgrwt>
</event>
<event>
 7    1  0.5107591E-006  0.1765132E+03  0.7546771E-02  0.1177267E+00
         -1   -1    0    0    0  501 -0.00000000000E+00  0.00000000000E+00  0.28845287449E+02  0.28845287449E+02  0.00000000000E+00 0.  1.
          1   -1    0    0  501    0  0.00000000000E+00 -0.00000000000E+00 -0.96574542767E+03  0.96574542767E+03  0.00000000000E+00 0. -1.
         23    2    1    2    0    0 -0.12462875731E+03 -0.40579429585E+00 -0.50789557007E+03  0.53069221835E+03  0.90243164305E+02 0.  0.
          5    1    1    2  502    0  0.13490874174E+02  0.20821608178E+01  0.54460636395E+01  0.15430122774E+02  0.47000000000E+01 0. -1.
         -5    1    1    2    0  502  0.11113788313E+03 -0.16763665220E+01 -0.43445063379E+03  0.44846837399E+03  0.47000000000E+01 0. -1.
        -11    1    3    3    0    0 -0.27154037459E+02  0.29371009806E+02 -0.65833113666E+02  0.77032440064E+02  0.00000000000E+00 0.  1.
         11    1    3    3    0    0 -0.97474719849E+02 -0.29776804102E+02 -0.44206245641E+03  0.45365977829E+03  0.00000000000E+00 0. -1.
<mgrwt>
<rscale>  0 0.17055800E+03</rscale>
<asrwt>0</asrwt>
<pdfrwt beam="2">  1        1 0.14857621E+00 0.17651316E+03</pdfrwt>
<pdfrwt beam="1">  1       -1 0.44377368E-02 0.17651316E+03</pdfrwt>
<totfact> 0.35344200E+03</totfact>
</mgrwt>
</event>
<event>
 7    1  0.5107591E-006  0.1235457E+03  0.7546771E-02  0.1247060E+00
          1   -1    0    0  501    0  0.00000000000E+00  0.00000000000E+00  0.10983539951E+03  0.10983539951E+03  0.00000000000E+00 0. -1.
         -1   -1    0    0    0  501 -0.00000000000E+00 -0.00000000000E+00 -0.12087506203E+03  0.12087506203E+03  0.00000000000E+00 0.  1.
         23    2    1    2    0    0 -0.46305081657E+01 -0.40596819136E+02  0.19648575471E+02  0.10341043339E+03  0.92941421800E+02 0.  0.
          5    1    1    2  502    0  0.15855601429E+02 -0.28503864248E+02  0.21942065418E+02  0.39590587373E+02  0.47000000000E+01 0. -1.
         -5    1    1    2    0  502 -0.11225093263E+02  0.69100683384E+02 -0.52630303410E+02  0.87709440768E+02  0.47000000000E+01 0.  1.
        -11    1    3    3    0    0  0.36375621915E+02 -0.92909922839E+01 -0.15886427606E+02  0.40766248164E+02  0.00000000000E+00 0.  1.
         11    1    3    3    0    0 -0.41006130081E+02 -0.31305826852E+02  0.35535003076E+02  0.62644185227E+02  0.00000000000E+00 0. -1.
<mgrwt>
<rscale>  0 0.11762932E+03</rscale>
<asrwt>0</asrwt>
<pdfrwt beam="1">  1        1 0.16897754E-01 0.12354566E+03</pdfrwt>
<pdfrwt beam="2">  1       -1 0.18596163E-01 0.12354566E+03</pdfrwt>
<totfact> 0.68078276E+03</totfact>
</mgrwt>
</event>
<event>
 7    1  0.5107591E-006  0.1302063E+03  0.7546771E-02  0.1240998E+00
         -2   -1    0    0    0  501 -0.00000000000E+00  0.00000000000E+00  0.27747102169E+03  0.27747102169E+03  0.00000000000E+00 0. -1.
          2   -1    0    0  501    0  0.00000000000E+00 -0.00000000000E+00 -0.49111891062E+02  0.49111891062E+02  0.00000000000E+00 0.  1.
         23    2    1    2    0    0  0.22325189842E+02 -0.28837740578E+02  0.64677237836E+02  0.11742883028E+03  0.90974478308E+02 0.  0.
          5    1    1    2  502    0  0.23304818980E+02 -0.40222404856E+02  0.49754590695E+02  0.68253686606E+02  0.47000000000E+01 0.  1.
         -5    1    1    2    0  502 -0.45630008822E+02  0.69060145434E+02  0.11392730209E+03  0.14090039586E+03  0.47000000000E+01 0.  1.
        -11    1    3    3    0    0  0.85618603868E+01 -0.35507667613E+02  0.84696020642E+02  0.92236195852E+02  0.00000000000E+00 0. -1.
         11    1    3    3    0    0  0.13763329455E+02  0.66699270342E+01 -0.20018782806E+02  0.25192634427E+02  0.00000000000E+00 0.  1.
<mgrwt>
<rscale>  0 0.12128131E+03</rscale>
<asrwt>0</asrwt>
<pdfrwt beam="2">  1        2 0.75556757E-02 0.13020625E+03</pdfrwt>
<pdfrwt beam="1">  1       -2 0.42687848E-01 0.13020625E+03</pdfrwt>
<totfact> 0.45594881E+03</totfact>
</mgrwt>
</event>
<event>
 7    1  0.5107591E-006  0.1484970E+03  0.7546771E-02  0.1217806E+00
          1   -1    0    0  501    0  0.00000000000E+00  0.00000000000E+00  0.57117820408E+02  0.57117820408E+02  0.00000000000E+00 0. -1.
         -1   -1    0    0    0  501 -0.00000000000E+00 -0.00000000000E+00 -0.29610472460E+03  0.29610472460E+03  0.00000000000E+00 0.  1.
         23    2    1    2    0    0  0.38344014475E+02 -0.32706744829E+02 -0.67026690766E+02  0.12601848916E+03  0.94064274469E+02 0.  0.
          5    1    1    2  502    0  0.41312483815E+02 -0.78389976519E+01 -0.12125409638E+02  0.44014619867E+02  0.47000000000E+01 0. -1.
         -5    1    1    2    0  502 -0.79656498290E+02  0.40545742481E+02 -0.15983480378E+03  0.18318943598E+03  0.47000000000E+01 0.  1.
        -11    1    3    3    0    0  0.21573793590E+02  0.31147142477E+02 -0.38759387689E+02  0.54202058894E+02  0.00000000000E+00 0.  1.
         11    1    3    3    0    0  0.16770220885E+02 -0.63853887306E+02 -0.28267303078E+02  0.71816430264E+02  0.00000000000E+00 0. -1.
<mgrwt>
<rscale>  0 0.13672397E+03</rscale>
<asrwt>0</asrwt>
<pdfrwt beam="1">  1        1 0.87873571E-02 0.14849703E+03</pdfrwt>
<pdfrwt beam="2">  1       -1 0.45554572E-01 0.14849703E+03</pdfrwt>
<totfact> 0.36028135E+03</totfact>
</mgrwt>
</event>
<event>
 7    1  0.5107591E-006  0.1320849E+03  0.7546771E-02  0.1236616E+00
         -1   -1    0    0    0  501 -0.00000000000E+00  0.00000000000E+00  0.11188816327E+02  0.11188816327E+02  0.00000000000E+00 0.  1.
          1   -1    0    0  501    0  0.00000000000E+00 -0.00000000000E+00 -0.12326094931E+04  0.12326094931E+04  0.00000000000E+00 0. -1.
         23    2    1    2    0    0  0.42662720133E+02  0.58119833104E+00 -0.51279095691E+03  0.52296372915E+03  0.93359793475E+02 0.  0.
          5    1    1    2  502    0 -0.12907622539E+02 -0.17078809746E+02 -0.66475149039E+03  0.66511271709E+03  0.47000000000E+01 0.  1.
         -5    1    1    2    0  502 -0.29755097594E+02  0.16497611415E+02 -0.43878229479E+02  0.55721863191E+02  0.47000000000E+01 0.  1.
        -11    1    3    3    0    0  0.58002226928E+02 -0.32049101517E+02 -0.35145298208E+03  0.35764591686E+03  0.00000000000E+00 0.  1.
         11    1    3    3    0    0 -0.15339506795E+02  0.32630299848E+02 -0.16133797483E+03  0.16531781229E+03  0.00000000000E+00 0. -1.
<mgrwt>
<rscale>  0 0.12401575E+03</rscale>
<asrwt>0</asrwt>
<pdfrwt beam="2">  1        1 0.18963207E+00 0.13208487E+03</pdfrwt>
<pdfrwt beam="1">  1       -1 0.17213578E-02 0.13208487E+03</pdfrwt>
<totfact> 0.89911757E+03</totfact>
</mgrwt>
</event>
<event>
 7    1  0.5107591E-006  0.1424821E+03  0.7546771E-02  0.1216965E+00
         -1   -1    0    0    0  501 -0.00000000000E+00  0.00000000000E+00  0.10972558722E+03  0.10972558722E+03  0.00000000000E+00 0.  1.
          1   -1    0    0  501    0  0.00000000000E+00 -0.00000000000E+00 -0.16471385376E+03  0.16471385376E+03  0.00000000000E+00 0. -1.
         23    2    1    2    0    0 -0.62312955924E+02  0.51635226788E+02 -0.47284634825E+02  0.13174923279E+03  0.92590077914E+02 0.  0.
          5    1    1    2  502    0  0.18981921131E+02 -0.68123910737E+02 -0.44175277311E+02  0.83514823052E+02  0.47000000000E+01 0. -1.
         -5    1    1    2    0  502  0.43331034794E+02  0.16488683950E+02  0.36471645588E+02  0.59175385141E+02  0.47000000000E+01 0.  1.
        -11    1    3    3    0    0 -0.57253740092E+02  0.19587378412E+01 -0.57073434740E+02  0.80865347100E+02  0.00000000000E+00 0. -1.
         11    1    3    3    0    0 -0.50592158317E+01  0.49676488947E+02  0.97887999152E+01  0.50883885688E+02  0.00000000000E+00 0.  1.
<mgrwt>
<rscale>  0 0.13733191E+03</rscale>
<asrwt>0</asrwt>
<pdfrwt beam="2">  1        1 0.25340593E-01 0.14248210E+03</pdfrwt>
<pdfrwt beam="1">  1       -1 0.16880860E-01 0.14248210E+03</pdfrwt>
<totfact> 0.47937119E+03</totfact>
</mgrwt>
</event>
<event>
 7    1  0.5107591E-006  0.1395610E+03  0.7546771E-02  0.1226034E+00
         -4   -1    0    0    0  501 -0.00000000000E+00  0.00000000000E+00  0.90660080201E+02  0.90660080201E+02  0.00000000000E+00 0.  1.
          4   -1    0    0  501    0  0.00000000000E+00 -0.00000000000E+00 -0.17423223243E+03  0.17423223243E+03  0.00000000000E+00 0. -1.
         23    2    1    2    0    0  0.67408023110E+01 -0.61697032028E+02 -0.58765825468E+02  0.12314383229E+03  0.88651108344E+02 0.  0.
          5    1    1    2  502    0 -0.11894870316E+02 -0.29402194469E+02 -0.37684826650E+02  0.49479421370E+02  0.47000000000E+01 0. -1.
         -5    1    1    2    0  502  0.51540680053E+01  0.91099226497E+02  0.12878499885E+02  0.92269058978E+02  0.47000000000E+01 0. -1.
        -11    1    3    3    0    0  0.46890378771E+02 -0.42894169108E+02 -0.29835837600E+02  0.70205374225E+02  0.00000000000E+00 0.  1.
         11    1    3    3    0    0 -0.40149576460E+02 -0.18802862919E+02 -0.28929987868E+02  0.52938458062E+02  0.00000000000E+00 0. -1.
<mgrwt>
<rscale>  0 0.13096259E+03</rscale>
<asrwt>0</asrwt>
<pdfrwt beam="2">  1        4 0.26804959E-01 0.13956102E+03</pdfrwt>
<pdfrwt beam="1">  1       -4 0.13947705E-01 0.13956102E+03</pdfrwt>
<totfact> 0.93545936E+02</totfact>
</mgrwt>
</event>
<event>
 7    1  0.5107591E-006  0.1576885E+03  0.7546771E-02  0.1199835E+00
         -1   -1    0    0    0  501 -0.00000000000E+00  0.00000000000E+00  0.80503066337E+02  0.80503066337E+02  0.00000000000E+00 0.  1.
          1   -1    0    0  501    0  0.00000000000E+00 -0.00000000000E+00 -0.27025990996E+03  0.27025990996E+03  0.00000000000E+00 0. -1.
         23    2    1    2    0    0 -0.57318341611E+02 -0.77169564095E+02 -0.12264627813E+03  0.17938764046E+03  0.88866653483E+02 0.  0.
          5    1    1    2  502    0  0.62296862348E+02  0.10871649622E+03 -0.52299114414E+02  0.13585824589E+03  0.47000000000E+01 0.  1.
         -5    1    1    2    0  502 -0.49785207371E+01 -0.31546932125E+02 -0.14811451077E+02  0.35517089946E+02  0.47000000000E+01 0.  1.
        -11    1    3    3    0    0 -0.34226592931E+01 -0.67772124522E+02 -0.35739734493E+02  0.76694876494E+02  0.00000000000E+00 0.  1.
         11    1    3    3    0    0 -0.53895682318E+02 -0.93974395736E+01 -0.86906543638E+02  0.10269276396E+03  0.00000000000E+00 0. -1.
<mgrwt>
<rscale>  0 0.15052012E+03</rscale>
<asrwt>0</asrwt>
<pdfrwt beam="2">  1        1 0.41578449E-01 0.15768855E+03</pdfrwt>
<pdfrwt beam="1">  1       -1 0.12385087E-01 0.15768855E+03</pdfrwt>
<totfact> 0.42263412E+03</totfact>
</mgrwt>
</event>
<event>
 7    1  0.5107591E-006  0.6163338E+03  0.7546771E-02  0.9881241E-01
          1   -1    0    0  501    0  0.00000000000E+00  0.00000000000E+00  0.71759027626E+03  0.71759027626E+03  0.00000000000E+00 0. -1.
         -1   -1    0    0    0  501 -0.00000000000E+00 -0.00000000000E+00 -0.10057794335E+04  0.10057794335E+04  0.00000000000E+00 0.  1.
         23    2    1    2    0    0 -0.50630610736E+03 -0.30544742809E+03  0.45946982666E+03  0.75442118060E+03  0.91623089113E+02 0.  0.
          5    1    1    2  502    0  0.17519916432E+03  0.88071384443E+02 -0.13045227200E+03  0.23556570464E+03  0.47000000000E+01 0. -1.
         -5    1    1    2    0  502  0.33110694304E+03  0.21737604365E+03 -0.61720671192E+03  0.73338282453E+03  0.47000000000E+01 0.  1.
        -11    1    3    3    0    0 -0.45127342194E+03 -0.24780705089E+03  0.36646804334E+03  0.63194530033E+03  0.00000000000E+00 0. -1.
         11    1    3    3    0    0 -0.55032685414E+02 -0.57640377199E+02  0.93001783319E+02  0.12247588027E+03  0.00000000000E+00 0.  1.
<mgrwt>
<rscale>  0 0.61179120E+03</rscale>
<asrwt>0</asrwt>
<pdfrwt beam="1">  1        1 0.11039850E+00 0.61633375E+03</pdfrwt>
<pdfrwt beam="2">  1       -1 0.15473530E+00 0.61633375E+03</pdfrwt>
<totfact> 0.88500813E+00</totfact>
</mgrwt>
</event>
<event>
 7    1  0.5107591E-006  0.1475523E+03  0.7546771E-02  0.1216029E+00
         -1   -1    0    0    0  501 -0.00000000000E+00  0.00000000000E+00  0.39348272545E+02  0.39348272545E+02  0.00000000000E+00 0.  1.
          1   -1    0    0  501    0  0.00000000000E+00 -0.00000000000E+00 -0.44067909208E+03  0.44067909208E+03  0.00000000000E+00 0. -1.
         23    2    1    2    0    0  0.21104429949E+02 -0.75519160660E+02 -0.20963477128E+03  0.23812024579E+03  0.81277140314E+02 0.  0.
          5    1    1    2  502    0 -0.29128576243E+02  0.10745838696E+02 -0.17013581263E+03  0.17300934005E+03  0.47000000000E+01 0. -1.
         -5    1    1    2    0  502  0.80241462939E+01  0.64773321964E+02 -0.21560235632E+02  0.68897778792E+02  0.47000000000E+01 0. -1.
        -11    1    3    3    0    0 -0.40727663974E+01 -0.35928091534E+02 -0.17185875061E+02  0.40034603645E+02  0.00000000000E+00 0.  1.
         11    1    3    3    0    0  0.25177196346E+02 -0.39591069126E+02 -0.19244889622E+03  0.19808564215E+03  0.00000000000E+00 0. -1.
<mgrwt>
<rscale>  0 0.13801219E+03</rscale>
<asrwt>0</asrwt>
<pdfrwt beam="2">  1        1 0.67796779E-01 0.14755229E+03</pdfrwt>
<pdfrwt beam="1">  1       -1 0.60535808E-02 0.14755229E+03</pdfrwt>
<totfact> 0.67718084E+03</totfact>
</mgrwt>
</event>
<event>
 7    1  0.5107591E-006  0.1334049E+03  0.7546771E-02  0.1235708E+00
         -1   -1    0    0    0  501 -0.00000000000E+00  0.00000000000E+00  0.25869537074E+03  0.25869537074E+03  0.00000000000E+00 0.  1.
          1   -1    0    0  501    0  0.00000000000E+00 -0.00000000000E+00 -0.53439687998E+02  0.53439687998E+02  0.00000000000E+00 0. -1.
         23    2    1    2    0    0  0.46592080675E+02  0.20458757054E+01  0.81517878818E+02  0.13017924626E+03  0.90146902344E+02 0.  0.
          5    1    1    2  502    0  0.33359767662E+02  0.24923317437E+02  0.70687424974E+02  0.82175713566E+02  0.47000000000E+01 0.  1.
         -5    1    1    2    0  502 -0.79951848337E+02 -0.26969193143E+02  0.53050378951E+02  0.99780098908E+02  0.47000000000E+01 0.  1.
        -11    1    3    3    0    0 -0.21992145956E+02 -0.38245974164E+01  0.49421885717E+02  0.54229187869E+02  0.00000000000E+00 0.  1.
         11    1    3    3    0    0  0.68584226631E+02  0.58704731218E+01  0.32095993101E+02  0.75950058396E+02  0.00000000000E+00 0. -1.
<mgrwt>
<rscale>  0 0.12459233E+03</rscale>
<asrwt>0</asrwt>
<pdfrwt beam="2">  1        1 0.82214906E-02 0.13340492E+03</pdfrwt>
<pdfrwt beam="1">  1       -1 0.39799287E-01 0.13340492E+03</pdfrwt>
<totfact> 0.49721187E+03</totfact>
</mgrwt>
</event>
<event>
 7    1  0.5107591E-006  0.1241001E+03  0.7546771E-02  0.1246958E+00
          1   -1    0    0  501    0  0.00000000000E+00  0.00000000000E+00  0.31415528432E+03  0.31415528432E+03  0.00000000000E+00 0. -1.
         -1   -1    0    0    0  501 -0.00000000000E+00 -0.00000000000E+00 -0.53197773892E+02  0.53197773892E+02  0.00000000000E+00 0.  1.
         23    2    1    2    0    0 -0.37356914983E+02 -0.10378427208E+02  0.21084142063E+03  0.23351559359E+03  0.92586051593E+02 0.  0.
          5    1    1    2  502    0  0.27343144505E+02 -0.44297407460E+02 -0.84601005629E+01  0.52948759765E+02  0.47000000000E+01 0. -1.
         -5    1    1    2    0  502  0.10013770478E+02  0.54675834668E+02  0.58576190366E+02  0.80888704858E+02  0.47000000000E+01 0.  1.
        -11    1    3    3    0    0  0.28267167017E+02  0.12419860770E+02  0.62277090099E+02  0.69510586417E+02  0.00000000000E+00 0.  1.
         11    1    3    3    0    0 -0.65624082000E+02 -0.22798287978E+02  0.14856433053E+03  0.16400500717E+03  0.00000000000E+00 0. -1.
<mgrwt>
<rscale>  0 0.11768934E+03</rscale>
<asrwt>0</asrwt>
<pdfrwt beam="1">  1        1 0.48331581E-01 0.12410014E+03</pdfrwt>
<pdfrwt beam="2">  1       -1 0.81842731E-02 0.12410014E+03</pdfrwt>
<totfact> 0.65151850E+03</totfact>
</mgrwt>
</event>
<event>
 7    1  0.5107591E-006  0.1881055E+03  0.7546771E-02  0.1165390E+00
          3   -1    0    0  501    0  0.00000000000E+00  0.00000000000E+00  0.48920230826E+02  0.48920230826E+02  0.00000000000E+00 0. -1.
         -3   -1    0    0    0  501 -0.00000000000E+00 -0.00000000000E+00 -0.64341585727E+03  0.64341585727E+03  0.00000000000E+00 0.  1.
         23    2    1    2    0    0 -0.53208769384E+02 -0.13010194881E+03 -0.28032459643E+03  0.32615703569E+03  0.89659591488E+02 0.  0.
          5    1    1    2  502    0  0.33811368309E+00  0.28968659868E+02  0.25820582638E+01  0.29462766338E+02  0.47000000000E+01 0. -1.
         -5    1    1    2    0  502  0.52870655701E+02  0.10113328894E+03 -0.31675308828E+03  0.33671628606E+03  0.47000000000E+01 0. -1.
        -11    1    3    3    0    0 -0.23732764874E+02  0.72085439911E+01 -0.28188928683E+02  0.37547608916E+02  0.00000000000E+00 0. -1.
         11    1    3    3    0    0 -0.29476004510E+02 -0.13731049280E+03 -0.25213566774E+03  0.28860942678E+03  0.00000000000E+00 0.  1.
<mgrwt>
<rscale>  0 0.18251555E+03</rscale>
<asrwt>0</asrwt>
<pdfrwt beam="1">  1        3 0.75261891E-02 0.18810546E+03</pdfrwt>
<pdfrwt beam="2">  1       -3 0.98987059E-01 0.18810546E+03</pdfrwt>
<totfact> 0.26492874E+02</totfact>
</mgrwt>
</event>
<event>
 7    1  0.5107591E-006  0.1432009E+03  0.7546771E-02  0.1220911E+00
         -1   -1    0    0    0  501 -0.00000000000E+00  0.00000000000E+00  0.18918452930E+03  0.18918452930E+03  0.00000000000E+00 0.  1.
          1   -1    0    0  501    0  0.00000000000E+00 -0.00000000000E+00 -0.91190981094E+02  0.91190981094E+02  0.00000000000E+00 0. -1.
         23    2    1    2    0    0 -0.69587317595E+02 -0.67948372965E+01  0.91550636736E+01  0.11185616244E+03  0.86829841070E+02 0.  0.
          5    1    1    2  502    0 -0.10834415666E+02  0.27006675769E+02 -0.16965744175E+02  0.34009874659E+02  0.47000000000E+01 0.  1.
         -5    1    1    2    0  502  0.80421733261E+02 -0.20211838473E+02  0.10580422871E+03  0.13450947330E+03  0.47000000000E+01 0.  1.
        -11    1    3    3    0    0 -0.52168388397E+02  0.36745945846E+02 -0.12370364785E+01  0.63822688311E+02  0.00000000000E+00 0. -1.
         11    1    3    3    0    0 -0.17418929198E+02 -0.43540783142E+02  0.10392100152E+02  0.48033474126E+02  0.00000000000E+00 0.  1.
<mgrwt>
<rscale>  0 0.13451149E+03</rscale>
<asrwt>0</asrwt>
<pdfrwt beam="2">  1        1 0.14029382E-01 0.14320089E+03</pdfrwt>
<pdfrwt beam="1">  1       -1 0.29105312E-01 0.14320089E+03</pdfrwt>
<totfact> 0.42109830E+03</totfact>
</mgrwt>
</event>
<event>
 7    1  0.5107591E-006  0.1358610E+03  0.7546771E-02  0.1231357E+00
          2   -1    0    0  501    0  0.00000000000E+00  0.00000000000E+00  0.43740040676E+03  0.43740040676E+03  0.00000000000E+00 0.  1.
         -2   -1    0    0    0  501 -0.00000000000E+00 -0.00000000000E+00 -0.33883759503E+02  0.33883759503E+02  0.00000000000E+00 0. -1.
         23    2    1    2    0    0 -0.47107735801E+02 -0.24788651015E+02  0.21026640920E+03  0.23505577563E+03  0.90584981250E+02 0.  0.
          5    1    1    2  502    0  0.57892250891E+02 -0.20320171410E+00  0.20977392742E+02  0.61755121329E+02  0.47000000000E+01 0.  1.
         -5    1    1    2    0  502 -0.10784515090E+02  0.24991852729E+02  0.17227284532E+03  0.17447326931E+03  0.47000000000E+01 0.  1.
        -11    1    3    3    0    0 -0.47259957226E+01 -0.38619451857E+02  0.17186981552E+03  0.17621870101E+03  0.00000000000E+00 0.  1.
         11    1    3    3    0    0 -0.42381740078E+02  0.13830800843E+02  0.38396593674E+02  0.58837074619E+02  0.00000000000E+00 0. -1.
<mgrwt>
<rscale>  0 0.12740558E+03</rscale>
<asrwt>0</asrwt>
<pdfrwt beam="1">  1        2 0.67292366E-01 0.13586095E+03</pdfrwt>
<pdfrwt beam="2">  1       -2 0.52128864E-02 0.13586095E+03</pdfrwt>
<totfact> 0.12577289E+04</totfact>
</mgrwt>
</event>
<event>
 7    1  0.5107591E-006  0.1313286E+03  0.7546771E-02  0.1238031E+00
         -1   -1    0    0    0  501 -0.00000000000E+00  0.00000000000E+00  0.13793122676E+03  0.13793122676E+03  0.00000000000E+00 0.  1.
          1   -1    0    0  501    0  0.00000000000E+00 -0.00000000000E+00 -0.10873146323E+03  0.10873146323E+03  0.00000000000E+00 0. -1.
         23    2    1    2    0    0 -0.55450143525E+00 -0.49823450652E+02 -0.25154783124E+02  0.10453027356E+03  0.88380604600E+02 0.  0.
          5    1    1    2  502    0  0.44352340049E+02  0.19221071937E+01  0.62224838211E+02  0.76582276371E+02  0.47000000000E+01 0. -1.
         -5    1    1    2    0  502 -0.43797838613E+02  0.47901343459E+02 -0.78702915550E+01  0.65550140057E+02  0.47000000000E+01 0.  1.
        -11    1    3    3    0    0 -0.37259987059E+02 -0.46412847659E+02 -0.31158181739E+02  0.67181034175E+02  0.00000000000E+00 0.  1.
         11    1    3    3    0    0  0.36705485624E+02 -0.34106029933E+01  0.60033986153E+01  0.37349239384E+02  0.00000000000E+00 0. -1.
<mgrwt>
<rscale>  0 0.12312368E+03</rscale>
<asrwt>0</asrwt>
<pdfrwt beam="2">  1        1 0.16727917E-01 0.13132862E+03</pdfrwt>
<pdfrwt beam="1">  1       -1 0.21220189E-01 0.13132862E+03</pdfrwt>
<totfact> 0.56065712E+03</totfact>
</mgrwt>
</event>
<event>
 7    1  0.5107591E-006  0.1807958E+03  0.7546771E-02  0.1185192E+00
         -1   -1    0    0    0  501 -0.00000000000E+00  0.00000000000E+00  0.85417243022E+02  0.85417243022E+02  0.00000000000E+00 0.  1.
          1   -1    0    0  501    0  0.00000000000E+00 -0.00000000000E+00 -0.31029070956E+03  0.31029070956E+03  0.00000000000E+00 0. -1.
         23    2    1    2    0    0  0.18346503273E+00  0.78357646379E+02 -0.16760092638E+03  0.20605761762E+03  0.90717786840E+02 0.  0.
          5    1    1    2  502    0  0.49796347012E+01 -0.55469020178E+02 -0.11461454583E+03  0.12751546211E+03  0.47000000000E+01 0. -1.
         -5    1    1    2    0  502 -0.51630997339E+01 -0.22888626201E+02  0.57342005680E+02  0.62134872847E+02  0.47000000000E+01 0.  1.
        -11    1    3    3    0    0  0.26217445994E+01  0.98988816917E+02 -0.14123346236E+03  0.17248927593E+03  0.00000000000E+00 0.  1.
         11    1    3    3    0    0 -0.24382795666E+01 -0.20631170538E+02 -0.26367464020E+02  0.33568341691E+02  0.00000000000E+00 0. -1.
<mgrwt>
<rscale>  0 0.16314435E+03</rscale>
<asrwt>0</asrwt>
<pdfrwt beam="2">  1        1 0.47737032E-01 0.18079576E+03</pdfrwt>
<pdfrwt beam="1">  1       -1 0.13141114E-01 0.18079576E+03</pdfrwt>
<totfact> 0.32648472E+03</totfact>
</mgrwt>
</event>
<event>
 7    1  0.5107591E-006  0.1307646E+03  0.7546771E-02  0.1241174E+00
         -1   -1    0    0    0  501 -0.00000000000E+00  0.00000000000E+00  0.48383590299E+02  0.48383590299E+02  0.00000000000E+00 0.  1.
          1   -1    0    0  501    0  0.00000000000E+00 -0.00000000000E+00 -0.29544847427E+03  0.29544847427E+03  0.00000000000E+00 0. -1.
         23    2    1    2    0    0 -0.25709288892E+02  0.28523130684E+02 -0.53583887785E+02  0.11030633055E+03  0.88440471559E+02 0.  0.
          5    1    1    2  502    0 -0.74473882854E+01 -0.62557915728E+02 -0.45018186675E+02  0.77573729728E+02  0.47000000000E+01 0.  1.
         -5    1    1    2    0  502  0.33156677178E+02  0.34034785044E+02 -0.14846280951E+03  0.15595200429E+03  0.47000000000E+01 0.  1.
        -11    1    3    3    0    0 -0.30032147075E+01  0.28039877929E+02 -0.74358734716E+02  0.79526570915E+02  0.00000000000E+00 0. -1.
         11    1    3    3    0    0 -0.22706074185E+02  0.48325275510E+00  0.20774846931E+02  0.30779759634E+02  0.00000000000E+00 0.  1.
<mgrwt>
<rscale>  0 0.12117306E+03</rscale>
<asrwt>0</asrwt>
<pdfrwt beam="2">  1        1 0.45453611E-01 0.13076457E+03</pdfrwt>
<pdfrwt beam="1">  1       -1 0.74436293E-02 0.13076457E+03</pdfrwt>
<totfact> 0.81363601E+03</totfact>
</mgrwt>
</event>
<event>
 7    1  0.5107591E-006  0.1357224E+03  0.7546771E-02  0.1230799E+00
          3   -1    0    0  501    0  0.00000000000E+00  0.00000000000E+00  0.13813953057E+03  0.13813953057E+03  0.00000000000E+00 0. -1.
         -3   -1    0    0    0  501 -0.00000000000E+00 -0.00000000000E+00 -0.11309822786E+03  0.11309822786E+03  0.00000000000E+00 0.  1.
         23    2    1    2    0    0 -0.14523323624E+02  0.50762507712E+02  0.41745044886E+02  0.11449135506E+03  0.92616750610E+02 0.  0.
          5    1    1    2  502    0  0.46748850866E+02  0.24742684266E+02 -0.11637122024E+02  0.54361457771E+02  0.47000000000E+01 0. -1.
         -5    1    1    2    0  502 -0.32225527243E+02 -0.75505191978E+02 -0.50666201467E+01  0.82384945600E+02  0.47000000000E+01 0. -1.
        -11    1    3    3    0    0 -0.64538328142E+01  0.77010026384E+02  0.39892451747E+02  0.86968981988E+02  0.00000000000E+00 0.  1.
         11    1    3    3    0    0 -0.80694908094E+01 -0.26247518672E+02  0.18525931388E+01  0.27522373076E+02  0.00000000000E+00 0. -1.
<mgrwt>
<rscale>  0 0.12777260E+03</rscale>
<asrwt>0</asrwt>
<pdfrwt beam="1">  1        3 0.21252235E-01 0.13572238E+03</pdfrwt>
<pdfrwt beam="2">  1       -3 0.17399727E-01 0.13572238E+03</pdfrwt>
<totfact> 0.13289729E+03</totfact>
</mgrwt>
</event>
<event>
 7    1  0.5107591E-006  0.1581042E+03  0.7546771E-02  0.1199145E+00
         -2   -1    0    0    0  501 -0.00000000000E+00  0.00000000000E+00  0.26938796650E+03  0.26938796650E+03  0.00000000000E+00 0.  1.
          2   -1    0    0  501    0  0.00000000000E+00 -0.00000000000E+00 -0.84876944529E+02  0.84876944529E+02  0.00000000000E+00 0. -1.
         23    2    1    2    0    0 -0.92090601311E+02  0.29860074466E+02  0.34420935215E+02  0.13626499352E+03  0.89504440011E+02 0.  0.
          5    1    1    2  502    0  0.49610688850E+02  0.19842963934E+02  0.14219408569E+03  0.15197437834E+03  0.47000000000E+01 0.  1.
         -5    1    1    2    0  502  0.42479912461E+02 -0.49703038400E+02  0.78960010600E+01  0.66025539162E+02  0.47000000000E+01 0.  1.
        -11    1    3    3    0    0 -0.93365711151E+02  0.44418735995E+02  0.50047701576E+02  0.11486928466E+03  0.00000000000E+00 0.  1.
         11    1    3    3    0    0  0.12751098403E+01 -0.14558661529E+02 -0.15626766362E+02  0.21395708858E+02  0.00000000000E+00 0. -1.
<mgrwt>
<rscale>  0 0.15108598E+03</rscale>
<asrwt>0</asrwt>
<pdfrwt beam="2">  1        2 0.13057992E-01 0.15810417E+03</pdfrwt>
<pdfrwt beam="1">  1       -2 0.41444302E-01 0.15810417E+03</pdfrwt>
<totfact> 0.24921458E+03</totfact>
</mgrwt>
</event>
<event>
 7    1  0.5107591E-006  0.1456842E+03  0.7546771E-02  0.1226098E+00
         -2   -1    0    0    0  501 -0.00000000000E+00  0.00000000000E+00  0.23097408376E+02  0.23097408376E+02  0.00000000000E+00 0.  1.
          2   -1    0    0  501    0  0.00000000000E+00 -0.00000000000E+00 -0.63647030418E+03  0.63647030418E+03  0.00000000000E+00 0. -1.
         23    2    1    2    0    0  0.77179557736E+01  0.27285421079E+02 -0.28227439953E+03  0.29783563449E+03  0.90681682247E+02 0.  0.
          5    1    1    2  502    0 -0.58815596826E+02  0.24793692126E+01 -0.27072760361E+03  0.27709375139E+03  0.47000000000E+01 0. -1.
         -5    1    1    2    0  502  0.51097641053E+02 -0.29764790291E+02 -0.60370892659E+02  0.84638326677E+02  0.47000000000E+01 0.  1.
        -11    1    3    3    0    0  0.49145871568E+02  0.18387250169E+02 -0.16486526825E+03  0.17301434720E+03  0.00000000000E+00 0. -1.
         11    1    3    3    0    0 -0.41427915794E+02  0.88981709092E+01 -0.11740913128E+03  0.12482128729E+03  0.00000000000E+00 0.  1.
<mgrwt>
<rscale>  0 0.13091928E+03</rscale>
<asrwt>0</asrwt>
<pdfrwt beam="2">  1        2 0.97918500E-01 0.14568419E+03</pdfrwt>
<pdfrwt beam="1">  1       -2 0.35534477E-02 0.14568419E+03</pdfrwt>
<totfact> 0.14758058E+04</totfact>
</mgrwt>
</event>
<event>
 7    1  0.5107591E-006  0.1568137E+03  0.7546771E-02  0.1200361E+00
          1   -1    0    0  501    0  0.00000000000E+00  0.00000000000E+00  0.72330965298E+02  0.72330965298E+02  0.00000000000E+00 0. -1.
         -1   -1    0    0    0  501 -0.00000000000E+00 -0.00000000000E+00 -0.38762420140E+03  0.38762420140E+03  0.00000000000E+00 0.  1.
         23    2    1    2    0    0 -0.82946272438E+02  0.45620218702E+02 -0.30881375870E+02  0.13517734660E+03  0.91421918550E+02 0.  0.
          5    1    1    2  502    0 -0.19490485750E+02 -0.24645588970E+02 -0.15556130271E+03  0.15877245665E+03  0.47000000000E+01 0. -1.
         -5    1    1    2    0  502  0.10243675819E+03 -0.20974629732E+02 -0.12885055752E+03  0.16600536345E+03  0.47000000000E+01 0. -1.
        -11    1    3    3    0    0 -0.94161741554E+02  0.11130863801E+02 -0.27649590671E+02  0.98766540719E+02  0.00000000000E+00 0. -1.
         11    1    3    3    0    0  0.11215469116E+02  0.34489354901E+02 -0.32317851992E+01  0.36410805877E+02  0.00000000000E+00 0.  1.
<mgrwt>
<rscale>  0 0.15009080E+03</rscale>
<asrwt>0</asrwt>
<pdfrwt beam="1">  1        1 0.11127841E-01 0.15681367E+03</pdfrwt>
<pdfrwt beam="2">  1       -1 0.59634492E-01 0.15681367E+03</pdfrwt>
<totfact> 0.16037619E+03</totfact>
</mgrwt>
</event>
<event>
 7    1  0.5107591E-006  0.1536357E+03  0.7546771E-02  0.1208075E+00
          1   -1    0    0  501    0  0.00000000000E+00  0.00000000000E+00  0.14408476360E+03  0.14408476360E+03  0.00000000000E+00 0. -1.
         -1   -1    0    0    0  501 -0.00000000000E+00 -0.00000000000E+00 -0.14483200640E+03  0.14483200640E+03  0.00000000000E+00 0.  1.
         23    2    1    2    0    0  0.32974006906E+02  0.83019383810E+02  0.47829315589E+02  0.12778447330E+03  0.77857080385E+02 0.  0.
          5    1    1    2  502    0 -0.53363052497E+02  0.12226036639E+02 -0.80662009981E+01  0.55535978809E+02  0.47000000000E+01 0. -1.
         -5    1    1    2    0  502  0.20389045592E+02 -0.95245420449E+02 -0.40510357396E+02  0.10559631790E+03  0.47000000000E+01 0. -1.
        -11    1    3    3    0    0  0.46235456219E+02  0.91539046130E+02  0.43803312633E+02  0.11151611801E+03  0.00000000000E+00 0. -1.
         11    1    3    3    0    0 -0.13261449314E+02 -0.85196623193E+01  0.40260029558E+01  0.16268355287E+02  0.00000000000E+00 0.  1.
<mgrwt>
<rscale>  0 0.14397755E+03</rscale>
<asrwt>0</asrwt>
<pdfrwt beam="1">  1        1 0.22166887E-01 0.15363572E+03</pdfrwt>
<pdfrwt beam="2">  1       -1 0.22281847E-01 0.15363572E+03</pdfrwt>
<totfact> 0.36504569E+03</totfact>
</mgrwt>
</event>
<event>
 7    1  0.5107591E-006  0.2775961E+03  0.7546771E-02  0.1098982E+00
         -3   -1    0    0    0  501 -0.00000000000E+00  0.00000000000E+00  0.61508392482E+03  0.61508392482E+03  0.00000000000E+00 0.  1.
          3   -1    0    0  501    0  0.00000000000E+00 -0.00000000000E+00 -0.12486580078E+03  0.12486580078E+03  0.00000000000E+00 0. -1.
         23    2    1    2    0    0  0.24199790961E+03  0.53593559137E+02  0.15952894821E+03  0.30819178711E+03  0.89985746030E+02 0.  0.
          5    1    1    2  502    0  0.13364790628E+02  0.44460731930E+00  0.32390811787E+02  0.35356328887E+02  0.47000000000E+01 0. -1.
         -5    1    1    2    0  502 -0.25536270023E+03 -0.54038166457E+02  0.29829836405E+03  0.39640160961E+03  0.47000000000E+01 0. -1.
        -11    1    3    3    0    0  0.11200316503E+03  0.60092254697E+02  0.45049190015E+02  0.13485257718E+03  0.00000000000E+00 0. -1.
         11    1    3    3    0    0  0.12999474458E+03 -0.64986955600E+01  0.11447975820E+03  0.17333920993E+03  0.00000000000E+00 0.  1.
<mgrwt>
<rscale>  0 0.27405241E+03</rscale>
<asrwt>0</asrwt>
<pdfrwt beam="2">  1        3 0.19210124E-01 0.27759609E+03</pdfrwt>
<pdfrwt beam="1">  1       -3 0.94628294E-01 0.27759609E+03</pdfrwt>
<totfact> 0.61859143E+01</totfact>
</mgrwt>
</event>
<event>
 7    1  0.5107591E-006  0.1446480E+03  0.7546771E-02  0.1217260E+00
          2   -1    0    0  501    0  0.00000000000E+00  0.00000000000E+00  0.12051477901E+03  0.12051477901E+03  0.00000000000E+00 0. -1.
         -2   -1    0    0    0  501 -0.00000000000E+00 -0.00000000000E+00 -0.23245793907E+03  0.23245793907E+03  0.00000000000E+00 0.  1.
         23    2    1    2    0    0 -0.68858526373E+02 -0.23615138738E+02  0.57498748876E+02  0.13018671462E+03  0.91341683305E+02 0.  0.
          5    1    1    2  502    0 -0.25339538813E+02  0.36244462316E+02 -0.28823020520E+02  0.52996318624E+02  0.47000000000E+01 0. -1.
         -5    1    1    2    0  502  0.94198065186E+02 -0.12629323578E+02 -0.14061888842E+03  0.16978968484E+03  0.47000000000E+01 0. -1.
        -11    1    3    3    0    0  0.16198403702E+02  0.15779135495E+02  0.15842287405E+02  0.27610640515E+02  0.00000000000E+00 0. -1.
         11    1    3    3    0    0 -0.85056930075E+02 -0.39394274233E+02  0.41656461472E+02  0.10257607410E+03  0.00000000000E+00 0.  1.
<mgrwt>
<rscale>  0 0.13711847E+03</rscale>
<asrwt>0</asrwt>
<pdfrwt beam="1">  1        2 0.18540735E-01 0.14464800E+03</pdfrwt>
<pdfrwt beam="2">  1       -2 0.35762760E-01 0.14464800E+03</pdfrwt>
<totfact> 0.21740387E+03</totfact>
</mgrwt>
</event>
<event>
 7    1  0.5107591E-006  0.1622434E+03  0.7546771E-02  0.1193241E+00
          1   -1    0    0  501    0  0.00000000000E+00  0.00000000000E+00  0.34882642106E+03  0.34882642106E+03  0.00000000000E+00 0. -1.
         -1   -1    0    0    0  501 -0.00000000000E+00 -0.00000000000E+00 -0.95052228759E+02  0.95052228759E+02  0.00000000000E+00 0.  1.
         23    2    1    2    0    0  0.46070323984E+02 -0.92633435758E+02  0.24475923522E+03  0.28138495911E+03  0.92558002428E+02 0.  0.
          5    1    1    2  502    0 -0.51722161160E+02  0.11797602953E+03 -0.11006465733E+02  0.12937062181E+03  0.47000000000E+01 0.  1.
         -5    1    1    2    0  502  0.56518371753E+01 -0.25342593771E+02  0.20021422817E+02  0.33123068911E+02  0.47000000000E+01 0.  1.
        -11    1    3    3    0    0  0.35007283603E+02 -0.49208630926E+02  0.41574640733E+02  0.73317460505E+02  0.00000000000E+00 0.  1.
         11    1    3    3    0    0  0.11063040381E+02 -0.43424804832E+02  0.20318459449E+03  0.20806749860E+03  0.00000000000E+00 0. -1.
<mgrwt>
<rscale>  0 0.15604028E+03</rscale>
<asrwt>0</asrwt>
<pdfrwt beam="1">  1        1 0.53665603E-01 0.16224343E+03</pdfrwt>
<pdfrwt beam="2">  1       -1 0.14623420E-01 0.16224343E+03</pdfrwt>
<totfact> 0.23753489E+03</totfact>
</mgrwt>
</event>
<event>
 7    1  0.5107591E-006  0.1365391E+03  0.7546771E-02  0.1231147E+00
          1   -1    0    0  501    0  0.00000000000E+00  0.00000000000E+00  0.87458959659E+03  0.87458959659E+03  0.00000000000E+00 0. -1.
         -1   -1    0    0    0  501 -0.00000000000E+00 -0.00000000000E+00 -0.16647862493E+02  0.16647862493E+02  0.00000000000E+00 0.  1.
         23    2    1    2    0    0 -0.44536620861E+02  0.32263913943E+02  0.33463292330E+03  0.35040934665E+03  0.88221574011E+02 0.  0.
          5    1    1    2  502    0  0.19721678908E+02 -0.78860844776E+02  0.36162711535E+03  0.37068077643E+03  0.47000000000E+01 0.  1.
         -5    1    1    2    0  502  0.24814941952E+02  0.46596930833E+02  0.16168169544E+03  0.17014733600E+03  0.47000000000E+01 0.  1.
        -11    1    3    3    0    0 -0.16163871759E+02 -0.27408726632E+02  0.59727985730E+02  0.67675263761E+02  0.00000000000E+00 0.  1.
         11    1    3    3    0    0 -0.28372749101E+02  0.59672640575E+02  0.27490493757E+03  0.28273408289E+03  0.00000000000E+00 0. -1.
<mgrwt>
<rscale>  0 0.12754358E+03</rscale>
<asrwt>0</asrwt>
<pdfrwt beam="1">  1        1 0.13455221E+00 0.13653914E+03</pdfrwt>
<pdfrwt beam="2">  1       -1 0.25612103E-02 0.13653914E+03</pdfrwt>
<totfact> 0.91894630E+03</totfact>
</mgrwt>
</event>
<event>
 7    1  0.5107591E-006  0.1386755E+03  0.7546771E-02  0.1226642E+00
         -3   -1    0    0    0  501 -0.00000000000E+00  0.00000000000E+00  0.27882714077E+03  0.27882714077E+03  0.00000000000E+00 0.  1.
          3   -1    0    0  501    0  0.00000000000E+00 -0.00000000000E+00 -0.11398700981E+03  0.11398700981E+03  0.00000000000E+00 0. -1.
         23    2    1    2    0    0 -0.20553870917E+02  0.56488654140E+02 -0.63193519532E+02  0.12592420350E+03  0.90829810416E+02 0.  0.
          5    1    1    2  502    0  0.22886329129E+02  0.34126348449E+02  0.11318252612E+03  0.12050214080E+03  0.47000000000E+01 0.  1.
         -5    1    1    2    0  502 -0.23324582123E+01 -0.90615002590E+02  0.11485112438E+03  0.14638780628E+03  0.47000000000E+01 0.  1.
        -11    1    3    3    0    0 -0.52825032824E+01  0.77473219801E+02 -0.28765529196E+02  0.82809783825E+02  0.00000000000E+00 0.  1.
         11    1    3    3    0    0 -0.15271367635E+02 -0.20984565660E+02 -0.34427990336E+02  0.43114419676E+02  0.00000000000E+00 0. -1.
<mgrwt>
<rscale>  0 0.13054985E+03</rscale>
<asrwt>0</asrwt>
<pdfrwt beam="2">  1        3 0.17536463E-01 0.13867551E+03</pdfrwt>
<pdfrwt beam="1">  1       -3 0.42896483E-01 0.13867551E+03</pdfrwt>
<totfact> 0.35759469E+02</totfact>
</mgrwt>
</event>
<event>
 7    1  0.5107591E-006  0.1335537E+03  0.7546771E-02  0.1235300E+00
         -3   -1    0    0    0  501 -0.00000000000E+00  0.00000000000E+00  0.14608987705E+03  0.14608987705E+03  0.00000000000E+00 0.  1.
          3   -1    0    0  501    0  0.00000000000E+00 -0.00000000000E+00 -0.10021439665E+03  0.10021439665E+03  0.00000000000E+00 0. -1.
         23    2    1    2    0    0 -0.43407725574E+02 -0.18107622893E+02 -0.79433021322E+01  0.10231448325E+03  0.90515417403E+02 0.  0.
          5    1    1    2  502    0  0.81988375100E+02  0.37266016716E+02  0.34704334155E+02  0.96629863203E+02  0.47000000000E+01 0. -1.
         -5    1    1    2    0  502 -0.38580649526E+02 -0.19158393823E+02  0.19114448382E+02  0.47359927245E+02  0.47000000000E+01 0. -1.
        -11    1    3    3    0    0 -0.43705407262E+02 -0.51651061714E+02 -0.11315876858E+02  0.68600611289E+02  0.00000000000E+00 0. -1.
         11    1    3    3    0    0  0.29768168740E+00  0.33543438821E+02  0.33725747263E+01  0.33713871961E+02  0.00000000000E+00 0.  1.
<mgrwt>
<rscale>  0 0.12485274E+03</rscale>
<asrwt>0</asrwt>
<pdfrwt beam="2">  1        3 0.15417600E-01 0.13355373E+03</pdfrwt>
<pdfrwt beam="1">  1       -3 0.22475366E-01 0.13355373E+03</pdfrwt>
<totfact> 0.14781775E+03</totfact>
</mgrwt>
</event>
<event>
 7    1  0.5107591E-006  0.1352562E+03  0.7546771E-02  0.1232567E+00
          1   -1    0    0  501    0  0.00000000000E+00  0.00000000000E+00  0.90937089216E+02  0.90937089216E+02  0.00000000000E+00 0. -1.
         -1   -1    0    0    0  501 -0.00000000000E+00 -0.00000000000E+00 -0.17956057953E+03  0.17956057953E+03  0.00000000000E+00 0.  1.
         23    2    1    2    0    0 -0.41792742520E+02  0.30391420697E+02  0.81536675691E+01  0.10418453052E+03  0.90098070602E+02 0.  0.
          5    1    1    2  502    0  0.25076447847E+02 -0.66496021920E+02 -0.10355229997E+03  0.12568101685E+03  0.47000000000E+01 0.  1.
         -5    1    1    2    0  502  0.16716294673E+02  0.36104601223E+02  0.67751420841E+01  0.40632121374E+02  0.47000000000E+01 0.  1.
        -11    1    3    3    0    0 -0.13593929658E+02  0.35415676876E+02  0.44133046639E+02  0.58196141605E+02  0.00000000000E+00 0. -1.
         11    1    3    3    0    0 -0.28198812862E+02 -0.50242561793E+01 -0.35979379070E+02  0.45988388917E+02  0.00000000000E+00 0.  1.
<mgrwt>
<rscale>  0 0.12661501E+03</rscale>
<asrwt>0</asrwt>
<pdfrwt beam="1">  1        1 0.13990321E-01 0.13525621E+03</pdfrwt>
<pdfrwt beam="2">  1       -1 0.27624705E-01 0.13525621E+03</pdfrwt>
<totfact> 0.45954472E+03</totfact>
</mgrwt>
</event>
<event>
 7    1  0.5107591E-006  0.1422494E+03  0.7546771E-02  0.1220530E+00
          1   -1    0    0  501    0  0.00000000000E+00  0.00000000000E+00  0.33691502231E+02  0.33691502231E+02  0.00000000000E+00 0. -1.
         -1   -1    0    0    0  501 -0.00000000000E+00 -0.00000000000E+00 -0.49736763723E+03  0.49736763723E+03  0.00000000000E+00 0.  1.
         23    2    1    2    0    0  0.67893863743E+02  0.55077780621E+00 -0.17452957706E+03  0.20881603429E+03  0.92377934702E+02 0.  0.
          5    1    1    2  502    0 -0.43027072631E+01 -0.56728480814E+02 -0.10825436480E+03  0.12238354188E+03  0.47000000000E+01 0.  1.
         -5    1    1    2    0  502 -0.63591156480E+02  0.56177703008E+02 -0.18089219314E+03  0.19985956329E+03  0.47000000000E+01 0.  1.
        -11    1    3    3    0    0  0.44357259164E+02  0.17232180313E+02 -0.17354456809E+03  0.17995063654E+03  0.00000000000E+00 0.  1.
         11    1    3    3    0    0  0.23536604579E+02 -0.16681402506E+02 -0.98500896945E+00  0.28865397752E+02  0.00000000000E+00 0. -1.
<mgrwt>
<rscale>  0 0.13478046E+03</rscale>
<asrwt>0</asrwt>
<pdfrwt beam="1">  1        1 0.51833086E-02 0.14224938E+03</pdfrwt>
<pdfrwt beam="2">  1       -1 0.76518090E-01 0.14224938E+03</pdfrwt>
<totfact> 0.27411757E+03</totfact>
</mgrwt>
</event>
<event>
 7    1  0.5107591E-006  0.1399431E+03  0.7546771E-02  0.1224433E+00
         -3   -1    0    0    0  501 -0.00000000000E+00  0.00000000000E+00  0.19473736816E+02  0.19473736816E+02  0.00000000000E+00 0.  1.
          3   -1    0    0  501    0  0.00000000000E+00 -0.00000000000E+00 -0.81568300714E+03  0.81568300714E+03  0.00000000000E+00 0. -1.
         23    2    1    2    0    0 -0.42614139210E+02 -0.46223727223E+02 -0.39217190781E+03  0.40757019116E+03  0.91444287028E+02 0.  0.
          5    1    1    2  502    0 -0.41478393577E+02  0.28122095026E+02 -0.10590381434E+03  0.11725620348E+03  0.47000000000E+01 0.  1.
         -5    1    1    2    0  502  0.84092532787E+02  0.18101632197E+02 -0.29813354818E+03  0.31033034932E+03  0.47000000000E+01 0.  1.
        -11    1    3    3    0    0 -0.69787363109E+02 -0.20393336443E+02 -0.23508894366E+03  0.24607514229E+03  0.00000000000E+00 0. -1.
         11    1    3    3    0    0  0.27173223899E+02 -0.25830390779E+02 -0.15708296414E+03  0.16149504887E+03  0.00000000000E+00 0.  1.
<mgrwt>
<rscale>  0 0.13205851E+03</rscale>
<asrwt>0</asrwt>
<pdfrwt beam="2">  1        3 0.12548969E+00 0.13994309E+03</pdfrwt>
<pdfrwt beam="1">  1       -3 0.29959597E-02 0.13994309E+03</pdfrwt>
<totfact> 0.63362558E+02</totfact>
</mgrwt>
</event>
<event>
 7    1  0.5107591E-006  0.1357065E+03  0.7546771E-02  0.1231410E+00
          1   -1    0    0  501    0  0.00000000000E+00  0.00000000000E+00  0.19459124426E+03  0.19459124426E+03  0.00000000000E+00 0. -1.
         -1   -1    0    0    0  501 -0.00000000000E+00 -0.00000000000E+00 -0.85681770381E+02  0.85681770381E+02  0.00000000000E+00 0.  1.
         23    2    1    2    0    0  0.20107337591E+02 -0.48827544260E+02  0.98450631844E+02  0.14416408417E+03  0.91117079350E+02 0.  0.
          5    1    1    2  502    0  0.50305033025E+02  0.96636385063E+01  0.19248943675E+02  0.54923529470E+02  0.47000000000E+01 0. -1.
         -5    1    1    2    0  502 -0.70412370616E+02  0.39163905754E+02 -0.87901016390E+01  0.81185401006E+02  0.47000000000E+01 0. -1.
        -11    1    3    3    0    0 -0.27830864557E+01 -0.39993570358E+02  0.10997653356E+03  0.11705583785E+03  0.00000000000E+00 0. -1.
         11    1    3    3    0    0  0.22890424046E+02 -0.88339739023E+01 -0.11525901718E+02  0.27108246316E+02  0.00000000000E+00 0.  1.
<mgrwt>
<rscale>  0 0.12737102E+03</rscale>
<asrwt>0</asrwt>
<pdfrwt beam="1">  1        1 0.29937114E-01 0.13570650E+03</pdfrwt>
<pdfrwt beam="2">  1       -1 0.13181811E-01 0.13570650E+03</pdfrwt>
<totfact> 0.57189166E+03</totfact>
</mgrwt>
</event>
<event>
 7    1  0.5107591E-006  0.1273334E+03  0.7546771E-02  0.1245847E+00
         -1   -1    0    0    0  501 -0.00000000000E+00  0.00000000000E+00  0.22218108120E+03  0.22218108120E+03  0.00000000000E+00 0.  1.
          1   -1    0    0  501    0  0.00000000000E+00 -0.00000000000E+00 -0.66780489583E+02  0.66780489583E+02  0.00000000000E+00 0. -1.
         23    2    1    2    0    0 -0.23975231568E+02  0.41007933235E+01  0.97838785797E+01  0.95524208888E+02  0.91855984939E+02 0.  0.
          5    1    1    2  502    0  0.49483820580E+02  0.45116973052E+02  0.53569845389E+02  0.85883689322E+02  0.47000000000E+01 0. -1.
         -5    1    1    2    0  502 -0.25508589011E+02 -0.49217766375E+02  0.92046867653E+02  0.10755367258E+03  0.47000000000E+01 0. -1.
        -11    1    3    3    0    0  0.25943570198E+02  0.20036741240E+02 -0.16724344265E+02  0.36800047897E+02  0.00000000000E+00 0. -1.
         11    1    3    3    0    0 -0.49918801766E+02 -0.15935947917E+02  0.26508222844E+02  0.58724160991E+02  0.00000000000E+00 0.  1.
<mgrwt>
<rscale>  0 0.11834844E+03</rscale>
<asrwt>0</asrwt>
<pdfrwt beam="2">  1        1 0.10273922E-01 0.12733337E+03</pdfrwt>
<pdfrwt beam="1">  1       -1 0.34181704E-01 0.12733337E+03</pdfrwt>
<totfact> 0.47932761E+03</totfact>
</mgrwt>
</event>
<event>
 7    1  0.5107591E-006  0.1474117E+03  0.7546771E-02  0.1212801E+00
         -2   -1    0    0    0  501 -0.00000000000E+00  0.00000000000E+00  0.10700495327E+03  0.10700495327E+03  0.00000000000E+00 0.  1.
          2   -1    0    0  501    0  0.00000000000E+00 -0.00000000000E+00 -0.18600168017E+03  0.18600168017E+03  0.00000000000E+00 0. -1.
         23    2    1    2    0    0  0.46755567481E+02 -0.62607022086E+02 -0.80542007719E+02  0.14558683024E+03  0.92751214693E+02 0.  0.
          5    1    1    2  502    0 -0.70506166688E+02  0.86877495665E+02 -0.66109877958E+01  0.11218116577E+03  0.47000000000E+01 0. -1.
         -5    1    1    2    0  502  0.23750599206E+02 -0.24270473579E+02  0.81562686052E+01  0.35238637430E+02  0.47000000000E+01 0. -1.
        -11    1    3    3    0    0 -0.15380228142E+02 -0.37807945523E+02 -0.65241945804E+02  0.76957804378E+02  0.00000000000E+00 0. -1.
         11    1    3    3    0    0  0.62135795624E+02 -0.24799076563E+02 -0.15300061915E+02  0.68629025862E+02  0.00000000000E+00 0.  1.
<mgrwt>
<rscale>  0 0.14039287E+03</rscale>
<asrwt>0</asrwt>
<pdfrwt beam="2">  1        2 0.28615643E-01 0.14741170E+03</pdfrwt>
<pdfrwt beam="1">  1       -2 0.16462301E-01 0.14741170E+03</pdfrwt>
<totfact> 0.51970404E+03</totfact>
</mgrwt>
</event>
<event>
 7    1  0.5107591E-006  0.2653003E+03  0.7546771E-02  0.1106115E+00
          1   -1    0    0  501    0  0.00000000000E+00  0.00000000000E+00  0.57312862978E+03  0.57312862978E+03  0.00000000000E+00 0. -1.
         -1   -1    0    0    0  501 -0.00000000000E+00 -0.00000000000E+00 -0.11649943167E+03  0.11649943167E+03  0.00000000000E+00 0.  1.
         23    2    1    2    0    0 -0.18824308645E+03  0.13900986201E+03  0.21171021986E+03  0.32856083999E+03  0.91497579486E+02 0.  0.
          5    1    1    2  502    0  0.97785610151E+02 -0.48023856466E+02  0.34134030305E+02  0.11426083479E+03  0.47000000000E+01 0. -1.
         -5    1    1    2    0  502  0.90457476295E+02 -0.90986005540E+02  0.21078494795E+03  0.24680638668E+03  0.47000000000E+01 0. -1.
        -11    1    3    3    0    0 -0.14445191268E+03  0.79851812257E+02  0.94599012688E+02  0.19024100557E+03  0.00000000000E+00 0.  1.
         11    1    3    3    0    0 -0.43791173768E+02  0.59158049750E+02  0.11711120717E+03  0.13831983442E+03  0.00000000000E+00 0. -1.
<mgrwt>
<rscale>  0 0.26171801E+03</rscale>
<asrwt>0</asrwt>
<pdfrwt beam="1">  1        1 0.88173634E-01 0.26530027E+03</pdfrwt>
<pdfrwt beam="2">  1       -1 0.17922990E-01 0.26530027E+03</pdfrwt>
<totfact> 0.90632114E+02</totfact>
</mgrwt>
</event>
<event>
 7    1  0.5107591E-006  0.2218516E+03  0.7546771E-02  0.1135306E+00
         -1   -1    0    0    0  501 -0.00000000000E+00  0.00000000000E+00  0.62000060152E+02  0.62000060152E+02  0.00000000000E+00 0.  1.
          1   -1    0    0  501    0  0.00000000000E+00 -0.00000000000E+00 -0.76919097045E+03  0.76919097045E+03  0.00000000000E+00 0. -1.
         23    2    1    2    0    0  0.70805397196E+02  0.16906313479E+03 -0.41951943247E+03  0.46791014416E+03  0.96682992163E+02 0.  0.
          5    1    1    2  502    0 -0.64718054521E+02 -0.28057482745E+02 -0.15114021718E+03  0.16685653769E+03  0.47000000000E+01 0. -1.
         -5    1    1    2    0  502 -0.60873426744E+01 -0.14100565205E+03 -0.13653126065E+03  0.19642434876E+03  0.47000000000E+01 0. -1.
        -11    1    3    3    0    0  0.43983358227E+02  0.46119270839E+02 -0.62085533487E+02  0.88972672276E+02  0.00000000000E+00 0.  1.
         11    1    3    3    0    0  0.26822038969E+02  0.12294386395E+03 -0.35743389898E+03  0.37893747189E+03  0.00000000000E+00 0. -1.
<mgrwt>
<rscale>  0 0.21810162E+03</rscale>
<asrwt>0</asrwt>
<pdfrwt beam="2">  1        1 0.11833708E+00 0.22185158E+03</pdfrwt>
<pdfrwt beam="1">  1       -1 0.95384706E-02 0.22185158E+03</pdfrwt>
<totfact> 0.16029633E+03</totfact>
</mgrwt>
</event>
<event>
 7    1  0.5107591E-006  0.1659866E+03  0.7546771E-02  0.1189175E+00
          3   -1    0    0  501    0  0.00000000000E+00  0.00000000000E+00  0.29548250443E+03  0.29548250443E+03  0.00000000000E+00 0. -1.
         -3   -1    0    0    0  501 -0.00000000000E+00 -0.00000000000E+00 -0.82871718189E+02  0.82871718189E+02  0.00000000000E+00 0.  1.
         23    2    1    2    0    0 -0.86292640849E+02 -0.66933054817E+02  0.64029299532E+02  0.15558075112E+03  0.90438737441E+02 0.  0.
          5    1    1    2  502    0  0.10702725905E+03  0.74154739255E+02  0.15184722775E+03  0.20008355782E+03  0.47000000000E+01 0. -1.
         -5    1    1    2    0  502 -0.20734618204E+02 -0.72216844382E+01 -0.32657410400E+01  0.22689913678E+02  0.47000000000E+01 0. -1.
        -11    1    3    3    0    0  0.10622322089E+02 -0.24292226618E+02 -0.77976243089E+01  0.27636008133E+02  0.00000000000E+00 0.  1.
         11    1    3    3    0    0 -0.96914962938E+02 -0.42640828198E+02  0.71826923841E+02  0.12794474299E+03  0.00000000000E+00 0. -1.
<mgrwt>
<rscale>  0 0.15957671E+03</rscale>
<asrwt>0</asrwt>
<pdfrwt beam="1">  1        3 0.45458846E-01 0.16598663E+03</pdfrwt>
<pdfrwt beam="2">  1       -3 0.12749495E-01 0.16598663E+03</pdfrwt>
<totfact> 0.56490758E+02</totfact>
</mgrwt>
</event>
<event>
 7    1  0.5107591E-006  0.3807518E+03  0.7546771E-02  0.1053776E+00
         -1   -1    0    0    0  501 -0.00000000000E+00  0.00000000000E+00  0.48319266323E+03  0.48319266323E+03  0.00000000000E+00 0.  1.
          1   -1    0    0  501    0  0.00000000000E+00 -0.00000000000E+00 -0.42869249415E+03  0.42869249415E+03  0.00000000000E+00 0. -1.
         23    2    1    2    0    0  0.26763605137E+03  0.20364781949E+03 -0.24624555332E+03  0.42668427287E+03  0.91220095406E+02 0.  0.
          5    1    1    2  502    0 -0.18869193029E+03 -0.62892666363E+02  0.86525498597E+02  0.21695364470E+03  0.47000000000E+01 0. -1.
         -5    1    1    2    0  502 -0.78944121075E+02 -0.14075515313E+03  0.21422022380E+03  0.26824723981E+03  0.47000000000E+01 0.  1.
        -11    1    3    3    0    0  0.18386690975E+03  0.17277011912E+03 -0.21686150198E+03  0.33269425243E+03  0.00000000000E+00 0.  1.
         11    1    3    3    0    0  0.83769141620E+02  0.30877700375E+02 -0.29384051340E+02  0.93990020435E+02  0.00000000000E+00 0. -1.
<mgrwt>
<rscale>  0 0.37240790E+03</rscale>
<asrwt>0</asrwt>
<pdfrwt beam="2">  1        1 0.65952691E-01 0.38075177E+03</pdfrwt>
<pdfrwt beam="1">  1       -1 0.74337333E-01 0.38075177E+03</pdfrwt>
<totfact> 0.10464287E+02</totfact>
</mgrwt>
</event>
<event>
 7    1  0.5107591E-006  0.1318241E+03  0.7546771E-02  0.1237668E+00
          1   -1    0    0  501    0  0.00000000000E+00  0.00000000000E+00  0.14707134336E+03  0.14707134336E+03  0.00000000000E+00 0. -1.
         -1   -1    0    0    0  501 -0.00000000000E+00 -0.00000000000E+00 -0.11564555874E+03  0.11564555874E+03  0.00000000000E+00 0.  1.
         23    2    1    2    0    0  0.39977474303E+02 -0.12739855339E+02  0.72798561154E+02  0.12455290189E+03  0.91941788639E+02 0.  0.
          5    1    1    2  502    0 -0.74208636224E+02 -0.83284050792E+00 -0.60992417065E+02  0.96175777891E+02  0.47000000000E+01 0. -1.
         -5    1    1    2    0  502  0.34231161921E+02  0.13572695847E+02  0.19619640527E+02  0.41988222317E+02  0.47000000000E+01 0. -1.
        -11    1    3    3    0    0  0.62038435171E+02 -0.18495350513E+01  0.77721501662E+02  0.99462656504E+02  0.00000000000E+00 0. -1.
         11    1    3    3    0    0 -0.22060960868E+02 -0.10890320287E+02 -0.49229405081E+01  0.25090245388E+02  0.00000000000E+00 0.  1.
<mgrwt>
<rscale>  0 0.12335150E+03</rscale>
<asrwt>0</asrwt>
<pdfrwt beam="1">  1        1 0.22626361E-01 0.13182407E+03</pdfrwt>
<pdfrwt beam="2">  1       -1 0.17791624E-01 0.13182407E+03</pdfrwt>
<totfact> 0.50626658E+03</totfact>
</mgrwt>
</event>
<event>
 7    1  0.5107591E-006  0.1363216E+03  0.7546771E-02  0.1229697E+00
          2   -1    0    0  501    0  0.00000000000E+00  0.00000000000E+00  0.16236055969E+03  0.16236055969E+03  0.00000000000E+00 0. -1.
         -2   -1    0    0    0  501 -0.00000000000E+00 -0.00000000000E+00 -0.97253144041E+02  0.97253144041E+02  0.00000000000E+00 0.  1.
         23    2    1    2    0    0  0.98988993736E+01  0.53489493945E+02  0.59938715258E+02  0.12319411411E+03  0.92871018049E+02 0.  0.
          5    1    1    2  502    0 -0.52024187291E+02  0.66524795964E+01 -0.23226388400E+02  0.57552816319E+02  0.47000000000E+01 0. -1.
         -5    1    1    2    0  502  0.42125287918E+02 -0.60141973541E+02  0.28395088793E+02  0.78866773303E+02  0.47000000000E+01 0. -1.
        -11    1    3    3    0    0  0.19644356920E+02 -0.22263281973E+02  0.77383312151E+01  0.30682833197E+02  0.00000000000E+00 0. -1.
         11    1    3    3    0    0 -0.97454575467E+01  0.75752775918E+02  0.52200384043E+02  0.92511280913E+02  0.00000000000E+00 0.  1.
<mgrwt>
<rscale>  0 0.12850102E+03</rscale>
<asrwt>0</asrwt>
<pdfrwt beam="1">  1        2 0.24978548E-01 0.13632164E+03</pdfrwt>
<pdfrwt beam="2">  1       -2 0.14962022E-01 0.13632164E+03</pdfrwt>
<totfact> 0.70229360E+03</totfact>
</mgrwt>
</event>
<event>
 7    1  0.5107591E-006  0.1698209E+03  0.7546771E-02  0.1184590E+00
          2   -1    0    0  501    0  0.00000000000E+00  0.00000000000E+00  0.62778700609E+02  0.62778700609E+02  0.00000000000E+00 0. -1.
         -2   -1    0    0    0  501 -0.00000000000E+00 -0.00000000000E+00 -0.56706187935E+03  0.56706187935E+03  0.00000000000E+00 0.  1.
         23    2    1    2    0    0  0.11226259547E+03  0.24857361352E+02 -0.67871208425E+02  0.16155163464E+03  0.90948617179E+02 0.  0.
          5    1    1    2  502    0 -0.39402945114E+02 -0.26196634522E+02 -0.35798565958E+03  0.36112972491E+03  0.47000000000E+01 0. -1.
         -5    1    1    2    0  502 -0.72859650360E+02  0.13392731696E+01 -0.78426310728E+02  0.10715922040E+03  0.47000000000E+01 0. -1.
        -11    1    3    3    0    0  0.76492268052E+02 -0.23706189890E+02 -0.61358672657E+02  0.10088576322E+03  0.00000000000E+00 0.  1.
         11    1    3    3    0    0  0.35770327422E+02  0.48563551242E+02 -0.65125357684E+01  0.60665871420E+02  0.00000000000E+00 0. -1.
<mgrwt>
<rscale>  0 0.16369258E+03</rscale>
<asrwt>0</asrwt>
<pdfrwt beam="1">  1        2 0.96582616E-02 0.16982087E+03</pdfrwt>
<pdfrwt beam="2">  1       -2 0.87240290E-01 0.16982087E+03</pdfrwt>
<totfact> 0.77502949E+02</totfact>
</mgrwt>
</event>
<event>
 7    1  0.5107591E-006  0.1309665E+03  0.7546771E-02  0.1239467E+00
         -1   -1    0    0    0  501 -0.00000000000E+00  0.00000000000E+00  0.54591466344E+02  0.54591466344E+02  0.00000000000E+00 0.  1.
          1   -1    0    0  501    0  0.00000000000E+00 -0.00000000000E+00 -0.26617034943E+03  0.26617034943E+03  0.00000000000E+00 0. -1.
         23    2    1    2    0    0  0.27838409776E+02  0.27419349287E+02 -0.13951408365E+03  0.17127751611E+03  0.91351027439E+02 0.  0.
          5    1    1    2  502    0  0.61006179388E+01 -0.63107444352E+02 -0.76898146985E+02  0.99775658763E+02  0.47000000000E+01 0.  1.
         -5    1    1    2    0  502 -0.33939027715E+02  0.35688095065E+02  0.48333475496E+01  0.49708640900E+02  0.47000000000E+01 0.  1.
        -11    1    3    3    0    0  0.48319368019E+02 -0.61653829653E-01 -0.12507980975E+03  0.13408849292E+03  0.00000000000E+00 0. -1.
         11    1    3    3    0    0 -0.20480958242E+02  0.27481003117E+02 -0.14434273903E+02  0.37189023192E+02  0.00000000000E+00 0.  1.
<mgrwt>
<rscale>  0 0.12222772E+03</rscale>
<asrwt>0</asrwt>
<pdfrwt beam="2">  1        1 0.40949285E-01 0.13096649E+03</pdfrwt>
<pdfrwt beam="1">  1       -1 0.83986871E-02 0.13096649E+03</pdfrwt>
<totfact> 0.77172501E+03</totfact>
</mgrwt>
</event>
<event>
 7    1  0.5107591E-006  0.1552610E+03  0.7546771E-02  0.1203458E+00
         -1   -1    0    0    0  501 -0.00000000000E+00  0.00000000000E+00  0.10376465876E+04  0.10376465876E+04  0.00000000000E+00 0.  1.
          1   -1    0    0  501    0  0.00000000000E+00 -0.00000000000E+00 -0.21017238186E+02  0.21017238186E+02  0.00000000000E+00 0. -1.
         23    2    1    2    0    0  0.32047504390E+02 -0.86329993539E+02  0.30525158001E+03  0.33053999566E+03  0.87167948834E+02 0.  0.
          5    1    1    2  502    0 -0.30671994619E+02  0.92432687510E+02  0.71340805823E+03  0.72004008258E+03  0.47000000000E+01 0.  1.
         -5    1    1    2    0  502 -0.13755097713E+01 -0.61026939710E+01 -0.20302888754E+01  0.80837475067E+01  0.47000000000E+01 0.  1.
        -11    1    3    3    0    0 -0.23458239598E+02 -0.41684305994E+02  0.18204059115E+03  0.18821967803E+03  0.00000000000E+00 0. -1.
         11    1    3    3    0    0  0.55505743988E+02 -0.44645687546E+02  0.12321098886E+03  0.14232031762E+03  0.00000000000E+00 0.  1.
<mgrwt>
<rscale>  0 0.14759660E+03</rscale>
<asrwt>0</asrwt>
<pdfrwt beam="2">  1        1 0.32334221E-02 0.15526101E+03</pdfrwt>
<pdfrwt beam="1">  1       -1 0.15963790E+00 0.15526101E+03</pdfrwt>
<totfact> 0.96821086E+02</totfact>
</mgrwt>
</event>
<event>
 7    1  0.5107591E-006  0.2106976E+03  0.7546771E-02  0.1144866E+00
          1   -1    0    0  501    0  0.00000000000E+00  0.00000000000E+00  0.11898276214E+04  0.11898276214E+04  0.00000000000E+00 0. -1.
         -1   -1    0    0    0  501 -0.00000000000E+00 -0.00000000000E+00 -0.34614097952E+02  0.34614097952E+02  0.00000000000E+00 0.  1.
         23    2    1    2    0    0  0.16253405685E+03  0.48496270979E+02  0.62657470475E+03  0.65536132954E+03  0.90185385108E+02 0.  0.
          5    1    1    2  502    0 -0.30697171026E+02  0.88336520999E+01  0.14852466802E+02  0.35539210578E+02  0.47000000000E+01 0.  1.
         -5    1    1    2    0  502 -0.13183688582E+03 -0.57329923079E+02  0.51378635189E+03  0.53354117922E+03  0.47000000000E+01 0.  1.
        -11    1    3    3    0    0  0.53639821703E+02  0.48205538181E+02  0.14908598629E+03  0.16561290920E+03  0.00000000000E+00 0. -1.
         11    1    3    3    0    0  0.10889423515E+03  0.29073279858E+00  0.47748871846E+03  0.48974842034E+03  0.00000000000E+00 0.  1.
<mgrwt>
<rscale>  0 0.20588603E+03</rscale>
<asrwt>0</asrwt>
<pdfrwt beam="1">  1        1 0.18305037E+00 0.21069763E+03</pdfrwt>
<pdfrwt beam="2">  1       -1 0.53252467E-02 0.21069763E+03</pdfrwt>
<totfact> 0.18616277E+03</totfact>
</mgrwt>
</event>
<event>
 7    1  0.5107591E-006  0.1347781E+03  0.7546771E-02  0.1232629E+00
         -4   -1    0    0    0  501 -0.00000000000E+00  0.00000000000E+00  0.23539375192E+03  0.23539375192E+03  0.00000000000E+00 0.  1.
          4   -1    0    0  501    0  0.00000000000E+00 -0.00000000000E+00 -0.63530085775E+02  0.63530085775E+02  0.00000000000E+00 0. -1.
         23    2    1    2    0    0 -0.32072472925E+02  0.38910595735E+02  0.45904042772E+02  0.11444901797E+03  0.91916911350E+02 0.  0.
          5    1    1    2  502    0  0.16798788003E+02  0.30512361024E+02  0.10422949596E+03  0.10999582393E+03  0.47000000000E+01 0. -1.
         -5    1    1    2    0  502  0.15273684922E+02 -0.69422956759E+02  0.21730127405E+02  0.74478995786E+02  0.47000000000E+01 0. -1.
        -11    1    3    3    0    0 -0.72917617392E+00  0.18927036836E+02 -0.26785798955E+02  0.32806149529E+02  0.00000000000E+00 0. -1.
         11    1    3    3    0    0 -0.31343296751E+02  0.19983558899E+02  0.72689841727E+02  0.81642868444E+02  0.00000000000E+00 0.  1.
<mgrwt>
<rscale>  0 0.12657446E+03</rscale>
<asrwt>0</asrwt>
<pdfrwt beam="2">  1        4 0.97738595E-02 0.13477809E+03</pdfrwt>
<pdfrwt beam="1">  1       -4 0.36214423E-01 0.13477809E+03</pdfrwt>
<totfact> 0.96227699E+02</totfact>
</mgrwt>
</event>
<event>
 7    1  0.5107591E-006  0.2259537E+03  0.7546771E-02  0.1132754E+00
         -1   -1    0    0    0  501 -0.00000000000E+00  0.00000000000E+00  0.13023698989E+03  0.13023698989E+03  0.00000000000E+00 0.  1.
          1   -1    0    0  501    0  0.00000000000E+00 -0.00000000000E+00 -0.42578727078E+03  0.42578727078E+03  0.00000000000E+00 0. -1.
         23    2    1    2    0    0 -0.43285645161E+02 -0.18318990973E+03 -0.24971476938E+03  0.32546844615E+03  0.90222243877E+02 0.  0.
          5    1    1    2  502    0  0.11763285144E+01  0.18301436666E+03 -0.31135808503E+02  0.18570721775E+03  0.47000000000E+01 0.  1.
         -5    1    1    2    0  502  0.42109316646E+02  0.17554306935E+00 -0.14699703003E+02  0.44848596769E+02  0.47000000000E+01 0.  1.
        -11    1    3    3    0    0 -0.34363335087E+02 -0.56830627041E+02 -0.15071261436E+03  0.16469623886E+03  0.00000000000E+00 0.  1.
         11    1    3    3    0    0 -0.89223100740E+01 -0.12635928269E+03 -0.99002155027E+02  0.16077220730E+03  0.00000000000E+00 0. -1.
<mgrwt>
<rscale>  0 0.22152150E+03</rscale>
<asrwt>0</asrwt>
<pdfrwt beam="2">  1        1 0.65505734E-01 0.22595373E+03</pdfrwt>
<pdfrwt beam="1">  1       -1 0.20036460E-01 0.22595373E+03</pdfrwt>
<totfact> 0.11224902E+03</totfact>
</mgrwt>
</event>
<event>
 7    1  0.5107591E-006  0.1231604E+03  0.7546771E-02  0.1246816E+00
         -1   -1    0    0    0  501 -0.00000000000E+00  0.00000000000E+00  0.76799320871E+03  0.76799320871E+03  0.00000000000E+00 0.  1.
          1   -1    0    0  501    0  0.00000000000E+00 -0.00000000000E+00 -0.27989428938E+02  0.27989428938E+02  0.00000000000E+00 0. -1.
         23    2    1    2    0    0  0.40018677899E+02 -0.87399357684E+01  0.97624263969E+02  0.14190318623E+03  0.94488815678E+02 0.  0.
          5    1    1    2  502    0  0.40632329446E+02  0.10818530568E+02  0.22831950353E+03  0.23220661596E+03  0.47000000000E+01 0. -1.
         -5    1    1    2    0  502 -0.80651007345E+02 -0.20785947992E+01  0.41406001227E+03  0.42187283546E+03  0.47000000000E+01 0.  1.
        -11    1    3    3    0    0 -0.11726634945E+02  0.24560918265E+02  0.68729180125E+02  0.73921937703E+02  0.00000000000E+00 0.  1.
         11    1    3    3    0    0  0.51745312844E+02 -0.33300854034E+02  0.28895083845E+02  0.67981248525E+02  0.00000000000E+00 0. -1.
<mgrwt>
<rscale>  0 0.11777345E+03</rscale>
<asrwt>0</asrwt>
<pdfrwt beam="2">  1        1 0.43060666E-02 0.12316041E+03</pdfrwt>
<pdfrwt beam="1">  1       -1 0.11815279E+00 0.12316041E+03</pdfrwt>
<totfact> 0.13700470E+03</totfact>
</mgrwt>
</event>
<event>
 7    1  0.5107591E-006  0.1296331E+03  0.7546771E-02  0.1241933E+00
         -4   -1    0    0    0  501 -0.00000000000E+00  0.00000000000E+00  0.23664173371E+03  0.23664173371E+03  0.00000000000E+00 0.  1.
          4   -1    0    0  501    0  0.00000000000E+00 -0.00000000000E+00 -0.54505028626E+02  0.54505028626E+02  0.00000000000E+00 0. -1.
         23    2    1    2    0    0 -0.30671065680E+02 -0.15263379897E+02  0.75059518484E+02  0.12300911534E+03  0.91233908747E+02 0.  0.
          5    1    1    2  502    0  0.48163716859E+02 -0.26176885456E+02  0.35149182919E+01  0.55130913329E+02  0.47000000000E+01 0. -1.
         -5    1    1    2    0  502 -0.17492651179E+02  0.41440265353E+02  0.10356226830E+03  0.11300673367E+03  0.47000000000E+01 0. -1.
        -11    1    3    3    0    0 -0.60092376901E+02  0.35330413204E+01  0.34080170813E+02  0.69173941519E+02  0.00000000000E+00 0. -1.
         11    1    3    3    0    0  0.29421311221E+02 -0.18796421217E+02  0.40979347671E+02  0.53835173819E+02  0.00000000000E+00 0.  1.
<mgrwt>
<rscale>  0 0.12070828E+03</rscale>
<asrwt>0</asrwt>
<pdfrwt beam="2">  1        4 0.83853892E-02 0.12963311E+03</pdfrwt>
<pdfrwt beam="1">  1       -4 0.36406420E-01 0.12963311E+03</pdfrwt>
<totfact> 0.12201800E+03</totfact>
</mgrwt>
</event>
<event>
 7    1  0.5107591E-006  0.2383888E+03  0.7546771E-02  0.1123477E+00
          2   -1    0    0  501    0  0.00000000000E+00  0.00000000000E+00  0.50993475283E+02  0.50993475283E+02  0.00000000000E+00 0. -1.
         -2   -1    0    0    0  501 -0.00000000000E+00 -0.00000000000E+00 -0.14296850736E+04  0.14296850736E+04  0.00000000000E+00 0.  1.
         23    2    1    2    0    0 -0.64101678779E+02  0.19260016517E+03 -0.28934581754E+03  0.36555368239E+03  0.93298680239E+02 0.  0.
          5    1    1    2  502    0 -0.30210461208E+02 -0.10352088017E+03 -0.53523851183E+03  0.54601428474E+03  0.47000000000E+01 0.  1.
         -5    1    1    2    0  502  0.94312139987E+02 -0.89079285000E+02 -0.55410726893E+03  0.56911058174E+03  0.47000000000E+01 0.  1.
        -11    1    3    3    0    0  0.14779364014E+02  0.94929553692E+02 -0.14858419852E+03  0.17693872898E+03  0.00000000000E+00 0.  1.
         11    1    3    3    0    0 -0.78881042793E+02  0.97670611474E+02 -0.14076161902E+03  0.18861495341E+03  0.00000000000E+00 0. -1.
<mgrwt>
<rscale>  0 0.23455044E+03</rscale>
<asrwt>0</asrwt>
<pdfrwt beam="1">  1        2 0.78451512E-02 0.23838884E+03</pdfrwt>
<pdfrwt beam="2">  1       -2 0.21995152E+00 0.23838884E+03</pdfrwt>
<totfact> 0.94685261E+01</totfact>
</mgrwt>
</event>
<event>
 7    1  0.5107591E-006  0.1552992E+03  0.7546771E-02  0.1202574E+00
         -4   -1    0    0    0  501 -0.00000000000E+00  0.00000000000E+00  0.95073240265E+02  0.95073240265E+02  0.00000000000E+00 0.  1.
          4   -1    0    0  501    0  0.00000000000E+00 -0.00000000000E+00 -0.21318175926E+03  0.21318175926E+03  0.00000000000E+00 0. -1.
         23    2    1    2    0    0  0.30850859745E+02  0.86831605886E+02 -0.46812875967E+02  0.13737227556E+03  0.90488636900E+02 0.  0.
          5    1    1    2  502    0 -0.52495430494E+02 -0.75210962398E+02  0.36106705853E+01  0.91910750349E+02  0.47000000000E+01 0. -1.
         -5    1    1    2    0  502  0.21644570749E+02 -0.11620643488E+02 -0.74906313615E+02  0.78971973619E+02  0.47000000000E+01 0. -1.
        -11    1    3    3    0    0 -0.22882438279E+02  0.34372137816E+02 -0.46619468086E+02  0.62276999319E+02  0.00000000000E+00 0. -1.
         11    1    3    3    0    0  0.53733298025E+02  0.52459468070E+02 -0.19340788158E+00  0.75095276239E+02  0.00000000000E+00 0.  1.
<mgrwt>
<rscale>  0 0.14830316E+03</rscale>
<asrwt>0</asrwt>
<pdfrwt beam="2">  1        4 0.32797194E-01 0.15529918E+03</pdfrwt>
<pdfrwt beam="1">  1       -4 0.14626652E-01 0.15529918E+03</pdfrwt>
<totfact> 0.60063722E+02</totfact>
</mgrwt>
</event>
<event>
 7    1  0.5107591E-006  0.1500263E+03  0.7546771E-02  0.1209877E+00
          2   -1    0    0  501    0  0.00000000000E+00  0.00000000000E+00  0.30015088883E+03  0.30015088883E+03  0.00000000000E+00 0. -1.
         -2   -1    0    0    0  501 -0.00000000000E+00 -0.00000000000E+00 -0.64338715920E+02  0.64338715920E+02  0.00000000000E+00 0.  1.
         23    2    1    2    0    0  0.20961541217E+02  0.80259094594E+02  0.14220466091E+03  0.18765558991E+03  0.90064123623E+02 0.  0.
          5    1    1    2  502    0  0.45299137104E+02 -0.64053002240E+02  0.67645017533E+02  0.10369540643E+03  0.47000000000E+01 0.  1.
         -5    1    1    2    0  502 -0.66260678321E+02 -0.16206092354E+02  0.25962494465E+02  0.73138608408E+02  0.47000000000E+01 0.  1.
        -11    1    3    3    0    0 -0.16135361947E+02  0.82285203523E+02  0.11116148223E+03  0.13924108501E+03  0.00000000000E+00 0.  1.
         11    1    3    3    0    0  0.37096903164E+02 -0.20261089288E+01  0.31043178685E+02  0.48414504900E+02  0.00000000000E+00 0. -1.
<mgrwt>
<rscale>  0 0.14259678E+03</rscale>
<asrwt>0</asrwt>
<pdfrwt beam="1">  1        2 0.46177059E-01 0.15002634E+03</pdfrwt>
<pdfrwt beam="2">  1       -2 0.98982642E-02 0.15002634E+03</pdfrwt>
<totfact> 0.70666961E+03</totfact>
</mgrwt>
</event>
<event>
 7    1  0.5107591E-006  0.1486454E+03  0.7546771E-02  0.1210867E+00
          1   -1    0    0  501    0  0.00000000000E+00  0.00000000000E+00  0.29614478307E+03  0.29614478307E+03  0.00000000000E+00 0. -1.
         -1   -1    0    0    0  501 -0.00000000000E+00 -0.00000000000E+00 -0.72734469844E+02  0.72734469844E+02  0.00000000000E+00 0.  1.
         23    2    1    2    0    0  0.77100485606E+02 -0.22936209863E+02  0.17198055475E+03  0.21158824730E+03  0.93390152477E+02 0.  0.
          5    1    1    2  502    0 -0.42125793159E+02  0.65707753490E+02 -0.47728478218E+01  0.78338760485E+02  0.47000000000E+01 0.  1.
         -5    1    1    2    0  502 -0.34974692447E+02 -0.42771543627E+02  0.56202606293E+02  0.78952245124E+02  0.47000000000E+01 0.  1.
        -11    1    3    3    0    0  0.92838086909E-01  0.10074001169E+02 -0.81286876500E+01  0.12944870852E+02  0.00000000000E+00 0.  1.
         11    1    3    3    0    0  0.77007647519E+02 -0.33010211032E+02  0.18010924240E+03  0.19864337645E+03  0.00000000000E+00 0. -1.
<mgrwt>
<rscale>  0 0.14184576E+03</rscale>
<asrwt>0</asrwt>
<pdfrwt beam="1">  1        1 0.45560735E-01 0.14864535E+03</pdfrwt>
<pdfrwt beam="2">  1       -1 0.11189919E-01 0.14864535E+03</pdfrwt>
<totfact> 0.44000260E+03</totfact>
</mgrwt>
</event>
<event>
 7    1  0.5107591E-006  0.2920426E+03  0.7546771E-02  0.1090958E+00
          2   -1    0    0  501    0  0.00000000000E+00  0.00000000000E+00  0.59714976993E+03  0.59714976993E+03  0.00000000000E+00 0. -1.
         -2   -1    0    0    0  501 -0.00000000000E+00 -0.00000000000E+00 -0.13891304398E+03  0.13891304398E+03  0.00000000000E+00 0.  1.
         23    2    1    2    0    0 -0.19573360284E+03  0.17706561742E+03  0.27033272265E+03  0.38879230681E+03  0.91737673575E+02 0.  0.
          5    1    1    2  502    0 -0.69056854260E+00 -0.13621557497E+02  0.59555408487E+02  0.61277731629E+02  0.47000000000E+01 0.  1.
         -5    1    1    2    0  502  0.19642417138E+03 -0.16344405992E+03  0.12834859482E+03  0.28599277547E+03  0.47000000000E+01 0.  1.
        -11    1    3    3    0    0 -0.87207041876E+02  0.74634021890E+02  0.18260366348E+03  0.21568357215E+03  0.00000000000E+00 0. -1.
         11    1    3    3    0    0 -0.10852656096E+03  0.10243159553E+03  0.87729059163E+02  0.17310873467E+03  0.00000000000E+00 0.  1.
<mgrwt>
<rscale>  0 0.28883640E+03</rscale>
<asrwt>0</asrwt>
<pdfrwt beam="1">  1        2 0.91869194E-01 0.29204262E+03</pdfrwt>
<pdfrwt beam="2">  1       -2 0.21371238E-01 0.29204262E+03</pdfrwt>
<totfact> 0.95274969E+02</totfact>
</mgrwt>
</event>
<event>
 7    1  0.5107591E-006  0.2576473E+03  0.7546771E-02  0.1108565E+00
          2   -1    0    0  501    0  0.00000000000E+00  0.00000000000E+00  0.35361959580E+03  0.35361959580E+03  0.00000000000E+00 0. -1.
         -2   -1    0    0    0  501 -0.00000000000E+00 -0.00000000000E+00 -0.46930478633E+02  0.46930478633E+02  0.00000000000E+00 0.  1.
         23    2    1    2    0    0  0.39857457800E+01  0.19975462445E+02  0.16058919872E+03  0.18558311295E+03  0.90759549340E+02 0.  0.
          5    1    1    2  502    0 -0.26408859043E+02  0.46683236300E+02  0.13271622007E+03  0.14322163753E+03  0.47000000000E+01 0. -1.
         -5    1    1    2    0  502  0.22423113263E+02 -0.66658698745E+02  0.13383698374E+02  0.71745323952E+02  0.47000000000E+01 0.  1.
        -11    1    3    3    0    0 -0.10171604760E+02 -0.33367626264E+02  0.85921839387E+02  0.92733071283E+02  0.00000000000E+00 0.  1.
         11    1    3    3    0    0  0.14157350540E+02  0.53343088709E+02  0.74667359335E+02  0.92850041666E+02  0.00000000000E+00 0. -1.
<mgrwt>
<rscale>  0 0.25764733E+03</rscale>
<asrwt>0</asrwt>
<pdfrwt beam="1">  1        2 0.54403013E-01 0.25764733E+03</pdfrwt>
<pdfrwt beam="2">  1       -2 0.72200739E-02 0.25764733E+03</pdfrwt>
<totfact> 0.10033586E+04</totfact>
</mgrwt>
</event>
<event>
 7    1  0.5107591E-006  0.1290519E+03  0.7546771E-02  0.1235787E+00
         -1   -1    0    0    0  501 -0.00000000000E+00  0.00000000000E+00  0.30487396395E+03  0.30487396395E+03  0.00000000000E+00 0.  1.
          1   -1    0    0  501    0  0.00000000000E+00 -0.00000000000E+00 -0.47623774160E+02  0.47623774160E+02  0.00000000000E+00 0. -1.
         23    2    1    2    0    0  0.56000947230E+02  0.31563074417E+02  0.11840667398E+03  0.16294058272E+03  0.91636015288E+02 0.  0.
          5    1    1    2  502    0 -0.17797287235E+02  0.17222062266E+02 -0.10875793080E+02  0.27453883819E+02  0.47000000000E+01 0. -1.
         -5    1    1    2    0  502 -0.38203659995E+02 -0.48785136683E+02  0.14971930889E+03  0.16210327157E+03  0.47000000000E+01 0.  1.
        -11    1    3    3    0    0  0.14401078469E+02  0.26105761877E+02 -0.70648200269E+01  0.30640064398E+02  0.00000000000E+00 0.  1.
         11    1    3    3    0    0  0.41599868761E+02  0.54573125402E+01  0.12547149400E+03  0.13230051832E+03  0.00000000000E+00 0. -1.
<mgrwt>
<rscale>  0 0.12454176E+03</rscale>
<asrwt>0</asrwt>
<pdfrwt beam="2">  1        1 0.73267347E-02 0.12905190E+03</pdfrwt>
<pdfrwt beam="1">  1       -1 0.46903686E-01 0.12905190E+03</pdfrwt>
<totfact> 0.43259809E+03</totfact>
</mgrwt>
</event>
<event>
 7    1  0.5107591E-006  0.2055492E+03  0.7546771E-02  0.1175613E+00
          3   -1    0    0  501    0  0.00000000000E+00  0.00000000000E+00  0.10035724311E+03  0.10035724311E+03  0.00000000000E+00 0. -1.
         -3   -1    0    0    0  501 -0.00000000000E+00 -0.00000000000E+00 -0.25437447258E+03  0.25437447258E+03  0.00000000000E+00 0.  1.
         23    2    1    2    0    0  0.15170879255E+02  0.41625599485E+02 -0.58077384122E+01  0.10132193457E+03  0.90937112832E+02 0.  0.
          5    1    1    2  502    0 -0.50676146751E+02 -0.25666915761E+02  0.34441879581E+02  0.66597263331E+02  0.47000000000E+01 0. -1.
         -5    1    1    2    0  502  0.35505267495E+02 -0.15958683724E+02 -0.18265137064E+03  0.18681251779E+03  0.47000000000E+01 0.  1.
        -11    1    3    3    0    0  0.91117097441E+01 -0.26919664082E+02 -0.14598619537E+02  0.31950137107E+02  0.00000000000E+00 0. -1.
         11    1    3    3    0    0  0.60591695114E+01  0.68545263567E+02  0.87908811251E+01  0.69371797465E+02  0.00000000000E+00 0.  1.
<mgrwt>
<rscale>  0 0.17216070E+03</rscale>
<asrwt>0</asrwt>
<pdfrwt beam="1">  1        3 0.15439576E-01 0.20554918E+03</pdfrwt>
<pdfrwt beam="2">  1       -3 0.39134534E-01 0.20554918E+03</pdfrwt>
<totfact> 0.56054452E+02</totfact>
</mgrwt>
</event>
<event>
 7    1  0.5107591E-006  0.1557638E+03  0.7546771E-02  0.1201649E+00
         -2   -1    0    0    0  501 -0.00000000000E+00  0.00000000000E+00  0.21627875904E+03  0.21627875904E+03  0.00000000000E+00 0.  1.
          2   -1    0    0  501    0  0.00000000000E+00 -0.00000000000E+00 -0.99888081839E+02  0.99888081839E+02  0.00000000000E+00 0. -1.
         23    2    1    2    0    0  0.41550656059E+02 -0.83125049255E+02  0.17724045536E+02  0.13178285965E+03  0.91740664232E+02 0.  0.
          5    1    1    2  502    0 -0.42994546073E+02  0.11372934600E+03  0.92342791637E+02  0.15274873584E+03  0.47000000000E+01 0. -1.
         -5    1    1    2    0  502  0.14438900136E+01 -0.30604296749E+02  0.63238400245E+01  0.31635245385E+02  0.47000000000E+01 0. -1.
        -11    1    3    3    0    0 -0.26516263077E+02 -0.28905851884E+02  0.21399433981E+02  0.44683288323E+02  0.00000000000E+00 0.  1.
         11    1    3    3    0    0  0.68066919137E+02 -0.54219197371E+02 -0.36753884451E+01  0.87099571322E+02  0.00000000000E+00 0. -1.
<mgrwt>
<rscale>  0 0.14904712E+03</rscale>
<asrwt>0</asrwt>
<pdfrwt beam="2">  1        2 0.15367397E-01 0.15576376E+03</pdfrwt>
<pdfrwt beam="1">  1       -2 0.33273655E-01 0.15576376E+03</pdfrwt>
<totfact> 0.30979022E+03</totfact>
</mgrwt>
</event>
<event>
 7    1  0.5107591E-006  0.3164880E+03  0.7546771E-02  0.1078666E+00
          1   -1    0    0  501    0  0.00000000000E+00  0.00000000000E+00  0.50581993143E+03  0.50581993143E+03  0.00000000000E+00 0. -1.
         -1   -1    0    0    0  501 -0.00000000000E+00 -0.00000000000E+00 -0.19969065809E+03  0.19969065809E+03  0.00000000000E+00 0.  1.
         23    2    1    2    0    0 -0.28660016728E+03  0.49036327878E+02  0.22477827168E+03  0.37873442725E+03  0.91489221374E+02 0.  0.
          5    1    1    2  502    0  0.29395559239E+03 -0.32427974164E+02  0.67301582662E+02  0.30333654056E+03  0.47000000000E+01 0. -1.
         -5    1    1    2    0  502 -0.73554251159E+01 -0.16608353714E+02  0.14049419004E+02  0.23439621714E+02  0.47000000000E+01 0. -1.
        -11    1    3    3    0    0 -0.13002744262E+03  0.66436210597E+02  0.90934578458E+02  0.17201745107E+03  0.00000000000E+00 0.  1.
         11    1    3    3    0    0 -0.15657272465E+03 -0.17399882719E+02  0.13384369322E+03  0.20671697617E+03  0.00000000000E+00 0. -1.
<mgrwt>
<rscale>  0 0.31352950E+03</rscale>
<asrwt>0</asrwt>
<pdfrwt beam="1">  1        1 0.77818450E-01 0.31648803E+03</pdfrwt>
<pdfrwt beam="2">  1       -1 0.30721640E-01 0.31648803E+03</pdfrwt>
<totfact> 0.43762533E+02</totfact>
</mgrwt>
</event>
<event>
 7    1  0.5107591E-006  0.1293421E+03  0.7546771E-02  0.1241580E+00
          2   -1    0    0  501    0  0.00000000000E+00  0.00000000000E+00  0.24892742219E+03  0.24892742219E+03  0.00000000000E+00 0.  1.
         -2   -1    0    0    0  501 -0.00000000000E+00 -0.00000000000E+00 -0.52774494578E+02  0.52774494578E+02  0.00000000000E+00 0. -1.
         23    2    1    2    0    0 -0.27525371648E+02  0.18650613030E+02  0.99528100288E+02  0.14025302352E+03  0.93056845038E+02 0.  0.
          5    1    1    2  502    0  0.49042580540E+02  0.29526144443E+01 -0.10079315979E+02  0.50374351099E+02  0.47000000000E+01 0. -1.
         -5    1    1    2    0  502 -0.21517208892E+02 -0.21603227475E+02  0.10670414330E+03  0.11107454215E+03  0.47000000000E+01 0. -1.
        -11    1    3    3    0    0 -0.59648966841E+02  0.95484897638E+01  0.83909321581E+02  0.10339220063E+03  0.00000000000E+00 0.  1.
         11    1    3    3    0    0  0.32123595193E+02  0.91021232667E+01  0.15618778707E+02  0.36860822894E+02  0.00000000000E+00 0. -1.
<mgrwt>
<rscale>  0 0.12092454E+03</rscale>
<asrwt>0</asrwt>
<pdfrwt beam="1">  1        2 0.38296526E-01 0.12934213E+03</pdfrwt>
<pdfrwt beam="2">  1       -2 0.81191532E-02 0.12934213E+03</pdfrwt>
<totfact> 0.11614752E+04</totfact>
</mgrwt>
</event>
<event>
 7    1  0.5107591E-006  0.2427274E+03  0.7546771E-02  0.1120796E+00
          1   -1    0    0  501    0  0.00000000000E+00  0.00000000000E+00  0.18242189717E+04  0.18242189717E+04  0.00000000000E+00 0. -1.
         -1   -1    0    0    0  501 -0.00000000000E+00 -0.00000000000E+00 -0.34032224539E+02  0.34032224539E+02  0.00000000000E+00 0.  1.
         23    2    1    2    0    0  0.15960650854E+03  0.13349579588E+03  0.55331132695E+03  0.59778406696E+03  0.88865072466E+02 0.  0.
          5    1    1    2  502    0 -0.13246534672E+03 -0.56961552111E+02  0.99199568654E+03  0.10024316528E+04  0.47000000000E+01 0.  1.
         -5    1    1    2    0  502 -0.27141161819E+02 -0.76534243765E+02  0.24487973364E+03  0.25803547640E+03  0.47000000000E+01 0.  1.
        -11    1    3    3    0    0  0.95280610451E+02  0.22420577690E+02  0.24305905943E+03  0.26202821108E+03  0.00000000000E+00 0. -1.
         11    1    3    3    0    0  0.64325898086E+02  0.11107521819E+03  0.31025226752E+03  0.33575585588E+03  0.00000000000E+00 0.  1.
<mgrwt>
<rscale>  0 0.23850073E+03</rscale>
<asrwt>0</asrwt>
<pdfrwt beam="1">  1        1 0.28064900E+00 0.24272738E+03</pdfrwt>
<pdfrwt beam="2">  1       -1 0.52357283E-02 0.24272738E+03</pdfrwt>
<totfact> 0.72280890E+02</totfact>
</mgrwt>
</event>
<event>
 7    1  0.5107591E-006  0.2148404E+03  0.7546771E-02  0.1140728E+00
         -3   -1    0    0    0  501 -0.00000000000E+00  0.00000000000E+00  0.22807918730E+03  0.22807918730E+03  0.00000000000E+00 0.  1.
          3   -1    0    0  501    0  0.00000000000E+00 -0.00000000000E+00 -0.26795162963E+03  0.26795162963E+03  0.00000000000E+00 0. -1.
         23    2    1    2    0    0  0.85964909287E+02 -0.15828722969E+03 -0.15422510983E+03  0.25265263253E+03  0.87196075102E+02 0.  0.
          5    1    1    2  502    0 -0.10649890337E+03  0.80124459417E+02  0.79389142492E+02  0.15519881237E+03  0.47000000000E+01 0. -1.
         -5    1    1    2    0  502  0.20533994084E+02  0.78162770273E+02  0.34963525011E+02  0.88179372026E+02  0.47000000000E+01 0.  1.
        -11    1    3    3    0    0  0.40314329289E+02 -0.50062627850E+02 -0.75138561536E+01  0.64714526094E+02  0.00000000000E+00 0.  1.
         11    1    3    3    0    0  0.45650579998E+02 -0.10822460184E+03 -0.14671125367E+03  0.18793810644E+03  0.00000000000E+00 0. -1.
<mgrwt>
<rscale>  0 0.21106176E+03</rscale>
<asrwt>0</asrwt>
<pdfrwt beam="2">  1        3 0.41223327E-01 0.21484042E+03</pdfrwt>
<pdfrwt beam="1">  1       -3 0.35089106E-01 0.21484042E+03</pdfrwt>
<totfact> 0.11505761E+02</totfact>
</mgrwt>
</event>
<event>
 7    1  0.5107591E-006  0.1533768E+03  0.7546771E-02  0.1205117E+00
          1   -1    0    0  501    0  0.00000000000E+00  0.00000000000E+00  0.85806501325E+02  0.85806501325E+02  0.00000000000E+00 0. -1.
         -1   -1    0    0    0  501 -0.00000000000E+00 -0.00000000000E+00 -0.24907345310E+03  0.24907345310E+03  0.00000000000E+00 0.  1.
         23    2    1    2    0    0  0.53202441627E+02 -0.71195049205E+02 -0.27075138657E+02  0.12976372688E+03  0.90588778847E+02 0.  0.
          5    1    1    2  502    0 -0.42233955414E+02  0.77220412388E+02 -0.15719514072E+03  0.18021959201E+03  0.47000000000E+01 0. -1.
         -5    1    1    2    0  502 -0.10968486213E+02 -0.60253631825E+01  0.21003327596E+02  0.24896635543E+02  0.47000000000E+01 0. -1.
        -11    1    3    3    0    0  0.18452483360E+02  0.19467424209E+02  0.54416929747E+01  0.27369449573E+02  0.00000000000E+00 0. -1.
         11    1    3    3    0    0  0.34749958267E+02 -0.90662473414E+02 -0.32516831632E+02  0.10239427730E+03  0.00000000000E+00 0.  1.
<mgrwt>
<rscale>  0 0.14628232E+03</rscale>
<asrwt>0</asrwt>
<pdfrwt beam="1">  1        1 0.13201000E-01 0.15337685E+03</pdfrwt>
<pdfrwt beam="2">  1       -1 0.38318993E-01 0.15337685E+03</pdfrwt>
<totfact> 0.28600019E+03</totfact>
</mgrwt>
</event>
<event>
 7    1  0.5107591E-006  0.1305740E+03  0.7546771E-02  0.1240111E+00
         -2   -1    0    0    0  501 -0.00000000000E+00  0.00000000000E+00  0.17599796231E+02  0.17599796231E+02  0.00000000000E+00 0.  1.
          2   -1    0    0  501    0  0.00000000000E+00 -0.00000000000E+00 -0.74991971423E+03  0.74991971423E+03  0.00000000000E+00 0. -1.
         23    2    1    2    0    0  0.28518044772E+02  0.24724590820E+02 -0.33327096114E+03  0.34765092211E+03  0.91471557535E+02 0.  0.
          5    1    1    2  502    0 -0.67742372164E+02  0.19985375924E+02 -0.20730616469E+03  0.21905793789E+03  0.47000000000E+01 0. -1.
         -5    1    1    2    0  502  0.39224327392E+02 -0.44709966745E+02 -0.19174279217E+03  0.20081065045E+03  0.47000000000E+01 0. -1.
        -11    1    3    3    0    0  0.47529633511E+01 -0.34194772635E+02 -0.95896812518E+02  0.10192189062E+03  0.00000000000E+00 0. -1.
         11    1    3    3    0    0  0.23765081421E+02  0.58919363455E+02 -0.23737414862E+03  0.24572903149E+03  0.00000000000E+00 0.  1.
<mgrwt>
<rscale>  0 0.12182862E+03</rscale>
<asrwt>0</asrwt>
<pdfrwt beam="2">  1        2 0.11537226E+00 0.13057397E+03</pdfrwt>
<pdfrwt beam="1">  1       -2 0.27076610E-02 0.13057397E+03</pdfrwt>
<totfact> 0.17985216E+04</totfact>
</mgrwt>
</event>
<event>
 7    1  0.5107591E-006  0.1435478E+03  0.7546771E-02  0.1210570E+00
         -1   -1    0    0    0  501 -0.00000000000E+00  0.00000000000E+00  0.20074352378E+03  0.20074352378E+03  0.00000000000E+00 0.  1.
          1   -1    0    0  501    0  0.00000000000E+00 -0.00000000000E+00 -0.10681681180E+03  0.10681681180E+03  0.00000000000E+00 0. -1.
         23    2    1    2    0    0 -0.16778908032E+02  0.68552511465E+02  0.32380801659E+01  0.13776513881E+03  0.11826990202E+03 0.  0.
          5    1    1    2  502    0  0.27162768124E+02 -0.77578614045E+02  0.11502085096E+03  0.14145014487E+03  0.47000000000E+01 0.  1.
         -5    1    1    2    0  502 -0.10383860092E+02  0.90261025798E+01 -0.24332219144E+02  0.28345051891E+02  0.47000000000E+01 0.  1.
        -11    1    3    3    0    0 -0.25674656618E+02  0.94411900101E+02 -0.22298091348E+02  0.10034938839E+03  0.00000000000E+00 0. -1.
         11    1    3    3    0    0  0.88957485865E+01 -0.25859388636E+02  0.25536171514E+02  0.37415750415E+02  0.00000000000E+00 0.  1.
<mgrwt>
<rscale>  0 0.14206998E+03</rscale>
<asrwt>0</asrwt>
<pdfrwt beam="2">  1        1 0.16433356E-01 0.14354783E+03</pdfrwt>
<pdfrwt beam="1">  1       -1 0.30883619E-01 0.14354783E+03</pdfrwt>
<totfact> 0.31055578E+03</totfact>
</mgrwt>
</event>
<event>
 7    1  0.5107591E-006  0.1572420E+03  0.7546771E-02  0.1200111E+00
          2   -1    0    0  501    0  0.00000000000E+00  0.00000000000E+00  0.76606454408E+02  0.76606454408E+02  0.00000000000E+00 0. -1.
         -2   -1    0    0    0  501 -0.00000000000E+00 -0.00000000000E+00 -0.27569696611E+03  0.27569696611E+03  0.00000000000E+00 0.  1.
         23    2    1    2    0    0  0.71189612799E+00 -0.95395834927E+02 -0.69305794453E+02  0.14841833843E+03  0.90132335594E+02 0.  0.
          5    1    1    2  502    0 -0.11308986430E+02 -0.36619173356E+01  0.20118386631E+02  0.23835735635E+02  0.47000000000E+01 0.  1.
         -5    1    1    2    0  502  0.10597090302E+02  0.99057752263E+02 -0.14990310388E+03  0.18004934646E+03  0.47000000000E+01 0.  1.
        -11    1    3    3    0    0  0.80256012746E+01 -0.10791127071E+03 -0.39354302247E+02  0.11514344848E+03  0.00000000000E+00 0. -1.
         11    1    3    3    0    0 -0.73137051466E+01  0.12515435783E+02 -0.29951492206E+02  0.33274889950E+02  0.00000000000E+00 0.  1.
<mgrwt>
<rscale>  0 0.15029532E+03</rscale>
<asrwt>0</asrwt>
<pdfrwt beam="1">  1        2 0.11785608E-01 0.15724202E+03</pdfrwt>
<pdfrwt beam="2">  1       -2 0.42414918E-01 0.15724202E+03</pdfrwt>
<totfact> 0.26961268E+03</totfact>
</mgrwt>
</event>
<event>
 7    1  0.5107591E-006  0.1610872E+03  0.7546771E-02  0.1194643E+00
         -1   -1    0    0    0  501 -0.00000000000E+00  0.00000000000E+00  0.22715403045E+03  0.22715403045E+03  0.00000000000E+00 0.  1.
          1   -1    0    0  501    0  0.00000000000E+00 -0.00000000000E+00 -0.11108098309E+03  0.11108098309E+03  0.00000000000E+00 0. -1.
         23    2    1    2    0    0  0.95984806520E+02 -0.33473970413E+02 -0.35697965863E+01  0.13757735131E+03  0.92634736299E+02 0.  0.
          5    1    1    2  502    0  0.20992743688E+02  0.18202910100E+02 -0.53906969707E+01  0.28691302471E+02  0.47000000000E+01 0.  1.
         -5    1    1    2    0  502 -0.11697755021E+03  0.15271060313E+02  0.12503354091E+03  0.17196635976E+03  0.47000000000E+01 0.  1.
        -11    1    3    3    0    0 -0.12617683372E+01  0.21651946005E+02  0.11881769499E+02  0.24730047949E+02  0.00000000000E+00 0.  1.
         11    1    3    3    0    0  0.97246574857E+02 -0.55125916417E+02 -0.15451566086E+02  0.11284730336E+03  0.00000000000E+00 0. -1.
<mgrwt>
<rscale>  0 0.15484456E+03</rscale>
<asrwt>0</asrwt>
<pdfrwt beam="2">  1        1 0.17089382E-01 0.16108720E+03</pdfrwt>
<pdfrwt beam="1">  1       -1 0.34946774E-01 0.16108720E+03</pdfrwt>
<totfact> 0.24042444E+03</totfact>
</mgrwt>
</event>
<event>
 7    1  0.5107591E-006  0.1314608E+03  0.7546771E-02  0.1239507E+00
         -3   -1    0    0    0  501 -0.00000000000E+00  0.00000000000E+00  0.78880310375E+02  0.78880310375E+02  0.00000000000E+00 0.  1.
          3   -1    0    0  501    0  0.00000000000E+00 -0.00000000000E+00 -0.16881532199E+03  0.16881532199E+03  0.00000000000E+00 0. -1.
         23    2    1    2    0    0 -0.84037129979E+01 -0.39814921576E+02 -0.50843939073E+02  0.11054587237E+03  0.89327674241E+02 0.  0.
          5    1    1    2  502    0  0.57104398854E+02  0.41227138372E+02  0.56784431800E+01  0.70816128274E+02  0.47000000000E+01 0.  1.
         -5    1    1    2    0  502 -0.48700685856E+02 -0.14122167954E+01 -0.44769515724E+02  0.66333631721E+02  0.47000000000E+01 0.  1.
        -11    1    3    3    0    0 -0.15743441264E+02 -0.12797689329E+02  0.23534643652E+02  0.31072757309E+02  0.00000000000E+00 0.  1.
         11    1    3    3    0    0  0.73397282662E+01 -0.27017232247E+02 -0.74378582725E+02  0.79473115061E+02  0.00000000000E+00 0. -1.
<mgrwt>
<rscale>  0 0.12220256E+03</rscale>
<asrwt>0</asrwt>
<pdfrwt beam="2">  1        3 0.25971588E-01 0.13146081E+03</pdfrwt>
<pdfrwt beam="1">  1       -3 0.12135432E-01 0.13146081E+03</pdfrwt>
<totfact> 0.17057171E+03</totfact>
</mgrwt>
</event>
<event>
 7    1  0.5107591E-006  0.2448468E+03  0.7546771E-02  0.1119346E+00
          1   -1    0    0  501    0  0.00000000000E+00  0.00000000000E+00  0.10596718707E+04  0.10596718707E+04  0.00000000000E+00 0. -1.
         -1   -1    0    0    0  501 -0.00000000000E+00 -0.00000000000E+00 -0.54278625971E+02  0.54278625971E+02  0.00000000000E+00 0.  1.
         23    2    1    2    0    0  0.19863165551E+03 -0.69798719068E+02  0.57534779418E+03  0.61908783870E+03  0.88984672898E+02 0.  0.
          5    1    1    2  502    0 -0.15603927491E+03  0.10527797409E+03  0.31304844876E+03  0.36531237101E+03  0.47000000000E+01 0.  1.
         -5    1    1    2    0  502 -0.42592380604E+02 -0.35479255020E+02  0.11699700180E+03  0.12955028697E+03  0.47000000000E+01 0.  1.
        -11    1    3    3    0    0  0.54390591931E+02 -0.64305177737E+02  0.21063334592E+03  0.22684774363E+03  0.00000000000E+00 0.  1.
         11    1    3    3    0    0  0.14424106358E+03 -0.54935413313E+01  0.36471444825E+03  0.39224009508E+03  0.00000000000E+00 0. -1.
<mgrwt>
<rscale>  0 0.24067229E+03</rscale>
<asrwt>0</asrwt>
<pdfrwt beam="1">  1        1 0.16302643E+00 0.24484681E+03</pdfrwt>
<pdfrwt beam="2">  1       -1 0.83505587E-02 0.24484681E+03</pdfrwt>
<totfact> 0.11654876E+03</totfact>
</mgrwt>
</event>
<event>
 7    1  0.5107591E-006  0.1616190E+03  0.7546771E-02  0.1194160E+00
          1   -1    0    0  501    0  0.00000000000E+00  0.00000000000E+00  0.65732168526E+03  0.65732168526E+03  0.00000000000E+00 0. -1.
         -1   -1    0    0    0  501 -0.00000000000E+00 -0.00000000000E+00 -0.37677842170E+02  0.37677842170E+02  0.00000000000E+00 0.  1.
         23    2    1    2    0    0  0.48816237894E+02  0.90075879456E+02  0.39475802055E+03  0.41806209958E+03  0.91898504746E+02 0.  0.
          5    1    1    2  502    0 -0.33921670420E+01  0.28434925728E+02  0.17909580197E+02  0.34101244277E+02  0.47000000000E+01 0. -1.
         -5    1    1    2    0  502 -0.45424070852E+02 -0.11851080518E+03  0.20697624234E+03  0.24283618357E+03  0.47000000000E+01 0. -1.
        -11    1    3    3    0    0 -0.23684732904E+01  0.25135558952E+02  0.14915226543E+02  0.29323539561E+02  0.00000000000E+00 0.  1.
         11    1    3    3    0    0  0.51184711185E+02  0.64940320504E+02  0.37984279401E+03  0.38873856002E+03  0.00000000000E+00 0. -1.
<mgrwt>
<rscale>  0 0.15525573E+03</rscale>
<asrwt>0</asrwt>
<pdfrwt beam="1">  1        1 0.10112640E+00 0.16161901E+03</pdfrwt>
<pdfrwt beam="2">  1       -1 0.57965916E-02 0.16161901E+03</pdfrwt>
<totfact> 0.42558623E+03</totfact>
</mgrwt>
</event>
<event>
 7    1  0.5107591E-006  0.1280886E+03  0.7546771E-02  0.1242532E+00
         -3   -1    0    0    0  501 -0.00000000000E+00  0.00000000000E+00  0.26641462533E+03  0.26641462533E+03  0.00000000000E+00 0.  1.
          3   -1    0    0  501    0  0.00000000000E+00 -0.00000000000E+00 -0.53964574205E+02  0.53964574205E+02  0.00000000000E+00 0. -1.
         23    2    1    2    0    0  0.54828755834E+01  0.27362822667E+02  0.44802188846E+02  0.10939933708E+03  0.95823759265E+02 0.  0.
          5    1    1    2  502    0 -0.56556662333E+02  0.85823474182E+01  0.11741380576E+03  0.13069202166E+03  0.47000000000E+01 0. -1.
         -5    1    1    2    0  502  0.51073786749E+02 -0.35945170085E+02  0.50234056518E+02  0.80287840796E+02  0.47000000000E+01 0. -1.
        -11    1    3    3    0    0  0.36953201913E+02 -0.20470199912E+02  0.14828165239E+02  0.44771002897E+02  0.00000000000E+00 0.  1.
         11    1    3    3    0    0 -0.31470326329E+02  0.47833022580E+02  0.29974023607E+02  0.64628334185E+02  0.00000000000E+00 0. -1.
<mgrwt>
<rscale>  0 0.12034296E+03</rscale>
<asrwt>0</asrwt>
<pdfrwt beam="2">  1        3 0.83022424E-02 0.12808863E+03</pdfrwt>
<pdfrwt beam="1">  1       -3 0.40986865E-01 0.12808863E+03</pdfrwt>
<totfact> 0.13543171E+03</totfact>
</mgrwt>
</event>
<event>
 7    1  0.5107591E-006  0.1274216E+03  0.7546771E-02  0.1246842E+00
         -1   -1    0    0    0  501 -0.00000000000E+00  0.00000000000E+00  0.34477387001E+02  0.34477387001E+02  0.00000000000E+00 0.  1.
          1   -1    0    0  501    0  0.00000000000E+00 -0.00000000000E+00 -0.52619903520E+03  0.52619903520E+03  0.00000000000E+00 0. -1.
         23    2    1    2    0    0 -0.19429628031E+02  0.15204649010E+02 -0.38003390751E+03  0.39123496786E+03  0.89612149955E+02 0.  0.
          5    1    1    2  502    0 -0.53006755910E+02 -0.26960270591E+01 -0.39695311323E+02  0.66443904724E+02  0.47000000000E+01 0. -1.
         -5    1    1    2    0  502  0.72436383941E+02 -0.12508621950E+02 -0.71992429364E+02  0.10299754962E+03  0.47000000000E+01 0. -1.
        -11    1    3    3    0    0 -0.53547120186E+02  0.11213908611E+02 -0.28452013455E+03  0.28973220876E+03  0.00000000000E+00 0. -1.
         11    1    3    3    0    0  0.34117492155E+02  0.39907403984E+01 -0.95513772960E+02  0.10150275910E+03  0.00000000000E+00 0.  1.
<mgrwt>
<rscale>  0 0.11775797E+03</rscale>
<asrwt>0</asrwt>
<pdfrwt beam="2">  1        1 0.80953693E-01 0.12742156E+03</pdfrwt>
<pdfrwt beam="1">  1       -1 0.53042137E-02 0.12742156E+03</pdfrwt>
<totfact> 0.64923634E+03</totfact>
</mgrwt>
</event>
<event>
 7    1  0.5107591E-006  0.1600554E+03  0.7546771E-02  0.1196725E+00
          1   -1    0    0  501    0  0.00000000000E+00  0.00000000000E+00  0.39413930189E+03  0.39413930189E+03  0.00000000000E+00 0. -1.
         -1   -1    0    0    0  501 -0.00000000000E+00 -0.00000000000E+00 -0.84186052641E+02  0.84186052641E+02  0.00000000000E+00 0.  1.
         23    2    1    2    0    0  0.41766016711E+02  0.90819274992E+02  0.28687658479E+03  0.31661490427E+03  0.89186780662E+02 0.  0.
          5    1    1    2  502    0 -0.39699351145E+02 -0.56426551511E+02  0.73204266711E+02  0.10070227833E+03  0.47000000000E+01 0.  1.
         -5    1    1    2    0  502 -0.20666655663E+01 -0.34392723481E+02 -0.50127602247E+02  0.61008171929E+02  0.47000000000E+01 0.  1.
        -11    1    3    3    0    0  0.35413434661E+02 -0.31255527574E+01  0.11827310946E+03  0.12350064314E+03  0.00000000000E+00 0.  1.
         11    1    3    3    0    0  0.63525820499E+01  0.93944827750E+02  0.16860347533E+03  0.19311426113E+03  0.00000000000E+00 0. -1.
<mgrwt>
<rscale>  0 0.15309156E+03</rscale>
<asrwt>0</asrwt>
<pdfrwt beam="1">  1        1 0.60636815E-01 0.16005542E+03</pdfrwt>
<pdfrwt beam="2">  1       -1 0.12951701E-01 0.16005542E+03</pdfrwt>
<totfact> 0.24614272E+03</totfact>
</mgrwt>
</event>
<event>
 7    1  0.5107591E-006  0.1366458E+03  0.7546771E-02  0.1226220E+00
          2   -1    0    0  501    0  0.00000000000E+00  0.00000000000E+00  0.34421933168E+03  0.34421933168E+03  0.00000000000E+00 0. -1.
         -2   -1    0    0    0  501 -0.00000000000E+00 -0.00000000000E+00 -0.48219781632E+02  0.48219781632E+02  0.00000000000E+00 0.  1.
         23    2    1    2    0    0 -0.54122117917E+02 -0.10834796575E+02  0.17832152483E+03  0.21210556342E+03  0.10071547721E+03 0.  0.
          5    1    1    2  502    0 -0.27807155353E+02  0.40334901619E+02  0.47469451435E+02  0.68378220195E+02  0.47000000000E+01 0. -1.
         -5    1    1    2    0  502  0.81929273270E+02 -0.29500105043E+02  0.70208573780E+02  0.11195532970E+03  0.47000000000E+01 0. -1.
        -11    1    3    3    0    0  0.82118978828E+01 -0.43042742512E+02  0.81517654813E+02  0.92548587218E+02  0.00000000000E+00 0. -1.
         11    1    3    3    0    0 -0.62334015800E+02  0.32207945936E+02  0.96803870021E+02  0.11955697620E+03  0.00000000000E+00 0.  1.
<mgrwt>
<rscale>  0 0.13083641E+03</rscale>
<asrwt>0</asrwt>
<pdfrwt beam="1">  1        2 0.52956819E-01 0.13664579E+03</pdfrwt>
<pdfrwt beam="2">  1       -2 0.74184282E-02 0.13664579E+03</pdfrwt>
<totfact> 0.95058041E+03</totfact>
</mgrwt>
</event>
<event>
 7    1  0.5107591E-006  0.1324494E+03  0.7546771E-02  0.1234003E+00
         -1   -1    0    0    0  501 -0.00000000000E+00  0.00000000000E+00  0.38601265987E+03  0.38601265987E+03  0.00000000000E+00 0.  1.
          1   -1    0    0  501    0  0.00000000000E+00 -0.00000000000E+00 -0.38085829191E+02  0.38085829191E+02  0.00000000000E+00 0. -1.
         23    2    1    2    0    0 -0.28856886319E+02  0.32977748026E+02  0.12505419796E+03  0.16483982470E+03  0.98047761957E+02 0.  0.
          5    1    1    2  502    0 -0.51865229550E+01  0.76919981417E+01  0.20168439742E+03  0.20195235334E+03  0.47000000000E+01 0.  1.
         -5    1    1    2    0  502  0.34043409274E+02 -0.40669746168E+02  0.21188235292E+02  0.57306311023E+02  0.47000000000E+01 0.  1.
        -11    1    3    3    0    0  0.26947148720E+01 -0.28770393851E+02  0.10137631105E+02  0.30623007935E+02  0.00000000000E+00 0. -1.
         11    1    3    3    0    0 -0.31551601191E+02  0.61748141877E+02  0.11491656686E+03  0.13421681676E+03  0.00000000000E+00 0.  1.
<mgrwt>
<rscale>  0 0.12568492E+03</rscale>
<asrwt>0</asrwt>
<pdfrwt beam="2">  1        1 0.58593586E-02 0.13244940E+03</pdfrwt>
<pdfrwt beam="1">  1       -1 0.59386560E-01 0.13244940E+03</pdfrwt>
<totfact> 0.37925246E+03</totfact>
</mgrwt>
</event>
<event>
 7    1  0.5107591E-006  0.1419700E+03  0.7546771E-02  0.1221802E+00
         -1   -1    0    0    0  501 -0.00000000000E+00  0.00000000000E+00  0.18318513606E+03  0.18318513606E+03  0.00000000000E+00 0.  1.
          1   -1    0    0  501    0  0.00000000000E+00 -0.00000000000E+00 -0.99548980679E+02  0.99548980679E+02  0.00000000000E+00 0. -1.
         23    2    1    2    0    0  0.83716313108E+01 -0.66783169990E+02 -0.98935908803E+01  0.11272443340E+03  0.89882360561E+02 0.  0.
          5    1    1    2  502    0  0.50779757337E+02  0.44189439803E+02  0.80767178458E+02  0.10524598549E+03  0.47000000000E+01 0. -1.
         -5    1    1    2    0  502 -0.59151388647E+02  0.22593730187E+02  0.12762567806E+02  0.64763697854E+02  0.47000000000E+01 0. -1.
        -11    1    3    3    0    0  0.82547129320E+01 -0.18194512492E+02  0.38983600234E+02  0.43805269747E+02  0.00000000000E+00 0.  1.
         11    1    3    3    0    0  0.11691837871E+00 -0.48588657498E+02 -0.48877191114E+02  0.68919163653E+02  0.00000000000E+00 0. -1.
<mgrwt>
<rscale>  0 0.13388507E+03</rscale>
<asrwt>0</asrwt>
<pdfrwt beam="2">  1        1 0.15315228E-01 0.14196999E+03</pdfrwt>
<pdfrwt beam="1">  1       -1 0.28182329E-01 0.14196999E+03</pdfrwt>
<totfact> 0.39640063E+03</totfact>
</mgrwt>
</event>
<event>
 7    1  0.5107591E-006  0.1494202E+03  0.7546771E-02  0.1210140E+00
          2   -1    0    0  501    0  0.00000000000E+00  0.00000000000E+00  0.19292322216E+03  0.19292322216E+03  0.00000000000E+00 0. -1.
         -2   -1    0    0    0  501 -0.00000000000E+00 -0.00000000000E+00 -0.10543210196E+03  0.10543210196E+03  0.00000000000E+00 0.  1.
         23    2    1    2    0    0 -0.75091155922E+02 -0.32563638740E+02  0.83524760236E+02  0.14888245548E+03  0.92144059559E+02 0.  0.
          5    1    1    2  502    0  0.38659254423E+02  0.26896320058E+02  0.63555395167E+02  0.79242212488E+02  0.47000000000E+01 0. -1.
         -5    1    1    2    0  502  0.36431901499E+02  0.56673186816E+01 -0.59589035195E+02  0.70230656151E+02  0.47000000000E+01 0. -1.
        -11    1    3    3    0    0 -0.55044315351E+02 -0.57929258409E+01 -0.36937828839E+01  0.55471422140E+02  0.00000000000E+00 0.  1.
         11    1    3    3    0    0 -0.20046840571E+02 -0.26770712899E+02  0.87218543120E+02  0.93411033342E+02  0.00000000000E+00 0. -1.
<mgrwt>
<rscale>  0 0.14239684E+03</rscale>
<asrwt>0</asrwt>
<pdfrwt beam="1">  1        2 0.29680496E-01 0.14942023E+03</pdfrwt>
<pdfrwt beam="2">  1       -2 0.16220323E-01 0.14942023E+03</pdfrwt>
<totfact> 0.51223377E+03</totfact>
</mgrwt>
</event>
<event>
 7    1  0.5107591E-006  0.1338169E+03  0.7546771E-02  0.1234804E+00
         -2   -1    0    0    0  501 -0.00000000000E+00  0.00000000000E+00  0.21756030322E+02  0.21756030322E+02  0.00000000000E+00 0. -1.
          2   -1    0    0  501    0  0.00000000000E+00 -0.00000000000E+00 -0.64150494093E+03  0.64150494093E+03  0.00000000000E+00 0.  1.
         23    2    1    2    0    0 -0.33208682756E+02  0.34363828191E+02 -0.27301070204E+03  0.29159665978E+03  0.90609487734E+02 0.  0.
          5    1    1    2  502    0 -0.12437429099E+02 -0.12554460053E+02  0.27591009686E+01  0.18493424452E+02  0.47000000000E+01 0. -1.
         -5    1    1    2    0  502  0.45646111855E+02 -0.21809368138E+02 -0.34949730954E+03  0.35317088702E+03  0.47000000000E+01 0. -1.
        -11    1    3    3    0    0  0.30583021878E+02  0.19320811371E+02 -0.11421399208E+03  0.11980588870E+03  0.00000000000E+00 0.  1.
         11    1    3    3    0    0 -0.63791704635E+02  0.15043016820E+02 -0.15879670996E+03  0.17179077108E+03  0.00000000000E+00 0. -1.
<mgrwt>
<rscale>  0 0.12516986E+03</rscale>
<asrwt>0</asrwt>
<pdfrwt beam="2">  1        2 0.98693058E-01 0.13381695E+03</pdfrwt>
<pdfrwt beam="1">  1       -2 0.33470819E-02 0.13381695E+03</pdfrwt>
<totfact> 0.15875721E+04</totfact>
</mgrwt>
</event>
<event>
 7    1  0.5107591E-006  0.1409040E+03  0.7546771E-02  0.1223239E+00
          2   -1    0    0  501    0  0.00000000000E+00  0.00000000000E+00  0.64872359442E+03  0.64872359442E+03  0.00000000000E+00 0. -1.
         -2   -1    0    0    0  501 -0.00000000000E+00 -0.00000000000E+00 -0.26047248589E+02  0.26047248589E+02  0.00000000000E+00 0.  1.
         23    2    1    2    0    0  0.63894681746E+02 -0.12094327614E+02  0.35766747605E+03  0.37463147677E+03  0.90520256551E+02 0.  0.
          5    1    1    2  502    0 -0.45885365681E+02  0.26307675994E+02  0.27084746790E+03  0.27600362582E+03  0.47000000000E+01 0.  1.
         -5    1    1    2    0  502 -0.18009316065E+02 -0.14213348381E+02 -0.58385981225E+01  0.24135740414E+02  0.47000000000E+01 0.  1.
        -11    1    3    3    0    0 -0.39223489389E+01 -0.31045412924E+02  0.49810315435E+02  0.58824059777E+02  0.00000000000E+00 0.  1.
         11    1    3    3    0    0  0.67817030685E+02  0.18951085311E+02  0.30785716062E+03  0.31580741699E+03  0.00000000000E+00 0. -1.
<mgrwt>
<rscale>  0 0.13288305E+03</rscale>
<asrwt>0</asrwt>
<pdfrwt beam="1">  1        2 0.99803618E-01 0.14090400E+03</pdfrwt>
<pdfrwt beam="2">  1       -2 0.40072695E-02 0.14090400E+03</pdfrwt>
<totfact> 0.12047887E+04</totfact>
</mgrwt>
</event>
<event>
 7    1  0.5107591E-006  0.2310774E+03  0.7546771E-02  0.1125884E+00
          2   -1    0    0  501    0  0.00000000000E+00  0.00000000000E+00  0.17249541369E+03  0.17249541369E+03  0.00000000000E+00 0. -1.
         -2   -1    0    0    0  501 -0.00000000000E+00 -0.00000000000E+00 -0.77388697863E+02  0.77388697863E+02  0.00000000000E+00 0.  1.
         23    2    1    2    0    0  0.15783123772E+02  0.57607241473E+01  0.87736477443E+02  0.12349884812E+03  0.85275923180E+02 0.  0.
          5    1    1    2  502    0  0.31772399548E+02  0.59881928757E+01  0.51034091391E+02  0.60596306084E+02  0.47000000000E+01 0. -1.
         -5    1    1    2    0  502 -0.47555523321E+02 -0.11748917023E+02 -0.43663853007E+02  0.65788957348E+02  0.47000000000E+01 0. -1.
        -11    1    3    3    0    0 -0.21686050797E+02  0.30132487616E+02  0.19523026241E+02  0.41945204287E+02  0.00000000000E+00 0.  1.
         11    1    3    3    0    0  0.37469174570E+02 -0.24371763469E+02  0.68213451202E+02  0.81553643832E+02  0.00000000000E+00 0. -1.
<mgrwt>
<rscale>  0 0.23107744E+03</rscale>
<asrwt>0</asrwt>
<pdfrwt beam="1">  1        2 0.26537756E-01 0.23107744E+03</pdfrwt>
<pdfrwt beam="2">  1       -2 0.11905954E-01 0.23107744E+03</pdfrwt>
<totfact> 0.98643458E+03</totfact>
</mgrwt>
</event>
<event>
 7    1  0.5107591E-006  0.1760149E+03  0.7546771E-02  0.1195946E+00
         -2   -1    0    0    0  501 -0.00000000000E+00  0.00000000000E+00  0.61284897650E+02  0.61284897650E+02  0.00000000000E+00 0.  1.
          2   -1    0    0  501    0  0.00000000000E+00 -0.00000000000E+00 -0.31811886596E+03  0.31811886596E+03  0.00000000000E+00 0. -1.
         23    2    1    2    0    0 -0.26334776218E+01  0.41273776659E+02 -0.10836439555E+03  0.14913337401E+03  0.93741459216E+02 0.  0.
          5    1    1    2  502    0 -0.77638828353E+02 -0.95627798252E+01 -0.11143988752E+03  0.13623572570E+03  0.47000000000E+01 0. -1.
         -5    1    1    2    0  502  0.80272305974E+02 -0.31710996833E+02 -0.37029685240E+02  0.94034663904E+02  0.47000000000E+01 0.  1.
        -11    1    3    3    0    0 -0.47217297091E+02  0.31105113301E+02 -0.55393139070E+02  0.79154286517E+02  0.00000000000E+00 0. -1.
         11    1    3    3    0    0  0.44583819469E+02  0.10168663358E+02 -0.52971256479E+02  0.69979087490E+02  0.00000000000E+00 0.  1.
<mgrwt>
<rscale>  0 0.15374463E+03</rscale>
<asrwt>0</asrwt>
<pdfrwt beam="2">  1        2 0.48941364E-01 0.17601488E+03</pdfrwt>
<pdfrwt beam="1">  1       -2 0.94284458E-02 0.17601488E+03</pdfrwt>
<totfact> 0.72413949E+03</totfact>
</mgrwt>
</event>
<event>
 7    1  0.5107591E-006  0.1407394E+03  0.7546771E-02  0.1225662E+00
          4   -1    0    0  501    0  0.00000000000E+00  0.00000000000E+00  0.99667555779E+02  0.99667555779E+02  0.00000000000E+00 0. -1.
         -4   -1    0    0    0  501 -0.00000000000E+00 -0.00000000000E+00 -0.17067685787E+03  0.17067685787E+03  0.00000000000E+00 0.  1.
         23    2    1    2    0    0  0.63838426537E+02  0.10347075597E+02  0.11891099239E+02  0.10700409456E+03  0.84416060887E+02 0.  0.
          5    1    1    2  502    0 -0.67320306935E+01 -0.35192324449E+02 -0.93274727266E+02  0.10003041879E+03  0.47000000000E+01 0. -1.
         -5    1    1    2    0  502 -0.57106395843E+02  0.24845248852E+02  0.10374325936E+02  0.63309900295E+02  0.47000000000E+01 0. -1.
        -11    1    3    3    0    0  0.15699940591E+02  0.44521035221E+02  0.30049883999E+01  0.47303706694E+02  0.00000000000E+00 0. -1.
         11    1    3    3    0    0  0.48138485946E+02 -0.34173959624E+02  0.88861108391E+01  0.59700387867E+02  0.00000000000E+00 0.  1.
<mgrwt>
<rscale>  0 0.13121616E+03</rscale>
<asrwt>0</asrwt>
<pdfrwt beam="1">  1        4 0.15333470E-01 0.14073942E+03</pdfrwt>
<pdfrwt beam="2">  1       -4 0.26257978E-01 0.14073942E+03</pdfrwt>
<totfact> 0.82550549E+02</totfact>
</mgrwt>
</event>
<event>
 7    1  0.5107591E-006  0.1317025E+03  0.7546771E-02  0.1238320E+00
          2   -1    0    0  501    0  0.00000000000E+00  0.00000000000E+00  0.36445897586E+03  0.36445897586E+03  0.00000000000E+00 0. -1.
         -2   -1    0    0    0  501 -0.00000000000E+00 -0.00000000000E+00 -0.37484860454E+02  0.37484860454E+02  0.00000000000E+00 0.  1.
         23    2    1    2    0    0  0.18777909685E+02 -0.36995241575E+02  0.11515504155E+03  0.15251878084E+03  0.90994709302E+02 0.  0.
          5    1    1    2  502    0  0.21077074903E+02 -0.33096592691E+02  0.27380290662E+02  0.48076999189E+02  0.47000000000E+01 0. -1.
         -5    1    1    2    0  502 -0.39854984588E+02  0.70091834266E+02  0.18443878319E+03  0.20134805629E+03  0.47000000000E+01 0. -1.
        -11    1    3    3    0    0  0.14537265462E+02  0.21682597520E+02  0.35340723705E+01  0.26343059614E+02  0.00000000000E+00 0.  1.
         11    1    3    3    0    0  0.42406442229E+01 -0.58677839095E+02  0.11162096918E+03  0.12617572122E+03  0.00000000000E+00 0. -1.
<mgrwt>
<rscale>  0 0.12294262E+03</rscale>
<asrwt>0</asrwt>
<pdfrwt beam="1">  1        2 0.56070609E-01 0.13170246E+03</pdfrwt>
<pdfrwt beam="2">  1       -2 0.57669018E-02 0.13170246E+03</pdfrwt>
<totfact> 0.13094061E+04</totfact>
</mgrwt>
</event>
<event>
 7    1  0.5107591E-006  0.1456677E+03  0.7546771E-02  0.1217321E+00
          2   -1    0    0  501    0  0.00000000000E+00  0.00000000000E+00  0.43874522360E+02  0.43874522360E+02  0.00000000000E+00 0. -1.
         -2   -1    0    0    0  501 -0.00000000000E+00 -0.00000000000E+00 -0.54459805725E+03  0.54459805725E+03  0.00000000000E+00 0.  1.
         23    2    1    2    0    0 -0.30066189306E+02 -0.68398212199E+02 -0.70419126358E+02  0.13418087775E+03  0.86390760065E+02 0.  0.
          5    1    1    2  502    0  0.64874360937E+02  0.58476568023E+02 -0.16746914721E+03  0.18893437216E+03  0.47000000000E+01 0. -1.
         -5    1    1    2    0  502 -0.34808171631E+02  0.99216441756E+01 -0.26283526132E+03  0.26535732971E+03  0.47000000000E+01 0.  1.
        -11    1    3    3    0    0 -0.13393948232E+02  0.19157460084E+02 -0.24710144164E+02  0.34014663760E+02  0.00000000000E+00 0.  1.
         11    1    3    3    0    0 -0.16672241074E+02 -0.87555672283E+02 -0.45708982195E+02  0.10016621399E+03  0.00000000000E+00 0. -1.
<mgrwt>
<rscale>  0 0.13707416E+03</rscale>
<asrwt>0</asrwt>
<pdfrwt beam="1">  1        2 0.67499269E-02 0.14566766E+03</pdfrwt>
<pdfrwt beam="2">  1       -2 0.83784312E-01 0.14566766E+03</pdfrwt>
<totfact> 0.13232151E+03</totfact>
</mgrwt>
</event>
<event>
 7    1  0.5107591E-006  0.1418417E+03  0.7546771E-02  0.1222741E+00
         -1   -1    0    0    0  501 -0.00000000000E+00  0.00000000000E+00  0.71208648144E+02  0.71208648144E+02  0.00000000000E+00 0.  1.
          1   -1    0    0  501    0  0.00000000000E+00 -0.00000000000E+00 -0.29529521538E+03  0.29529521538E+03  0.00000000000E+00 0. -1.
         23    2    1    2    0    0  0.61512971826E+02  0.26685380267E+02 -0.19137639936E+03  0.22093934395E+03  0.87711528597E+02 0.  0.
          5    1    1    2  502    0 -0.49115949381E+02 -0.72251209861E+02  0.75791165358E+00  0.87494446910E+02  0.47000000000E+01 0. -1.
         -5    1    1    2    0  502 -0.12397022445E+02  0.45565829594E+02 -0.33468079527E+02  0.58070072665E+02  0.47000000000E+01 0. -1.
        -11    1    3    3    0    0  0.73230026051E+02 -0.38249610098E+01 -0.10083292535E+03  0.12467776817E+03  0.00000000000E+00 0.  1.
         11    1    3    3    0    0 -0.11717054225E+02  0.30510341277E+02 -0.90543474013E+02  0.96261575776E+02  0.00000000000E+00 0. -1.
<mgrwt>
<rscale>  0 0.13322944E+03</rscale>
<asrwt>0</asrwt>
<pdfrwt beam="2">  1        1 0.45430032E-01 0.14184172E+03</pdfrwt>
<pdfrwt beam="1">  1       -1 0.10955177E-01 0.14184172E+03</pdfrwt>
<totfact> 0.45507345E+03</totfact>
</mgrwt>
</event>
<event>
 7    1  0.5107591E-006  0.1489399E+03  0.7546771E-02  0.1211834E+00
          3   -1    0    0  501    0  0.00000000000E+00  0.00000000000E+00  0.57061603282E+02  0.57061603282E+02  0.00000000000E+00 0. -1.
         -3   -1    0    0    0  501 -0.00000000000E+00 -0.00000000000E+00 -0.35831197218E+03  0.35831197218E+03  0.00000000000E+00 0.  1.
         23    2    1    2    0    0  0.49809067977E+02  0.63854673556E+02 -0.66103614003E+02  0.13702651492E+03  0.88590154184E+02 0.  0.
          5    1    1    2  502    0 -0.76299970183E+02 -0.11299750603E+02 -0.75096507994E+02  0.10775409657E+03  0.47000000000E+01 0.  1.
         -5    1    1    2    0  502  0.26490902206E+02 -0.52554922953E+02 -0.16005024690E+03  0.17059296398E+03  0.47000000000E+01 0.  1.
        -11    1    3    3    0    0  0.59028279599E+02  0.13630393270E+02 -0.60565084862E+02  0.85663614899E+02  0.00000000000E+00 0. -1.
         11    1    3    3    0    0 -0.92192116217E+01  0.50224280287E+02 -0.55385291404E+01  0.51362900018E+02  0.00000000000E+00 0.  1.
<mgrwt>
<rscale>  0 0.14111669E+03</rscale>
<asrwt>0</asrwt>
<pdfrwt beam="1">  1        3 0.87787081E-02 0.14893989E+03</pdfrwt>
<pdfrwt beam="2">  1       -3 0.55124919E-01 0.14893989E+03</pdfrwt>
<totfact> 0.70377773E+02</totfact>
</mgrwt>
</event>
<event>
 7    1  0.5107591E-006  0.2236986E+03  0.7546771E-02  0.1131155E+00
         -2   -1    0    0    0  501 -0.00000000000E+00  0.00000000000E+00  0.79914212993E+02  0.79914212993E+02  0.00000000000E+00 0.  1.
          2   -1    0    0  501    0  0.00000000000E+00 -0.00000000000E+00 -0.15654620576E+03  0.15654620576E+03  0.00000000000E+00 0. -1.
         23    2    1    2    0    0  0.20150374063E+02 -0.10512150825E+02 -0.55735670479E+02  0.10838667881E+03  0.90136919677E+02 0.  0.
          5    1    1    2  502    0  0.17658081739E+02 -0.29541539814E+02 -0.53580004386E+02  0.63854657585E+02  0.47000000000E+01 0. -1.
         -5    1    1    2    0  502 -0.37808455803E+02  0.40053690639E+02  0.32683682099E+02  0.64219082363E+02  0.47000000000E+01 0.  1.
        -11    1    3    3    0    0  0.45930173985E+02 -0.27470341080E+02 -0.56091641869E+02  0.77527239141E+02  0.00000000000E+00 0. -1.
         11    1    3    3    0    0 -0.25779799921E+02  0.16958190256E+02  0.35597138930E+00  0.30859439664E+02  0.00000000000E+00 0.  1.
<mgrwt>
<rscale>  0 0.22369861E+03</rscale>
<asrwt>0</asrwt>
<pdfrwt beam="2">  1        2 0.24084031E-01 0.22369861E+03</pdfrwt>
<pdfrwt beam="1">  1       -2 0.12294495E-01 0.22369861E+03</pdfrwt>
<totfact> 0.10415417E+04</totfact>
</mgrwt>
</event>
<event>
 7    1  0.5107591E-006  0.1347819E+03  0.7546771E-02  0.1233390E+00
          1   -1    0    0  501    0  0.00000000000E+00  0.00000000000E+00  0.17081541986E+03  0.17081541986E+03  0.00000000000E+00 0. -1.
         -1   -1    0    0    0  501 -0.00000000000E+00 -0.00000000000E+00 -0.86151505120E+02  0.86151505120E+02  0.00000000000E+00 0.  1.
         23    2    1    2    0    0 -0.41397301058E+02 -0.28771425459E+02  0.61703988670E+02  0.12024337367E+03  0.90053069003E+02 0.  0.
          5    1    1    2  502    0  0.17391437536E+02  0.74038035169E+02  0.35043711467E+02  0.83870402793E+02  0.47000000000E+01 0. -1.
         -5    1    1    2    0  502  0.24005863522E+02 -0.45266609711E+02 -0.12083785397E+02  0.52853148513E+02  0.47000000000E+01 0. -1.
        -11    1    3    3    0    0 -0.52941616052E+02 -0.36734426520E+02  0.82303906612E+01  0.64961312582E+02  0.00000000000E+00 0.  1.
         11    1    3    3    0    0  0.11544314994E+02  0.79630010611E+01  0.53473598009E+02  0.55282061092E+02  0.00000000000E+00 0. -1.
<mgrwt>
<rscale>  0 0.12608053E+03</rscale>
<asrwt>0</asrwt>
<pdfrwt beam="1">  1        1 0.26279295E-01 0.13478194E+03</pdfrwt>
<pdfrwt beam="2">  1       -1 0.13254078E-01 0.13478194E+03</pdfrwt>
<totfact> 0.66685739E+03</totfact>
</mgrwt>
</event>
<event>
 7    1  0.5107591E-006  0.1896078E+03  0.7546771E-02  0.1161177E+00
          1   -1    0    0  501    0  0.00000000000E+00  0.00000000000E+00  0.69611174863E+03  0.69611174863E+03  0.00000000000E+00 0. -1.
         -1   -1    0    0    0  501 -0.00000000000E+00 -0.00000000000E+00 -0.48972847213E+02  0.48972847213E+02  0.00000000000E+00 0.  1.
         23    2    1    2    0    0  0.14757974680E+03 -0.10997098338E+02  0.32685700990E+03  0.37288623625E+03  0.10152793915E+03 0.  0.
          5    1    1    2  502    0 -0.11813504998E+03  0.56182676998E+02  0.26055344411E+03  0.29158630020E+03  0.47000000000E+01 0. -1.
         -5    1    1    2    0  502 -0.29444696821E+02 -0.45185578660E+02  0.59728447401E+02  0.80612059387E+02  0.47000000000E+01 0.  1.
        -11    1    3    3    0    0  0.11514262359E+03 -0.30346624354E+02  0.14734950347E+03  0.18944819226E+03  0.00000000000E+00 0.  1.
         11    1    3    3    0    0  0.32437123208E+02  0.19349526016E+02  0.17950750643E+03  0.18343804400E+03  0.00000000000E+00 0. -1.
<mgrwt>
<rscale>  0 0.18702030E+03</rscale>
<asrwt>0</asrwt>
<pdfrwt beam="1">  1        1 0.10709411E+00 0.18960783E+03</pdfrwt>
<pdfrwt beam="2">  1       -1 0.75342847E-02 0.18960783E+03</pdfrwt>
<totfact> 0.26565403E+03</totfact>
</mgrwt>
</event>
<event>
 7    1  0.5107591E-006  0.1390121E+03  0.7546771E-02  0.1226130E+00
         -2   -1    0    0    0  501 -0.00000000000E+00  0.00000000000E+00  0.13222284661E+03  0.13222284661E+03  0.00000000000E+00 0.  1.
          2   -1    0    0  501    0  0.00000000000E+00 -0.00000000000E+00 -0.11731542745E+03  0.11731542745E+03  0.00000000000E+00 0. -1.
         23    2    1    2    0    0 -0.39935715588E+02 -0.45881344714E+02 -0.33135559972E+01  0.10933713428E+03  0.90794659020E+02 0.  0.
          5    1    1    2  502    0  0.37743841978E+02 -0.17976690999E+02  0.52709479780E+02  0.67439886456E+02  0.47000000000E+01 0.  1.
         -5    1    1    2    0  502  0.21918736106E+01  0.63858035713E+02 -0.34488504616E+02  0.72761253327E+02  0.47000000000E+01 0.  1.
        -11    1    3    3    0    0 -0.47769022063E+02 -0.11063994949E+02  0.32461678764E+02  0.58805204202E+02  0.00000000000E+00 0.  1.
         11    1    3    3    0    0  0.78333064743E+01 -0.34817349765E+02 -0.35775234762E+02  0.50531930076E+02  0.00000000000E+00 0. -1.
<mgrwt>
<rscale>  0 0.13089752E+03</rscale>
<asrwt>0</asrwt>
<pdfrwt beam="2">  1        2 0.18048527E-01 0.13901207E+03</pdfrwt>
<pdfrwt beam="1">  1       -2 0.20341976E-01 0.13901207E+03</pdfrwt>
<totfact> 0.60773811E+03</totfact>
</mgrwt>
</event>
<event>
 7    1  0.5107591E-006  0.1828777E+03  0.7546771E-02  0.1169923E+00
         -1   -1    0    0    0  501 -0.00000000000E+00  0.00000000000E+00  0.30162310972E+02  0.30162310972E+02  0.00000000000E+00 0.  1.
          1   -1    0    0  501    0  0.00000000000E+00 -0.00000000000E+00 -0.99992095098E+03  0.99992095098E+03  0.00000000000E+00 0. -1.
         23    2    1    2    0    0  0.35493008542E+02 -0.12866477328E+03 -0.41972813464E+03  0.45044732176E+03  0.94428306851E+02 0.  0.
          5    1    1    2  502    0 -0.65316763682E+02  0.71985877302E+02 -0.45260824894E+03  0.46295200956E+03  0.47000000000E+01 0.  1.
         -5    1    1    2    0  502  0.29823755140E+02  0.56678895975E+02 -0.97422256426E+02  0.11668393063E+03  0.47000000000E+01 0.  1.
        -11    1    3    3    0    0  0.68061132733E+02 -0.90611521824E+02 -0.28436872772E+03  0.30611817813E+03  0.00000000000E+00 0.  1.
         11    1    3    3    0    0 -0.32568124191E+02 -0.38053251454E+02 -0.13535940692E+03  0.14432914363E+03  0.00000000000E+00 0. -1.
<mgrwt>
<rscale>  0 0.17782700E+03</rscale>
<asrwt>0</asrwt>
<pdfrwt beam="2">  1        1 0.15383400E+00 0.18287774E+03</pdfrwt>
<pdfrwt beam="1">  1       -1 0.46403552E-02 0.18287774E+03</pdfrwt>
<totfact> 0.31220166E+03</totfact>
</mgrwt>
</event>
<event>
 7    1  0.5107591E-006  0.1661258E+03  0.7546771E-02  0.1185564E+00
          1   -1    0    0  501    0  0.00000000000E+00  0.00000000000E+00  0.46934901287E+03  0.46934901287E+03  0.00000000000E+00 0. -1.
         -1   -1    0    0    0  501 -0.00000000000E+00 -0.00000000000E+00 -0.28640643349E+03  0.28640643349E+03  0.00000000000E+00 0.  1.
         23    2    1    2    0    0  0.11245419397E+03 -0.51175927729E+02  0.43087424485E+03  0.45731297849E+03  0.90651111932E+02 0.  0.
          5    1    1    2  502    0  0.10343520748E+02  0.16943461950E+02 -0.90273734490E+00  0.20419947576E+02  0.47000000000E+01 0. -1.
         -5    1    1    2    0  502 -0.12279771472E+03  0.34232465779E+02 -0.24702892813E+03  0.27802252029E+03  0.47000000000E+01 0.  1.
        -11    1    3    3    0    0  0.18198810947E+02 -0.24933957134E+02  0.24739676572E+02  0.39559455699E+02  0.00000000000E+00 0.  1.
         11    1    3    3    0    0  0.94255383026E+02 -0.26241970595E+02  0.40613456828E+03  0.41775352279E+03  0.00000000000E+00 0. -1.
<mgrwt>
<rscale>  0 0.16280624E+03</rscale>
<asrwt>0</asrwt>
<pdfrwt beam="1">  1        1 0.72207541E-01 0.16612584E+03</pdfrwt>
<pdfrwt beam="2">  1       -1 0.44062528E-01 0.16612584E+03</pdfrwt>
<totfact> 0.26021973E+02</totfact>
</mgrwt>
</event>
<event>
 7    1  0.5107591E-006  0.6120307E+03  0.7546771E-02  0.9880756E-01
          1   -1    0    0  501    0  0.00000000000E+00  0.00000000000E+00  0.33110364894E+03  0.33110364894E+03  0.00000000000E+00 0. -1.
         -1   -1    0    0    0  501 -0.00000000000E+00 -0.00000000000E+00 -0.28282807124E+03  0.28282807124E+03  0.00000000000E+00 0.  1.
         23    2    1    2    0    0 -0.14364924614E+02  0.76787258860E+02  0.56691729604E+01  0.11779474750E+03  0.87981980165E+02 0.  0.
          5    1    1    2  502    0  0.89337131482E+02 -0.24899618595E+03  0.12300836307E+03  0.29177623458E+03  0.47000000000E+01 0. -1.
         -5    1    1    2    0  502 -0.74972206869E+02  0.17220892709E+03 -0.80401958333E+02  0.20436073810E+03  0.47000000000E+01 0.  1.
        -11    1    3    3    0    0  0.15954118566E+02  0.26801619706E+02  0.39437500896E+02  0.50280982439E+02  0.00000000000E+00 0. -1.
         11    1    3    3    0    0 -0.30319043180E+02  0.49985639155E+02 -0.33768327935E+02  0.67513765060E+02  0.00000000000E+00 0.  1.
<mgrwt>
<rscale>  0 0.61203074E+03</rscale>
<asrwt>0</asrwt>
<pdfrwt beam="1">  1        1 0.50939022E-01 0.61203074E+03</pdfrwt>
<pdfrwt beam="2">  1       -1 0.43512011E-01 0.61203074E+03</pdfrwt>
<totfact> 0.40681477E+02</totfact>
</mgrwt>
</event>
<event>
 7    1  0.5107591E-006  0.1256931E+03  0.7546771E-02  0.1247661E+00
         -2   -1    0    0    0  501 -0.00000000000E+00  0.00000000000E+00  0.18823405452E+02  0.18823405452E+02  0.00000000000E+00 0. -1.
          2   -1    0    0  501    0  0.00000000000E+00 -0.00000000000E+00 -0.81005743879E+03  0.81005743879E+03  0.00000000000E+00 0.  1.
         23    2    1    2    0    0  0.82980311721E+01  0.10233555412E+02 -0.53574132731E+03  0.54414365720E+03  0.94339635937E+02 0.  0.
          5    1    1    2  502    0 -0.46170476272E+02 -0.22409132495E+02 -0.23333637078E+03  0.23895990046E+03  0.47000000000E+01 0. -1.
         -5    1    1    2    0  502  0.37872445100E+02  0.12175577083E+02 -0.22156335252E+02  0.45777286584E+02  0.47000000000E+01 0. -1.
        -11    1    3    3    0    0 -0.25738013042E+02  0.41633717856E+02 -0.27590639323E+03  0.28021447073E+03  0.00000000000E+00 0.  1.
         11    1    3    3    0    0  0.34036044214E+02 -0.31400162444E+02 -0.25983493408E+03  0.26392918648E+03  0.00000000000E+00 0. -1.
<mgrwt>
<rscale>  0 0.11727504E+03</rscale>
<asrwt>0</asrwt>
<pdfrwt beam="2">  1        2 0.12462420E+00 0.12569305E+03</pdfrwt>
<pdfrwt beam="1">  1       -2 0.28959091E-02 0.12569305E+03</pdfrwt>
<totfact> 0.14783080E+04</totfact>
</mgrwt>
</event>
<event>
 7    1  0.5107591E-006  0.1463366E+03  0.7546771E-02  0.1214942E+00
          2   -1    0    0  501    0  0.00000000000E+00  0.00000000000E+00  0.55689586084E+03  0.55689586084E+03  0.00000000000E+00 0. -1.
         -2   -1    0    0    0  501 -0.00000000000E+00 -0.00000000000E+00 -0.33743668403E+02  0.33743668403E+02  0.00000000000E+00 0.  1.
         23    2    1    2    0    0 -0.64181141109E+02  0.40869625319E+02  0.31200882261E+03  0.33374280815E+03  0.90803146745E+02 0.  0.
          5    1    1    2  502    0  0.90937160642E+02 -0.41651889783E+01  0.17956733106E+03  0.20137882800E+03  0.47000000000E+01 0.  1.
         -5    1    1    2    0  502 -0.26756019533E+02 -0.36704436341E+02  0.31576038765E+02  0.55517893083E+02  0.47000000000E+01 0.  1.
        -11    1    3    3    0    0 -0.42956526240E+02 -0.94242689241E+01  0.23657981066E+03  0.24063268025E+03  0.00000000000E+00 0. -1.
         11    1    3    3    0    0 -0.21224614869E+02  0.50293894243E+02  0.75429011949E+02  0.93110127903E+02  0.00000000000E+00 0.  1.
<mgrwt>
<rscale>  0 0.13880827E+03</rscale>
<asrwt>0</asrwt>
<pdfrwt beam="1">  1        2 0.85676280E-01 0.14633661E+03</pdfrwt>
<pdfrwt beam="2">  1       -2 0.51913340E-02 0.14633661E+03</pdfrwt>
<totfact> 0.97576627E+03</totfact>
</mgrwt>
</event>
<event>
 7    1  0.5107591E-006  0.2027688E+03  0.7546771E-02  0.1150042E+00
          1   -1    0    0  501    0  0.00000000000E+00  0.00000000000E+00  0.90837188138E+03  0.90837188138E+03  0.00000000000E+00 0. -1.
         -1   -1    0    0    0  501 -0.00000000000E+00 -0.00000000000E+00 -0.42725826951E+02  0.42725826951E+02  0.00000000000E+00 0.  1.
         23    2    1    2    0    0  0.14811264477E+03  0.59583739922E+02  0.44767905586E+03  0.48654242235E+03  0.10401641257E+03 0.  0.
          5    1    1    2  502    0 -0.44975678369E+02  0.28397045011E+02  0.20673461604E+03  0.21351930892E+03  0.47000000000E+01 0.  1.
         -5    1    1    2    0  502 -0.10313696640E+03 -0.87980784934E+02  0.21123238253E+03  0.25103597707E+03  0.47000000000E+01 0.  1.
        -11    1    3    3    0    0  0.95323488768E+02  0.32212314982E+02  0.13562705868E+03  0.16887539724E+03  0.00000000000E+00 0.  1.
         11    1    3    3    0    0  0.52789155997E+02  0.27371424941E+02  0.31205199718E+03  0.31766702511E+03  0.00000000000E+00 0. -1.
<mgrwt>
<rscale>  0 0.19964098E+03</rscale>
<asrwt>0</asrwt>
<pdfrwt beam="1">  1        1 0.13974951E+00 0.20276884E+03</pdfrwt>
<pdfrwt beam="2">  1       -1 0.65732048E-02 0.20276884E+03</pdfrwt>
<totfact> 0.21781082E+03</totfact>
</mgrwt>
</event>
<event>
 7    1  0.5107591E-006  0.1408186E+03  0.7546771E-02  0.1225094E+00
          1   -1    0    0  501    0  0.00000000000E+00  0.00000000000E+00  0.36746829799E+03  0.36746829799E+03  0.00000000000E+00 0. -1.
         -1   -1    0    0    0  501 -0.00000000000E+00 -0.00000000000E+00 -0.42863368231E+02  0.42863368231E+02  0.00000000000E+00 0.  1.
         23    2    1    2    0    0  0.52863227331E+02  0.37544045201E+02  0.17102741074E+03  0.20196674502E+03  0.85651122205E+02 0.  0.
          5    1    1    2  502    0 -0.28389434353E+02 -0.28912657408E+02  0.17162595254E+03  0.17640708412E+03  0.47000000000E+01 0.  1.
         -5    1    1    2    0  502 -0.24473792978E+02 -0.86313877927E+01 -0.18048433529E+02  0.31957837080E+02  0.47000000000E+01 0.  1.
        -11    1    3    3    0    0  0.41499229743E+02 -0.96291205576E+01  0.28117875673E+02  0.51044303936E+02  0.00000000000E+00 0.  1.
         11    1    3    3    0    0  0.11363997588E+02  0.47173165759E+02  0.14290953507E+03  0.15092244108E+03  0.00000000000E+00 0. -1.
<mgrwt>
<rscale>  0 0.13160479E+03</rscale>
<asrwt>0</asrwt>
<pdfrwt beam="1">  1        1 0.56533582E-01 0.14081863E+03</pdfrwt>
<pdfrwt beam="2">  1       -1 0.65943646E-02 0.14081863E+03</pdfrwt>
<totfact> 0.74763247E+03</totfact>
</mgrwt>
</event>
<event>
 7    1  0.5107591E-006  0.1253311E+03  0.7546771E-02  0.1250854E+00
         -1   -1    0    0    0  501 -0.00000000000E+00  0.00000000000E+00  0.66544407081E+02  0.66544407081E+02  0.00000000000E+00 0.  1.
          1   -1    0    0  501    0  0.00000000000E+00 -0.00000000000E+00 -0.18464718065E+03  0.18464718065E+03  0.00000000000E+00 0. -1.
         23    2    1    2    0    0  0.27371056900E+01  0.86307513704E+01 -0.79121659002E+02  0.11993838465E+03  0.89682760733E+02 0.  0.
          5    1    1    2  502    0 -0.28181889544E+02  0.39910141247E+02 -0.55238120224E+02  0.73894371899E+02  0.47000000000E+01 0. -1.
         -5    1    1    2    0  502  0.25444783854E+02 -0.48540892617E+02  0.16257005658E+02  0.57358831180E+02  0.47000000000E+01 0. -1.
        -11    1    3    3    0    0 -0.29334566723E+02  0.29542968721E+02 -0.13148075323E+02  0.43659771991E+02  0.00000000000E+00 0.  1.
         11    1    3    3    0    0  0.32071672413E+02 -0.20912217350E+02 -0.65973583679E+02  0.76278612660E+02  0.00000000000E+00 0. -1.
<mgrwt>
<rscale>  0 0.11541754E+03</rscale>
<asrwt>0</asrwt>
<pdfrwt beam="2">  1        1 0.28407258E-01 0.12533107E+03</pdfrwt>
<pdfrwt beam="1">  1       -1 0.10237601E-01 0.12533107E+03</pdfrwt>
<totfact> 0.89547476E+03</totfact>
</mgrwt>
</event>
<event>
 7    1  0.5107591E-006  0.1762546E+03  0.7546771E-02  0.1177056E+00
         -1   -1    0    0    0  501 -0.00000000000E+00  0.00000000000E+00  0.13976232192E+03  0.13976232192E+03  0.00000000000E+00 0.  1.
          1   -1    0    0  501    0  0.00000000000E+00 -0.00000000000E+00 -0.44130221158E+03  0.44130221158E+03  0.00000000000E+00 0. -1.
         23    2    1    2    0    0  0.39174551179E+02  0.11792655976E+03 -0.36266424472E+03  0.39451193712E+03  0.93128916975E+02 0.  0.
          5    1    1    2  502    0 -0.79455234963E+02 -0.99948522815E+02  0.27012670829E+02  0.13059332280E+03  0.47000000000E+01 0.  1.
         -5    1    1    2    0  502  0.40280683784E+02 -0.17978036941E+02  0.34111684230E+02  0.55959273578E+02  0.47000000000E+01 0.  1.
        -11    1    3    3    0    0  0.69338196627E+02  0.93765802204E+02 -0.26945353336E+03  0.29360691036E+03  0.00000000000E+00 0. -1.
         11    1    3    3    0    0 -0.30163645448E+02  0.24160757552E+02 -0.93210711361E+02  0.10090502676E+03  0.00000000000E+00 0.  1.
<mgrwt>
<rscale>  0 0.17076140E+03</rscale>
<asrwt>0</asrwt>
<pdfrwt beam="2">  1        1 0.67892648E-01 0.17625460E+03</pdfrwt>
<pdfrwt beam="1">  1       -1 0.21501896E-01 0.17625460E+03</pdfrwt>
<totfact> 0.95359892E+02</totfact>
</mgrwt>
</event>
<event>
 7    1  0.5107591E-006  0.1655362E+03  0.7546771E-02  0.1189755E+00
         -2   -1    0    0    0  501 -0.00000000000E+00  0.00000000000E+00  0.25036365178E+03  0.25036365178E+03  0.00000000000E+00 0.  1.
          2   -1    0    0  501    0  0.00000000000E+00 -0.00000000000E+00 -0.95843245514E+02  0.95843245514E+02  0.00000000000E+00 0. -1.
         23    2    1    2    0    0 -0.11928928516E+02 -0.10786141461E+03  0.46730794228E+02  0.14866998082E+03  0.90236422647E+02 0.  0.
          5    1    1    2  502    0  0.81992562511E+01 -0.27213868369E+02  0.29799685868E+02  0.41447963913E+02  0.47000000000E+01 0. -1.
         -5    1    1    2    0  502  0.37296722649E+01  0.13507528298E+03  0.77989926169E+02  0.15608895256E+03  0.47000000000E+01 0. -1.
        -11    1    3    3    0    0 -0.50243210983E+02 -0.44689600967E+02  0.21404129402E+02  0.70566829601E+02  0.00000000000E+00 0. -1.
         11    1    3    3    0    0  0.38314282467E+02 -0.63171813641E+02  0.25326664826E+02  0.78103151222E+02  0.00000000000E+00 0.  1.
<mgrwt>
<rscale>  0 0.15906629E+03</rscale>
<asrwt>0</asrwt>
<pdfrwt beam="2">  1        2 0.14745115E-01 0.16553620E+03</pdfrwt>
<pdfrwt beam="1">  1       -2 0.38517485E-01 0.16553620E+03</pdfrwt>
<totfact> 0.24846176E+03</totfact>
</mgrwt>
</event>
<event>
 7    1  0.5107591E-006  0.1444085E+03  0.7546771E-02  0.1217302E+00
          1   -1    0    0  501    0  0.00000000000E+00  0.00000000000E+00  0.11506438047E+03  0.11506438047E+03  0.00000000000E+00 0. -1.
         -1   -1    0    0    0  501 -0.00000000000E+00 -0.00000000000E+00 -0.16653972549E+03  0.16653972549E+03  0.00000000000E+00 0.  1.
         23    2    1    2    0    0 -0.63233178240E+01  0.72042875446E+02  0.22398350831E+02  0.11939698782E+03  0.92324397256E+02 0.  0.
          5    1    1    2  502    0  0.73979632631E+01 -0.56896271544E+02  0.24495269367E+02  0.62562159469E+02  0.47000000000E+01 0. -1.
         -5    1    1    2    0  502 -0.10746454391E+01 -0.15146603902E+02 -0.98368965220E+02  0.99644958683E+02  0.47000000000E+01 0. -1.
        -11    1    3    3    0    0  0.37540484700E+02  0.60557210063E+02  0.19943847437E+02  0.73987976947E+02  0.00000000000E+00 0.  1.
         11    1    3    3    0    0 -0.43863802524E+02  0.11485665383E+02  0.24545033940E+01  0.45409010869E+02  0.00000000000E+00 0. -1.
<mgrwt>
<rscale>  0 0.13708758E+03</rscale>
<asrwt>0</asrwt>
<pdfrwt beam="1">  1        1 0.17702213E-01 0.14440854E+03</pdfrwt>
<pdfrwt beam="2">  1       -1 0.25621496E-01 0.14440854E+03</pdfrwt>
<totfact> 0.38556956E+03</totfact>
</mgrwt>
</event>
<event>
 7    1  0.5107591E-006  0.1608085E+03  0.7546771E-02  0.1195568E+00
          2   -1    0    0  501    0  0.00000000000E+00  0.00000000000E+00  0.25892495006E+03  0.25892495006E+03  0.00000000000E+00 0.  1.
         -2   -1    0    0    0  501 -0.00000000000E+00 -0.00000000000E+00 -0.12336422491E+03  0.12336422491E+03  0.00000000000E+00 0. -1.
         23    2    1    2    0    0  0.84473061082E+02  0.55661415945E+02  0.17045738283E+03  0.21773784780E+03  0.90111928911E+02 0.  0.
          5    1    1    2  502    0 -0.16491028179E+00  0.31991231202E+02  0.11471223319E+02  0.34309547267E+02  0.47000000000E+01 0.  1.
         -5    1    1    2    0  502 -0.84308150800E+02 -0.87652647147E+02 -0.46367880996E+02  0.13024177990E+03  0.47000000000E+01 0.  1.
        -11    1    3    3    0    0  0.86527308129E+02  0.19937212033E+02  0.76523341674E+02  0.11721898010E+03  0.00000000000E+00 0.  1.
         11    1    3    3    0    0 -0.20542470473E+01  0.35724203912E+02  0.93934041152E+02  0.10051886770E+03  0.00000000000E+00 0. -1.
<mgrwt>
<rscale>  0 0.15406294E+03</rscale>
<asrwt>0</asrwt>
<pdfrwt beam="1">  1        2 0.39834608E-01 0.16080847E+03</pdfrwt>
<pdfrwt beam="2">  1       -2 0.18979112E-01 0.16080847E+03</pdfrwt>
<totfact> 0.28814945E+03</totfact>
</mgrwt>
</event>
<event>
 7    1  0.5107591E-006  0.1306034E+03  0.7546771E-02  0.1241207E+00
          1   -1    0    0  501    0  0.00000000000E+00  0.00000000000E+00  0.59302607901E+02  0.59302607901E+02  0.00000000000E+00 0. -1.
         -1   -1    0    0    0  501 -0.00000000000E+00 -0.00000000000E+00 -0.23088919346E+03  0.23088919346E+03  0.00000000000E+00 0.  1.
         23    2    1    2    0    0 -0.12084363981E+02  0.35845743915E+02 -0.39580571490E+02  0.10449622183E+03  0.89004997201E+02 0.  0.
          5    1    1    2  502    0  0.53006571871E+02  0.23611399675E+02 -0.61532660340E+02  0.84708636777E+02  0.47000000000E+01 0.  1.
         -5    1    1    2    0  502 -0.40922207889E+02 -0.59457143589E+02 -0.70473353733E+02  0.10098694276E+03  0.47000000000E+01 0.  1.
        -11    1    3    3    0    0  0.19791375511E+02  0.54963934728E+02 -0.31829986732E+02  0.66527293051E+02  0.00000000000E+00 0. -1.
         11    1    3    3    0    0 -0.31875739492E+02 -0.19118190813E+02 -0.77505847582E+01  0.37968928774E+02  0.00000000000E+00 0.  1.
<mgrwt>
<rscale>  0 0.12115293E+03</rscale>
<asrwt>0</asrwt>
<pdfrwt beam="1">  1        1 0.91234782E-02 0.13060345E+03</pdfrwt>
<pdfrwt beam="2">  1       -1 0.35521414E-01 0.13060345E+03</pdfrwt>
<totfact> 0.52624524E+03</totfact>
</mgrwt>
</event>
<event>
 7    1  0.5107591E-006  0.1334236E+03  0.7546771E-02  0.1235436E+00
          2   -1    0    0  501    0  0.00000000000E+00  0.00000000000E+00  0.73819257303E+02  0.73819257303E+02  0.00000000000E+00 0. -1.
         -2   -1    0    0    0  501 -0.00000000000E+00 -0.00000000000E+00 -0.21853713734E+03  0.21853713734E+03  0.00000000000E+00 0.  1.
         23    2    1    2    0    0 -0.11501295949E+02  0.45217672880E+02 -0.96086163429E+01  0.10247123052E+03  0.90725464052E+02 0.  0.
          5    1    1    2  502    0  0.46784570478E+02  0.24721785586E+02 -0.70254973603E+02  0.88078453854E+02  0.47000000000E+01 0.  1.
         -5    1    1    2    0  502 -0.35283274528E+02 -0.69939458466E+02 -0.64854290090E+02  0.10180671026E+03  0.47000000000E+01 0.  1.
        -11    1    3    3    0    0  0.17039981821E+02  0.64410464074E+02 -0.13093873902E+02  0.67900798201E+02  0.00000000000E+00 0.  1.
         11    1    3    3    0    0 -0.28541277770E+02 -0.19192791194E+02  0.34852575590E+01  0.34570432321E+02  0.00000000000E+00 0. -1.
<mgrwt>
<rscale>  0 0.12476581E+03</rscale>
<asrwt>0</asrwt>
<pdfrwt beam="1">  1        2 0.11356809E-01 0.13342362E+03</pdfrwt>
<pdfrwt beam="2">  1       -2 0.33621098E-01 0.13342362E+03</pdfrwt>
<totfact> 0.43169573E+03</totfact>
</mgrwt>
</event>
<event>
 7    1  0.5107591E-006  0.1366820E+03  0.7546771E-02  0.1230872E+00
          2   -1    0    0  501    0  0.00000000000E+00  0.00000000000E+00  0.69633182541E+02  0.69633182541E+02  0.00000000000E+00 0. -1.
         -2   -1    0    0    0  501 -0.00000000000E+00 -0.00000000000E+00 -0.21740079876E+03  0.21740079876E+03  0.00000000000E+00 0.  1.
         23    2    1    2    0    0  0.50220829697E+02  0.23134416345E+02 -0.35327455262E+02  0.11004593728E+03  0.88344474994E+02 0.  0.
          5    1    1    2  502    0 -0.88232041744E+02 -0.31601880553E+02 -0.96630466496E+02  0.13469635890E+03  0.47000000000E+01 0.  1.
         -5    1    1    2    0  502  0.38011212047E+02  0.84674642085E+01 -0.15809694458E+02  0.42291685119E+02  0.47000000000E+01 0.  1.
        -11    1    3    3    0    0 -0.24819331044E+02  0.14329991614E+02 -0.91375657470E+01  0.30080607722E+02  0.00000000000E+00 0.  1.
         11    1    3    3    0    0  0.75040160741E+02  0.88044247309E+01 -0.26189889515E+02  0.79965329560E+02  0.00000000000E+00 0. -1.
<mgrwt>
<rscale>  0 0.12772405E+03</rscale>
<asrwt>0</asrwt>
<pdfrwt beam="1">  1        2 0.10712797E-01 0.13668203E+03</pdfrwt>
<pdfrwt beam="2">  1       -2 0.33446277E-01 0.13668203E+03</pdfrwt>
<totfact> 0.46857591E+03</totfact>
</mgrwt>
</event>
<event>
 7    1  0.5107591E-006  0.4294983E+03  0.7546771E-02  0.1034725E+00
          2   -1    0    0  501    0  0.00000000000E+00  0.00000000000E+00  0.15809921409E+04  0.15809921409E+04  0.00000000000E+00 0. -1.
         -2   -1    0    0    0  501 -0.00000000000E+00 -0.00000000000E+00 -0.12019215646E+03  0.12019215646E+03  0.00000000000E+00 0.  1.
         23    2    1    2    0    0 -0.20379540427E+03  0.35680571638E+03  0.91161575038E+03  0.10039955907E+04  0.90116501316E+02 0.  0.
          5    1    1    2  502    0  0.12876500264E+02 -0.90343228660E+01 -0.35511709239E+01  0.16796549158E+02  0.47000000000E+01 0.  1.
         -5    1    1    2    0  502  0.19091890400E+03 -0.34777139351E+03  0.55273540501E+03  0.68039215751E+03  0.47000000000E+01 0.  1.
        -11    1    3    3    0    0 -0.15273854514E+03  0.18721527416E+03  0.57302360337E+03  0.62187994989E+03  0.00000000000E+00 0. -1.
         11    1    3    3    0    0 -0.51056859121E+02  0.16959044222E+03  0.33859214701E+03  0.38211564083E+03  0.00000000000E+00 0.  1.
<mgrwt>
<rscale>  0 0.42727418E+03</rscale>
<asrwt>0</asrwt>
<pdfrwt beam="1">  1        2 0.24322954E+00 0.42949828E+03</pdfrwt>
<pdfrwt beam="2">  1       -2 0.18491102E-01 0.42949828E+03</pdfrwt>
<totfact> 0.29211960E+02</totfact>
</mgrwt>
</event>
<event>
 7    1  0.5107591E-006  0.2414706E+03  0.7546771E-02  0.1121332E+00
         -1   -1    0    0    0  501 -0.00000000000E+00  0.00000000000E+00  0.17598162571E+03  0.17598162571E+03  0.00000000000E+00 0.  1.
          1   -1    0    0  501    0  0.00000000000E+00 -0.00000000000E+00 -0.45852403304E+03  0.45852403304E+03  0.00000000000E+00 0. -1.
         23    2    1    2    0    0  0.10037801484E+03  0.18058144293E+03 -0.31787526761E+03  0.39046377493E+03  0.93444477515E+02 0.  0.
          5    1    1    2  502    0  0.99487260832E+01 -0.25192074932E+02  0.45478929713E+02  0.53141705259E+02  0.47000000000E+01 0.  1.
         -5    1    1    2    0  502 -0.11032674093E+03 -0.15538936800E+03 -0.10146069436E+02  0.19090017856E+03  0.47000000000E+01 0.  1.
        -11    1    3    3    0    0  0.62622501543E+02  0.27798894099E+02 -0.81259542426E+02  0.10628955475E+03  0.00000000000E+00 0. -1.
         11    1    3    3    0    0  0.37755513300E+02  0.15278254883E+03 -0.23661572519E+03  0.28417422019E+03  0.00000000000E+00 0.  1.
<mgrwt>
<rscale>  0 0.23770415E+03</rscale>
<asrwt>0</asrwt>
<pdfrwt beam="2">  1        1 0.70542159E-01 0.24147056E+03</pdfrwt>
<pdfrwt beam="1">  1       -1 0.27074096E-01 0.24147056E+03</pdfrwt>
<totfact> 0.61998493E+02</totfact>
</mgrwt>
</event>
<event>
 7    1  0.5107591E-006  0.1963358E+03  0.7546771E-02  0.1158301E+00
         -1   -1    0    0    0  501 -0.00000000000E+00  0.00000000000E+00  0.11459665385E+03  0.11459665385E+03  0.00000000000E+00 0. -1.
          1   -1    0    0  501    0  0.00000000000E+00 -0.00000000000E+00 -0.33978011467E+03  0.33978011467E+03  0.00000000000E+00 0.  1.
         23    2    1    2    0    0  0.89412516831E+02 -0.12218250466E+03 -0.18648656961E+03  0.25426382595E+03  0.83364800333E+02 0.  0.
          5    1    1    2  502    0 -0.11033503166E+02 -0.15644900994E+02  0.22660738923E+02  0.30034983066E+02  0.47000000000E+01 0.  1.
         -5    1    1    2    0  502 -0.78379013665E+02  0.13782740565E+03 -0.61357630135E+02  0.17007795950E+03  0.47000000000E+01 0.  1.
        -11    1    3    3    0    0  0.84193954295E+02 -0.54210957780E+02 -0.13844993490E+03  0.17086788568E+03  0.00000000000E+00 0.  1.
         11    1    3    3    0    0  0.52185625367E+01 -0.67971546878E+02 -0.48036634702E+02  0.83395940270E+02  0.00000000000E+00 0. -1.
<mgrwt>
<rscale>  0 0.19017752E+03</rscale>
<asrwt>0</asrwt>
<pdfrwt beam="2">  1        1 0.52273863E-01 0.19633578E+03</pdfrwt>
<pdfrwt beam="1">  1       -1 0.17630255E-01 0.19633578E+03</pdfrwt>
<totfact> 0.18351339E+03</totfact>
</mgrwt>
</event>
<event>
 7    1  0.5107591E-006  0.1318115E+03  0.7546771E-02  0.1238427E+00
          1   -1    0    0  501    0  0.00000000000E+00  0.00000000000E+00  0.43715411132E+02  0.43715411132E+02  0.00000000000E+00 0. -1.
         -1   -1    0    0    0  501 -0.00000000000E+00 -0.00000000000E+00 -0.32587408031E+03  0.32587408031E+03  0.00000000000E+00 0.  1.
         23    2    1    2    0    0  0.23319092021E+02  0.34724582620E+02 -0.77484253116E+02  0.12614361851E+03  0.90326221663E+02 0.  0.
          5    1    1    2  502    0  0.13111243135E+01 -0.36759766253E+02 -0.21356768664E+03  0.21676311088E+03  0.47000000000E+01 0.  1.
         -5    1    1    2    0  502 -0.24630216334E+02  0.20351836327E+01  0.88932705763E+01  0.26682762050E+02  0.47000000000E+01 0.  1.
        -11    1    3    3    0    0  0.12586401487E+02  0.35743791418E+02 -0.96838584401E+02  0.10398917038E+03  0.00000000000E+00 0.  1.
         11    1    3    3    0    0  0.10732690533E+02 -0.10192087978E+01  0.19354331285E+02  0.22154448135E+02  0.00000000000E+00 0. -1.
<mgrwt>
<rscale>  0 0.12287555E+03</rscale>
<asrwt>0</asrwt>
<pdfrwt beam="1">  1        1 0.67254475E-02 0.13181152E+03</pdfrwt>
<pdfrwt beam="2">  1       -1 0.50134476E-01 0.13181152E+03</pdfrwt>
<totfact> 0.43088878E+03</totfact>
</mgrwt>
</event>
<event>
 7    1  0.5107591E-006  0.2463463E+03  0.7546771E-02  0.1119573E+00
          1   -1    0    0  501    0  0.00000000000E+00  0.00000000000E+00  0.13072889247E+04  0.13072889247E+04  0.00000000000E+00 0. -1.
         -1   -1    0    0    0  501 -0.00000000000E+00 -0.00000000000E+00 -0.46129561460E+02  0.46129561460E+02  0.00000000000E+00 0.  1.
         23    2    1    2    0    0  0.15351354231E+03  0.14658918028E+03  0.80057210331E+03  0.83108994245E+03  0.68847689869E+02 0.  0.
          5    1    1    2  502    0 -0.16778791048E+03 -0.12207885878E+03  0.33985728680E+03  0.39822242034E+03  0.47000000000E+01 0.  1.
         -5    1    1    2    0  502  0.14274368170E+02 -0.24510321497E+02  0.12072997312E+03  0.12410612336E+03  0.47000000000E+01 0.  1.
        -11    1    3    3    0    0  0.97372547215E+02  0.13007508403E+03  0.63583839555E+03  0.65627083257E+03  0.00000000000E+00 0.  1.
         11    1    3    3    0    0  0.56140995098E+02  0.16514096253E+02  0.16473370776E+03  0.17481910988E+03  0.00000000000E+00 0. -1.
<mgrwt>
<rscale>  0 0.24032972E+03</rscale>
<asrwt>0</asrwt>
<pdfrwt beam="1">  1        1 0.20112134E+00 0.24634627E+03</pdfrwt>
<pdfrwt beam="2">  1       -1 0.70968566E-02 0.24634627E+03</pdfrwt>
<totfact> 0.10005450E+03</totfact>
</mgrwt>
</event>
<event>
 7    1  0.5107591E-006  0.2203790E+03  0.7546771E-02  0.1133601E+00
         -2   -1    0    0    0  501 -0.00000000000E+00  0.00000000000E+00  0.16223455993E+02  0.16223455993E+02  0.00000000000E+00 0.  1.
          2   -1    0    0  501    0  0.00000000000E+00 -0.00000000000E+00 -0.74840540397E+03  0.74840540397E+03  0.00000000000E+00 0. -1.
         23    2    1    2    0    0  0.11323802380E+02  0.12719596417E+02 -0.31511219645E+03  0.32889819397E+03  0.92673129934E+02 0.  0.
          5    1    1    2  502    0 -0.49859451429E+02 -0.43749989622E+02 -0.31817951310E+03  0.32505433245E+03  0.47000000000E+01 0.  1.
         -5    1    1    2    0  502  0.38535649048E+02  0.31030393205E+02 -0.98890238430E+02  0.11067633354E+03  0.47000000000E+01 0.  1.
        -11    1    3    3    0    0 -0.22161598644E+02 -0.26702409812E+02 -0.67012190933E+02  0.75463824962E+02  0.00000000000E+00 0.  1.
         11    1    3    3    0    0  0.33485401024E+02  0.39422006229E+02 -0.24810000552E+03  0.25343436901E+03  0.00000000000E+00 0. -1.
<mgrwt>
<rscale>  0 0.22037897E+03</rscale>
<asrwt>0</asrwt>
<pdfrwt beam="2">  1        2 0.11513926E+00 0.22037897E+03</pdfrwt>
<pdfrwt beam="1">  1       -2 0.24959171E-02 0.22037897E+03</pdfrwt>
<totfact> 0.21114193E+04</totfact>
</mgrwt>
</event>
<event>
 7    1  0.5107591E-006  0.1868129E+03  0.7546771E-02  0.1166206E+00
          1   -1    0    0  501    0  0.00000000000E+00  0.00000000000E+00  0.85107881443E+02  0.85107881443E+02  0.00000000000E+00 0. -1.
         -1   -1    0    0    0  501 -0.00000000000E+00 -0.00000000000E+00 -0.36784776083E+03  0.36784776083E+03  0.00000000000E+00 0.  1.
         23    2    1    2    0    0  0.79022681184E+02  0.11414239714E+03 -0.13088693729E+03  0.21221022200E+03  0.92890887607E+02 0.  0.
          5    1    1    2  502    0  0.18315698203E+02 -0.73351204310E+01 -0.73599053481E+02  0.76342514143E+02  0.47000000000E+01 0.  1.
         -5    1    1    2    0  502 -0.97338379387E+02 -0.10680727671E+03 -0.78253888612E+02  0.16440290613E+03  0.47000000000E+01 0.  1.
        -11    1    3    3    0    0  0.35015684335E+02  0.34719477176E+02  0.41497162076E+01  0.49484951140E+02  0.00000000000E+00 0.  1.
         11    1    3    3    0    0  0.44006996850E+02  0.79422919968E+02 -0.13503665350E+03  0.16272527086E+03  0.00000000000E+00 0. -1.
<mgrwt>
<rscale>  0 0.18165990E+03</rscale>
<asrwt>0</asrwt>
<pdfrwt beam="1">  1        1 0.13093520E-01 0.18681285E+03</pdfrwt>
<pdfrwt beam="2">  1       -1 0.56591963E-01 0.18681285E+03</pdfrwt>
<totfact> 0.14365241E+03</totfact>
</mgrwt>
</event>
<event>
 7    1  0.5107591E-006  0.1271604E+03  0.7546771E-02  0.1246509E+00
          1   -1    0    0  501    0  0.00000000000E+00  0.00000000000E+00  0.25843290146E+03  0.25843290146E+03  0.00000000000E+00 0. -1.
         -1   -1    0    0    0  501 -0.00000000000E+00 -0.00000000000E+00 -0.51262307985E+02  0.51262307985E+02  0.00000000000E+00 0.  1.
         23    2    1    2    0    0  0.22465316015E+02 -0.65613860152E+01  0.13147967184E+03  0.16171250643E+03  0.91193686283E+02 0.  0.
          5    1    1    2  502    0 -0.62045172526E+02  0.40583765948E+02  0.50583705376E+02  0.89874616783E+02  0.47000000000E+01 0. -1.
         -5    1    1    2    0  502  0.39579856511E+02 -0.34022379933E+02  0.25107216264E+02  0.58108086238E+02  0.47000000000E+01 0. -1.
        -11    1    3    3    0    0 -0.12375483830E+02 -0.11022739642E+02 -0.76242641954E+01  0.18242335206E+02  0.00000000000E+00 0.  1.
         11    1    3    3    0    0  0.34840799844E+02  0.44613536269E+01  0.13910393603E+03  0.14347017122E+03  0.00000000000E+00 0. -1.
<mgrwt>
<rscale>  0 0.11795539E+03</rscale>
<asrwt>0</asrwt>
<pdfrwt beam="1">  1        1 0.39758907E-01 0.12716039E+03</pdfrwt>
<pdfrwt beam="2">  1       -1 0.78865090E-02 0.12716039E+03</pdfrwt>
<totfact> 0.87804371E+03</totfact>
</mgrwt>
</event>
<event>
 7    1  0.5107591E-006  0.2165331E+03  0.7546771E-02  0.1136494E+00
          2   -1    0    0  501    0  0.00000000000E+00  0.00000000000E+00  0.22035580595E+03  0.22035580595E+03  0.00000000000E+00 0. -1.
         -2   -1    0    0    0  501 -0.00000000000E+00 -0.00000000000E+00 -0.53194193266E+02  0.53194193266E+02  0.00000000000E+00 0.  1.
         23    2    1    2    0    0 -0.11032860032E+01  0.20253644905E+02  0.87872432193E+02  0.12414192172E+03  0.85312513834E+02 0.  0.
          5    1    1    2  502    0 -0.31008100375E+02 -0.54738733124E+02  0.76728519605E+01  0.63551505491E+02  0.47000000000E+01 0. -1.
         -5    1    1    2    0  502  0.32111386378E+02  0.34485088219E+02  0.71616328535E+02  0.85856572010E+02  0.47000000000E+01 0. -1.
        -11    1    3    3    0    0  0.22058481181E+02  0.41679930474E+01 -0.82895536102E+01  0.23930429522E+02  0.00000000000E+00 0.  1.
         11    1    3    3    0    0 -0.23161767184E+02  0.16085651858E+02  0.96161985804E+02  0.10021149220E+03  0.00000000000E+00 0. -1.
<mgrwt>
<rscale>  0 0.21653313E+03</rscale>
<asrwt>0</asrwt>
<pdfrwt beam="1">  1        2 0.33900893E-01 0.21653313E+03</pdfrwt>
<pdfrwt beam="2">  1       -2 0.81837222E-02 0.21653313E+03</pdfrwt>
<totfact> 0.13608076E+04</totfact>
</mgrwt>
</event>
<event>
 7    1  0.5107591E-006  0.1346615E+03  0.7546771E-02  0.1233616E+00
          1   -1    0    0  501    0  0.00000000000E+00  0.00000000000E+00  0.73919599354E+02  0.73919599354E+02  0.00000000000E+00 0. -1.
         -1   -1    0    0    0  501 -0.00000000000E+00 -0.00000000000E+00 -0.19185113464E+03  0.19185113464E+03  0.00000000000E+00 0.  1.
         23    2    1    2    0    0 -0.41297400279E+01  0.49907666081E+02 -0.42547226038E+02  0.11144475002E+03  0.90010199295E+02 0.  0.
          5    1    1    2  502    0  0.55560493967E+02 -0.16880357852E+02 -0.14410798243E+01  0.58275909964E+02  0.47000000000E+01 0.  1.
         -5    1    1    2    0  502 -0.51430753939E+02 -0.33027308229E+02 -0.73943229421E+02  0.96050074007E+02  0.47000000000E+01 0.  1.
        -11    1    3    3    0    0 -0.21881250857E+01 -0.26486297846E+02 -0.10369949068E+02  0.28528016207E+02  0.00000000000E+00 0.  1.
         11    1    3    3    0    0 -0.19416149422E+01  0.76393963927E+02 -0.32177276970E+02  0.82916733813E+02  0.00000000000E+00 0. -1.
<mgrwt>
<rscale>  0 0.12593466E+03</rscale>
<asrwt>0</asrwt>
<pdfrwt beam="1">  1        1 0.11372246E-01 0.13466148E+03</pdfrwt>
<pdfrwt beam="2">  1       -1 0.29515559E-01 0.13466148E+03</pdfrwt>
<totfact> 0.53939479E+03</totfact>
</mgrwt>
</event>
<event>
 7    1  0.5107591E-006  0.1306351E+03  0.7546771E-02  0.1239216E+00
         -3   -1    0    0    0  501 -0.00000000000E+00  0.00000000000E+00  0.55463659091E+02  0.55463659091E+02  0.00000000000E+00 0.  1.
          3   -1    0    0  501    0  0.00000000000E+00 -0.00000000000E+00 -0.27734685015E+03  0.27734685015E+03  0.00000000000E+00 0. -1.
         23    2    1    2    0    0  0.35119834763E+02 -0.14399946399E+02 -0.15817138832E+03  0.18746700252E+03  0.93192959500E+02 0.  0.
          5    1    1    2  502    0 -0.39299581915E+02 -0.31383653111E+02  0.16186866291E+02  0.53042393061E+02  0.47000000000E+01 0. -1.
         -5    1    1    2    0  502  0.41797471524E+01  0.45783599510E+02 -0.79898669031E+02  0.92301113662E+02  0.47000000000E+01 0. -1.
        -11    1    3    3    0    0  0.45285060010E+02  0.21641730755E+02 -0.42117249334E+02  0.65520713226E+02  0.00000000000E+00 0.  1.
         11    1    3    3    0    0 -0.10165225247E+02 -0.36041677154E+02 -0.11605413899E+03  0.12194628929E+03  0.00000000000E+00 0. -1.
<mgrwt>
<rscale>  0 0.12238356E+03</rscale>
<asrwt>0</asrwt>
<pdfrwt beam="2">  1        3 0.42668746E-01 0.13063515E+03</pdfrwt>
<pdfrwt beam="1">  1       -3 0.85328706E-02 0.13063515E+03</pdfrwt>
<totfact> 0.12025202E+03</totfact>
</mgrwt>
</event>
<event>
 7    1  0.5107591E-006  0.1857017E+03  0.7546771E-02  0.1167634E+00
          1   -1    0    0  501    0  0.00000000000E+00  0.00000000000E+00  0.10900205679E+03  0.10900205679E+03  0.00000000000E+00 0. -1.
         -1   -1    0    0    0  501 -0.00000000000E+00 -0.00000000000E+00 -0.31324479060E+03  0.31324479060E+03  0.00000000000E+00 0.  1.
         23    2    1    2    0    0  0.89755126760E+02  0.10395691422E+03 -0.29361887777E+02  0.16716167259E+03  0.90652531873E+02 0.  0.
          5    1    1    2  502    0 -0.49623251141E+02 -0.12850969413E+03 -0.13876123604E+03  0.19558624483E+03  0.47000000000E+01 0.  1.
         -5    1    1    2    0  502 -0.40131875618E+02  0.24552779911E+02 -0.36119609987E+02  0.59498929970E+02  0.47000000000E+01 0.  1.
        -11    1    3    3    0    0  0.16487418782E+02  0.57883905397E+02 -0.49930557400E+02  0.78201291833E+02  0.00000000000E+00 0.  1.
         11    1    3    3    0    0  0.73267707977E+02  0.46073008826E+02  0.20568669622E+02  0.88960380758E+02  0.00000000000E+00 0. -1.
<mgrwt>
<rscale>  0 0.18017514E+03</rscale>
<asrwt>0</asrwt>
<pdfrwt beam="1">  1        1 0.16769547E-01 0.18570174E+03</pdfrwt>
<pdfrwt beam="2">  1       -1 0.48191506E-01 0.18570174E+03</pdfrwt>
<totfact> 0.14006169E+03</totfact>
</mgrwt>
</event>
<event>
 7    1  0.5107591E-006  0.2199614E+03  0.7546771E-02  0.1137650E+00
         -2   -1    0    0    0  501 -0.00000000000E+00  0.00000000000E+00  0.35816984026E+02  0.35816984026E+02  0.00000000000E+00 0.  1.
          2   -1    0    0  501    0  0.00000000000E+00 -0.00000000000E+00 -0.13101221235E+04  0.13101221235E+04  0.00000000000E+00 0. -1.
         23    2    1    2    0    0 -0.11760237834E+02 -0.18060994175E+03 -0.76970688487E+03  0.79548253665E+03  0.87094909388E+02 0.  0.
          5    1    1    2  502    0  0.51585151420E+02  0.13358879078E+03 -0.24699656019E+03  0.28554576448E+03  0.47000000000E+01 0. -1.
         -5    1    1    2    0  502 -0.39824913587E+02  0.47021150969E+02 -0.25760169438E+03  0.26491080636E+03  0.47000000000E+01 0. -1.
        -11    1    3    3    0    0 -0.31989163613E+02 -0.15970148422E+03 -0.71713119196E+03  0.73539446362E+03  0.00000000000E+00 0. -1.
         11    1    3    3    0    0  0.20228925779E+02 -0.20908457526E+02 -0.52575692914E+02  0.60088073023E+02  0.00000000000E+00 0.  1.
<mgrwt>
<rscale>  0 0.21502155E+03</rscale>
<asrwt>0</asrwt>
<pdfrwt beam="2">  1        2 0.20155726E+00 0.21996145E+03</pdfrwt>
<pdfrwt beam="1">  1       -2 0.55103049E-02 0.21996145E+03</pdfrwt>
<totfact> 0.29163813E+03</totfact>
</mgrwt>
</event>
<event>
 7    1  0.5107591E-006  0.1836469E+03  0.7546771E-02  0.1169334E+00
          2   -1    0    0  501    0  0.00000000000E+00  0.00000000000E+00  0.45677482023E+03  0.45677482023E+03  0.00000000000E+00 0. -1.
         -2   -1    0    0    0  501 -0.00000000000E+00 -0.00000000000E+00 -0.94708789348E+02  0.94708789348E+02  0.00000000000E+00 0.  1.
         23    2    1    2    0    0  0.23229027052E+02 -0.13252048655E+03  0.32537371741E+03  0.36420707492E+03  0.93152940832E+02 0.  0.
          5    1    1    2  502    0 -0.16617098983E+02  0.22476358990E+02  0.67082849538E+02  0.72825224986E+02  0.47000000000E+01 0. -1.
         -5    1    1    2    0  502 -0.66119280694E+01  0.11004412756E+03 -0.30390536070E+02  0.11445130967E+03  0.47000000000E+01 0. -1.
        -11    1    3    3    0    0  0.34172012689E+02 -0.90038762675E+02  0.11833037125E+03  0.15256730317E+03  0.00000000000E+00 0.  1.
         11    1    3    3    0    0 -0.10942985637E+02 -0.42481723874E+02  0.20704334616E+03  0.21163977175E+03  0.00000000000E+00 0. -1.
<mgrwt>
<rscale>  0 0.17842735E+03</rscale>
<asrwt>0</asrwt>
<pdfrwt beam="1">  1        2 0.70273048E-01 0.18364687E+03</pdfrwt>
<pdfrwt beam="2">  1       -2 0.14570583E-01 0.18364687E+03</pdfrwt>
<totfact> 0.24427611E+03</totfact>
</mgrwt>
</event>
<event>
 7    1  0.5107591E-006  0.2039892E+03  0.7546771E-02  0.1150741E+00
          2   -1    0    0  501    0  0.00000000000E+00  0.00000000000E+00  0.74906636887E+02  0.74906636887E+02  0.00000000000E+00 0. -1.
         -2   -1    0    0    0  501 -0.00000000000E+00 -0.00000000000E+00 -0.60238175209E+03  0.60238175209E+03  0.00000000000E+00 0.  1.
         23    2    1    2    0    0 -0.11683372806E+03  0.11106594375E+03 -0.11476718716E+03  0.21691957488E+03  0.88864114483E+02 0.  0.
          5    1    1    2  502    0 -0.35048555779E+00 -0.23993864310E+02 -0.20865653948E+01  0.24541233054E+02  0.47000000000E+01 0. -1.
         -5    1    1    2    0  502  0.11718421361E+03 -0.87072079442E+02 -0.41062136265E+03  0.43582758105E+03  0.47000000000E+01 0. -1.
        -11    1    3    3    0    0 -0.12450261601E+02  0.17591535962E+02 -0.64584066048E+02  0.68085040492E+02  0.00000000000E+00 0.  1.
         11    1    3    3    0    0 -0.10438346646E+03  0.93474407789E+02 -0.50183121111E+02  0.14883453438E+03  0.00000000000E+00 0. -1.
<mgrwt>
<rscale>  0 0.19881655E+03</rscale>
<asrwt>0</asrwt>
<pdfrwt beam="1">  1        2 0.11524097E-01 0.20398924E+03</pdfrwt>
<pdfrwt beam="2">  1       -2 0.92674122E-01 0.20398924E+03</pdfrwt>
<totfact> 0.54668050E+02</totfact>
</mgrwt>
</event>
<event>
 7    1  0.5107591E-006  0.1266374E+03  0.7546771E-02  0.1270867E+00
         -4   -1    0    0    0  501 -0.00000000000E+00  0.00000000000E+00  0.20316404871E+03  0.20316404871E+03  0.00000000000E+00 0.  1.
          4   -1    0    0  501    0  0.00000000000E+00 -0.00000000000E+00 -0.47036304137E+02  0.47036304137E+02  0.00000000000E+00 0. -1.
         23    2    1    2    0    0  0.18881971864E+02 -0.74796838770E+01  0.15579783354E+02  0.61015908936E+02  0.55387155203E+02 0.  0.
          5    1    1    2  502    0 -0.17652454946E+02  0.65692554125E+02  0.77973990941E+02  0.10358163011E+03  0.47000000000E+01 0. -1.
         -5    1    1    2    0  502 -0.12295169181E+01 -0.58212870248E+02  0.62573970278E+02  0.85602813801E+02  0.47000000000E+01 0. -1.
        -11    1    3    3    0    0 -0.13792523061E+02 -0.80684439924E+01  0.22514310516E+02  0.27608470781E+02  0.00000000000E+00 0.  1.
         11    1    3    3    0    0  0.32674494925E+02  0.58876011543E+00 -0.69345271621E+01  0.33407438154E+02  0.00000000000E+00 0. -1.
<mgrwt>
<rscale>  0 0.10462179E+03</rscale>
<asrwt>0</asrwt>
<pdfrwt beam="2">  1        4 0.72363546E-02 0.12663737E+03</pdfrwt>
<pdfrwt beam="1">  1       -4 0.31256007E-01 0.12663737E+03</pdfrwt>
<totfact> 0.20742883E+03</totfact>
</mgrwt>
</event>
<event>
 7    1  0.5107591E-006  0.1399511E+03  0.7546771E-02  0.1224684E+00
          2   -1    0    0  501    0  0.00000000000E+00  0.00000000000E+00  0.38922054993E+02  0.38922054993E+02  0.00000000000E+00 0. -1.
         -2   -1    0    0    0  501 -0.00000000000E+00 -0.00000000000E+00 -0.44890422987E+03  0.44890422987E+03  0.00000000000E+00 0.  1.
         23    2    1    2    0    0  0.57621434239E+02 -0.25349477210E+02 -0.10533552606E+03  0.15257130008E+03  0.90662025560E+02 0.  0.
          5    1    1    2  502    0 -0.80904578871E+01  0.42603490016E+02 -0.26695651618E+03  0.27049655156E+03  0.47000000000E+01 0.  1.
         -5    1    1    2    0  502 -0.49530976351E+02 -0.17254012806E+02 -0.37690132628E+02  0.64758433225E+02  0.47000000000E+01 0.  1.
        -11    1    3    3    0    0 -0.20788603250E+02 -0.23015132688E+02 -0.21369740747E+02  0.37663353240E+02  0.00000000000E+00 0.  1.
         11    1    3    3    0    0  0.78410037488E+02 -0.23343445224E+01 -0.83965785317E+02  0.11490794684E+03  0.00000000000E+00 0. -1.
<mgrwt>
<rscale>  0 0.13188612E+03</rscale>
<asrwt>0</asrwt>
<pdfrwt beam="1">  1        2 0.59880089E-02 0.13995115E+03</pdfrwt>
<pdfrwt beam="2">  1       -2 0.69062185E-01 0.13995115E+03</pdfrwt>
<totfact> 0.23398458E+03</totfact>
</mgrwt>
</event>
<event>
 7    1  0.5107591E-006  0.1572182E+03  0.7546771E-02  0.1216222E+00
         -1   -1    0    0    0  501 -0.00000000000E+00  0.00000000000E+00  0.40538990031E+03  0.40538990031E+03  0.00000000000E+00 0.  1.
          1   -1    0    0  501    0  0.00000000000E+00 -0.00000000000E+00 -0.42409604073E+02  0.42409604073E+02  0.00000000000E+00 0. -1.
         23    2    1    2    0    0 -0.14203697615E+02 -0.10589389395E+02  0.74050523823E+02  0.11886488965E+03  0.91277060208E+02 0.  0.
          5    1    1    2  502    0  0.82125767325E+02 -0.14772676328E+02  0.13607935333E+03  0.15969519099E+03  0.47000000000E+01 0. -1.
         -5    1    1    2    0  502 -0.67922069710E+02  0.25362065723E+02  0.15285041909E+03  0.16923942374E+03  0.47000000000E+01 0.  1.
        -11    1    3    3    0    0  0.13877175317E+02 -0.42873087087E+02  0.57343757824E+02  0.72931366041E+02  0.00000000000E+00 0. -1.
         11    1    3    3    0    0 -0.28080872932E+02  0.32283697693E+02  0.16706766000E+02  0.45933523613E+02  0.00000000000E+00 0.  1.
<mgrwt>
<rscale>  0 0.13787171E+03</rscale>
<asrwt>0</asrwt>
<pdfrwt beam="2">  1        1 0.65245547E-02 0.15721822E+03</pdfrwt>
<pdfrwt beam="1">  1       -1 0.62367674E-01 0.15721822E+03</pdfrwt>
<totfact> 0.30136633E+03</totfact>
</mgrwt>
</event>
<event>
 7    1  0.5107591E-006  0.2287354E+03  0.7546771E-02  0.1130756E+00
         -1   -1    0    0    0  501 -0.00000000000E+00  0.00000000000E+00  0.87084671028E+02  0.87084671028E+02  0.00000000000E+00 0.  1.
          1   -1    0    0  501    0  0.00000000000E+00 -0.00000000000E+00 -0.55703645815E+03  0.55703645815E+03  0.00000000000E+00 0. -1.
         23    2    1    2    0    0  0.12889959180E+03  0.14170094284E+03 -0.21103869653E+03  0.29864196833E+03  0.89193227587E+02 0.  0.
          5    1    1    2  502    0 -0.12218229729E+02 -0.26224606614E+02 -0.13919038585E+03  0.14224299154E+03  0.47000000000E+01 0.  1.
         -5    1    1    2    0  502 -0.11668136207E+03 -0.11547633622E+03 -0.11972270473E+03  0.20323616930E+03  0.47000000000E+01 0.  1.
        -11    1    3    3    0    0  0.69207034113E+02  0.92842873824E+02 -0.63283556844E+02  0.13196295449E+03  0.00000000000E+00 0.  1.
         11    1    3    3    0    0  0.59692557690E+02  0.48858069012E+02 -0.14775513969E+03  0.16667901384E+03  0.00000000000E+00 0. -1.
<mgrwt>
<rscale>  0 0.22424733E+03</rscale>
<asrwt>0</asrwt>
<pdfrwt beam="2">  1        1 0.85697917E-01 0.22873535E+03</pdfrwt>
<pdfrwt beam="1">  1       -1 0.13397642E-01 0.22873535E+03</pdfrwt>
<totfact> 0.14974180E+03</totfact>
</mgrwt>
</event>
<event>
 7    1  0.5107591E-006  0.1267834E+03  0.7546771E-02  0.1247046E+00
          1   -1    0    0  501    0  0.00000000000E+00  0.00000000000E+00  0.24393455486E+02  0.24393455486E+02  0.00000000000E+00 0. -1.
         -1   -1    0    0    0  501 -0.00000000000E+00 -0.00000000000E+00 -0.54880432953E+03  0.54880432953E+03  0.00000000000E+00 0.  1.
         23    2    1    2    0    0 -0.17824659633E+02 -0.11442833786E+02 -0.14165897528E+03  0.16999429802E+03  0.91554023090E+02 0.  0.
          5    1    1    2  502    0  0.23124577910E+02  0.58726251069E+02 -0.30824699776E+03  0.31467732727E+03  0.47000000000E+01 0. -1.
         -5    1    1    2    0  502 -0.52999182773E+01 -0.47283417284E+02 -0.74504901000E+02  0.88526159731E+02  0.47000000000E+01 0. -1.
        -11    1    3    3    0    0  0.62637251001E+01  0.34561990004E+02 -0.27603974390E+02  0.44673759717E+02  0.00000000000E+00 0. -1.
         11    1    3    3    0    0 -0.24088384733E+02 -0.46004823790E+02 -0.11405500089E+03  0.12532053830E+03  0.00000000000E+00 0.  1.
<mgrwt>
<rscale>  0 0.11763778E+03</rscale>
<asrwt>0</asrwt>
<pdfrwt beam="1">  1        1 0.37528393E-02 0.12678342E+03</pdfrwt>
<pdfrwt beam="2">  1       -1 0.84431435E-01 0.12678342E+03</pdfrwt>
<totfact> 0.34660082E+03</totfact>
</mgrwt>
</event>
<event>
 7    1  0.5107591E-006  0.1329920E+03  0.7546771E-02  0.1238065E+00
          3   -1    0    0  501    0  0.00000000000E+00  0.00000000000E+00  0.27547099033E+02  0.27547099033E+02  0.00000000000E+00 0. -1.
         -3   -1    0    0    0  501 -0.00000000000E+00 -0.00000000000E+00 -0.50160619768E+03  0.50160619768E+03  0.00000000000E+00 0.  1.
         23    2    1    2    0    0 -0.52226057651E+01  0.45090800009E+02 -0.15126791324E+03  0.18003869009E+03  0.86437795521E+02 0.  0.
          5    1    1    2  502    0  0.60265704295E+02 -0.48489798733E+02 -0.18006362879E+03  0.19603116107E+03  0.47000000000E+01 0. -1.
         -5    1    1    2    0  502 -0.55043098530E+02  0.33989987240E+01 -0.14272755661E+03  0.15308344556E+03  0.47000000000E+01 0. -1.
        -11    1    3    3    0    0  0.18205173123E+02  0.30768997079E+02 -0.14815109226E+03  0.15240375864E+03  0.00000000000E+00 0.  1.
         11    1    3    3    0    0 -0.23427778888E+02  0.14321802930E+02 -0.31168209789E+01  0.27634931442E+02  0.00000000000E+00 0. -1.
<mgrwt>
<rscale>  0 0.12310246E+03</rscale>
<asrwt>0</asrwt>
<pdfrwt beam="1">  1        3 0.42380152E-02 0.13299195E+03</pdfrwt>
<pdfrwt beam="2">  1       -3 0.77170186E-01 0.13299195E+03</pdfrwt>
<totfact> 0.10985375E+03</totfact>
</mgrwt>
</event>
<event>
 7    1  0.5107591E-006  0.1649857E+03  0.7546771E-02  0.1189730E+00
         -2   -1    0    0    0  501 -0.00000000000E+00  0.00000000000E+00  0.41072964064E+02  0.41072964064E+02  0.00000000000E+00 0.  1.
          2   -1    0    0  501    0  0.00000000000E+00 -0.00000000000E+00 -0.60613681872E+03  0.60613681872E+03  0.00000000000E+00 0. -1.
         23    2    1    2    0    0 -0.10519833717E+03 -0.23010207768E+02 -0.33503248763E+03  0.36412901051E+03  0.93525444245E+02 0.  0.
          5    1    1    2  502    0  0.11984461757E+03  0.49578885925E+02 -0.20846864689E+03  0.24556478784E+03  0.47000000000E+01 0.  1.
         -5    1    1    2    0  502 -0.14646280399E+02 -0.26568678157E+02 -0.21562720125E+02  0.37515984430E+02  0.47000000000E+01 0.  1.
        -11    1    3    3    0    0 -0.23855584119E+02 -0.36617363496E+02 -0.45538172478E+02  0.63116125956E+02  0.00000000000E+00 0.  1.
         11    1    3    3    0    0 -0.81342753047E+02  0.13607155728E+02 -0.28949431516E+03  0.30101288455E+03  0.00000000000E+00 0. -1.
<mgrwt>
<rscale>  0 0.15908789E+03</rscale>
<asrwt>0</asrwt>
<pdfrwt beam="2">  1        2 0.93251823E-01 0.16498574E+03</pdfrwt>
<pdfrwt beam="1">  1       -2 0.63189173E-02 0.16498574E+03</pdfrwt>
<totfact> 0.66230816E+03</totfact>
</mgrwt>
</event>
<event>
 7    1  0.5107591E-006  0.1635367E+03  0.7546771E-02  0.1191872E+00
          4   -1    0    0  501    0  0.00000000000E+00  0.00000000000E+00  0.30305329052E+02  0.30305329052E+02  0.00000000000E+00 0.  1.
         -4   -1    0    0    0  501 -0.00000000000E+00 -0.00000000000E+00 -0.83788625049E+03  0.83788625049E+03  0.00000000000E+00 0. -1.
         23    2    1    2    0    0  0.51380922555E+01  0.10532640259E+03 -0.24182799623E+03  0.27927678271E+03  0.91622543746E+02 0.  0.
          5    1    1    2  502    0 -0.16362004850E+02 -0.74372036904E+02 -0.54365593441E+03  0.54898340603E+03  0.47000000000E+01 0.  1.
         -5    1    1    2    0  502  0.11223912594E+02 -0.30954365690E+02 -0.22096990792E+02  0.39931390800E+02  0.47000000000E+01 0.  1.
        -11    1    3    3    0    0 -0.15456719596E+02  0.10315490090E+03 -0.23559110617E+03  0.25764901138E+03  0.00000000000E+00 0. -1.
         11    1    3    3    0    0  0.20594811852E+02  0.21715016952E+01 -0.62368900617E+01  0.21627771325E+02  0.00000000000E+00 0.  1.
<mgrwt>
<rscale>  0 0.15721966E+03</rscale>
<asrwt>0</asrwt>
<pdfrwt beam="1">  1        4 0.46623584E-02 0.16353674E+03</pdfrwt>
<pdfrwt beam="2">  1       -4 0.12890557E+00 0.16353674E+03</pdfrwt>
<totfact> 0.21481613E+02</totfact>
</mgrwt>
</event>
<event>
 7    1  0.5107591E-006  0.1282321E+03  0.7546771E-02  0.1244361E+00
          2   -1    0    0  501    0  0.00000000000E+00  0.00000000000E+00  0.38491789670E+03  0.38491789670E+03  0.00000000000E+00 0. -1.
         -2   -1    0    0    0  501 -0.00000000000E+00 -0.00000000000E+00 -0.33543720099E+02  0.33543720099E+02  0.00000000000E+00 0.  1.
         23    2    1    2    0    0 -0.15834756001E+02  0.23844669315E+02  0.18543942747E+03  0.20875271301E+03  0.91491016914E+02 0.  0.
          5    1    1    2  502    0 -0.27152564410E+02  0.37269127668E+02  0.32175428535E+02  0.56423380194E+02  0.47000000000E+01 0.  1.
         -5    1    1    2    0  502  0.42987320411E+02 -0.61113796983E+02  0.13375932059E+03  0.15328552359E+03  0.47000000000E+01 0.  1.
        -11    1    3    3    0    0 -0.53715440985E+02  0.11099885815E+02  0.91763163022E+02  0.10690666094E+03  0.00000000000E+00 0. -1.
         11    1    3    3    0    0  0.37880684984E+02  0.12744783500E+02  0.93676264451E+02  0.10184605207E+03  0.00000000000E+00 0.  1.
<mgrwt>
<rscale>  0 0.11923716E+03</rscale>
<asrwt>0</asrwt>
<pdfrwt beam="1">  1        2 0.59218135E-01 0.12823215E+03</pdfrwt>
<pdfrwt beam="2">  1       -2 0.51605726E-02 0.12823215E+03</pdfrwt>
<totfact> 0.14573962E+04</totfact>
</mgrwt>
</event>
<event>
 7    1  0.5107591E-006  0.1304814E+03  0.7546771E-02  0.1241170E+00
          3   -1    0    0  501    0  0.00000000000E+00  0.00000000000E+00  0.18217083817E+02  0.18217083817E+02  0.00000000000E+00 0. -1.
         -3   -1    0    0    0  501 -0.00000000000E+00 -0.00000000000E+00 -0.72048523693E+03  0.72048523693E+03  0.00000000000E+00 0.  1.
         23    2    1    2    0    0 -0.18993553965E+01  0.37355504366E+02 -0.25725385433E+03  0.27495333399E+03  0.89558634662E+02 0.  0.
          5    1    1    2  502    0  0.54404923847E+02  0.98233431134E+01 -0.25564711975E+03  0.26159880284E+03  0.47000000000E+01 0.  1.
         -5    1    1    2    0  502 -0.52505568450E+02 -0.47178847480E+02 -0.18936717903E+03  0.20215018392E+03  0.47000000000E+01 0.  1.
        -11    1    3    3    0    0  0.25570930991E+02  0.53900235507E+02 -0.12010846038E+03  0.13410872513E+03  0.00000000000E+00 0. -1.
         11    1    3    3    0    0 -0.27470286387E+02 -0.16544731141E+02 -0.13714539395E+03  0.14084460886E+03  0.00000000000E+00 0.  1.
<mgrwt>
<rscale>  0 0.12117600E+03</rscale>
<asrwt>0</asrwt>
<pdfrwt beam="1">  1        3 0.28026280E-02 0.13048140E+03</pdfrwt>
<pdfrwt beam="2">  1       -3 0.11084389E+00 0.13048140E+03</pdfrwt>
<totfact> 0.92732379E+02</totfact>
</mgrwt>
</event>
<event>
 7    1  0.5107591E-006  0.2000730E+03  0.7546771E-02  0.1154012E+00
         -3   -1    0    0    0  501 -0.00000000000E+00  0.00000000000E+00  0.18580420456E+03  0.18580420456E+03  0.00000000000E+00 0.  1.
          3   -1    0    0  501    0  0.00000000000E+00 -0.00000000000E+00 -0.22432111823E+03  0.22432111823E+03  0.00000000000E+00 0. -1.
         23    2    1    2    0    0  0.14312588101E+03 -0.62615590846E+02 -0.92476969686E+02  0.20290348995E+03  0.90620672482E+02 0.  0.
          5    1    1    2  502    0 -0.52639734250E+02 -0.11320937103E+02 -0.31335214373E+02  0.62474722077E+02  0.47000000000E+01 0. -1.
         -5    1    1    2    0  502 -0.90486146762E+02  0.73936527950E+02  0.85295270393E+02  0.14474711076E+03  0.47000000000E+01 0. -1.
        -11    1    3    3    0    0  0.93474710664E+01 -0.44532622447E+02 -0.20321546264E+02  0.49834675878E+02  0.00000000000E+00 0. -1.
         11    1    3    3    0    0  0.13377840994E+03 -0.18082968400E+02 -0.72155423423E+02  0.15306881408E+03  0.00000000000E+00 0.  1.
<mgrwt>
<rscale>  0 0.19501734E+03</rscale>
<asrwt>0</asrwt>
<pdfrwt beam="2">  1        3 0.34510941E-01 0.20007299E+03</pdfrwt>
<pdfrwt beam="1">  1       -3 0.28585262E-01 0.20007299E+03</pdfrwt>
<totfact> 0.23656678E+02</totfact>
</mgrwt>
</event>
<event>
 7    1  0.5107591E-006  0.1506630E+03  0.7546771E-02  0.1208620E+00
         -1   -1    0    0    0  501 -0.00000000000E+00  0.00000000000E+00  0.30376711922E+02  0.30376711922E+02  0.00000000000E+00 0.  1.
          1   -1    0    0  501    0  0.00000000000E+00 -0.00000000000E+00 -0.67844779016E+03  0.67844779016E+03  0.00000000000E+00 0. -1.
         23    2    1    2    0    0  0.82887564026E+02  0.14260192024E+02 -0.39747096640E+03  0.41642110468E+03  0.91376506520E+02 0.  0.
          5    1    1    2  502    0  0.17288972067E+01  0.46241397351E+02 -0.79800904567E+02  0.92366283266E+02  0.47000000000E+01 0.  1.
         -5    1    1    2    0  502 -0.84616461232E+02 -0.60501589375E+02 -0.17079920727E+03  0.20003711414E+03  0.47000000000E+01 0.  1.
        -11    1    3    3    0    0  0.52808859228E+02 -0.29473987232E+02 -0.29371053938E+03  0.29987226027E+03  0.00000000000E+00 0. -1.
         11    1    3    3    0    0  0.30078704798E+02  0.43734179256E+02 -0.10376042702E+03  0.11654884441E+03  0.00000000000E+00 0.  1.
<mgrwt>
<rscale>  0 0.14355797E+03</rscale>
<asrwt>0</asrwt>
<pdfrwt beam="2">  1        1 0.10437659E+00 0.15066297E+03</pdfrwt>
<pdfrwt beam="1">  1       -1 0.46733402E-02 0.15066297E+03</pdfrwt>
<totfact> 0.55883838E+03</totfact>
</mgrwt>
</event>
<event>
 7    1  0.5107591E-006  0.1241889E+03  0.7546771E-02  0.1249383E+00
         -1   -1    0    0    0  501 -0.00000000000E+00  0.00000000000E+00  0.51491293240E+02  0.51491293240E+02  0.00000000000E+00 0.  1.
          1   -1    0    0  501    0  0.00000000000E+00 -0.00000000000E+00 -0.28730100538E+03  0.28730100538E+03  0.00000000000E+00 0. -1.
         23    2    1    2    0    0  0.14758534033E+02 -0.21436134460E+02 -0.17766951018E+03  0.20166768036E+03  0.91793661354E+02 0.  0.
          5    1    1    2  502    0  0.34912891250E+02  0.26121580981E+02 -0.72731625655E+02  0.84930714931E+02  0.47000000000E+01 0. -1.
         -5    1    1    2    0  502 -0.49671425283E+02 -0.46854465207E+01  0.14591423702E+02  0.52193903326E+02  0.47000000000E+01 0.  1.
        -11    1    3    3    0    0  0.92968780664E+01  0.29489291351E+02 -0.22434123225E+02  0.38201310593E+02  0.00000000000E+00 0.  1.
         11    1    3    3    0    0  0.54616559669E+01 -0.50925425811E+02 -0.15523538696E+03  0.16346636976E+03  0.00000000000E+00 0. -1.
<mgrwt>
<rscale>  0 0.11626861E+03</rscale>
<asrwt>0</asrwt>
<pdfrwt beam="2">  1        1 0.44200155E-01 0.12418888E+03</pdfrwt>
<pdfrwt beam="1">  1       -1 0.79217374E-02 0.12418888E+03</pdfrwt>
<totfact> 0.76412909E+03</totfact>
</mgrwt>
</event>
<event>
 7    1  0.5107591E-006  0.1529347E+03  0.7546771E-02  0.1205903E+00
          1   -1    0    0  501    0  0.00000000000E+00  0.00000000000E+00  0.35006163037E+03  0.35006163037E+03  0.00000000000E+00 0. -1.
         -1   -1    0    0    0  501 -0.00000000000E+00 -0.00000000000E+00 -0.55532861900E+02  0.55532861900E+02  0.00000000000E+00 0.  1.
         23    2    1    2    0    0  0.38484914651E+02 -0.79254868919E+02  0.13697055401E+03  0.18601853384E+03  0.89886257936E+02 0.  0.
          5    1    1    2  502    0 -0.40196335066E+02  0.78099179048E+02  0.17797394964E+03  0.19852466817E+03  0.47000000000E+01 0. -1.
         -5    1    1    2    0  502  0.17114204146E+01  0.11556898707E+01 -0.20415735174E+02  0.21051290260E+02  0.47000000000E+01 0. -1.
        -11    1    3    3    0    0 -0.19135028306E+02  0.81390688325E+01  0.17519139466E+02  0.27190329114E+02  0.00000000000E+00 0.  1.
         11    1    3    3    0    0  0.57619942957E+02 -0.87393937751E+02  0.11945141454E+03  0.15882820473E+03  0.00000000000E+00 0. -1.
<mgrwt>
<rscale>  0 0.14566512E+03</rscale>
<asrwt>0</asrwt>
<pdfrwt beam="1">  1        1 0.53855634E-01 0.15293466E+03</pdfrwt>
<pdfrwt beam="2">  1       -1 0.85435174E-02 0.15293466E+03</pdfrwt>
<totfact> 0.54045041E+03</totfact>
</mgrwt>
</event>
<event>
 7    1  0.5107591E-006  0.1461354E+03  0.7546771E-02  0.1214878E+00
         -1   -1    0    0    0  501 -0.00000000000E+00  0.00000000000E+00  0.10184893869E+03  0.10184893869E+03  0.00000000000E+00 0.  1.
          1   -1    0    0  501    0  0.00000000000E+00 -0.00000000000E+00 -0.24877692017E+03  0.24877692017E+03  0.00000000000E+00 0. -1.
         23    2    1    2    0    0 -0.72387308933E+02  0.22077761383E+02 -0.16486314567E+03  0.20339394515E+03  0.91988532340E+02 0.  0.
          5    1    1    2  502    0  0.99225846947E+02 -0.15449403852E+02  0.43263146082E+02  0.10944515791E+03  0.47000000000E+01 0.  1.
         -5    1    1    2    0  502 -0.26838538014E+02 -0.66283575305E+01 -0.25327981905E+02  0.37786755797E+02  0.47000000000E+01 0.  1.
        -11    1    3    3    0    0 -0.41310253813E+02  0.11407361825E+02 -0.85962817499E+01  0.43709964926E+02  0.00000000000E+00 0.  1.
         11    1    3    3    0    0 -0.31077055121E+02  0.10670399557E+02 -0.15626686392E+03  0.15968398022E+03  0.00000000000E+00 0. -1.
<mgrwt>
<rscale>  0 0.13885501E+03</rscale>
<asrwt>0</asrwt>
<pdfrwt beam="2">  1        1 0.38273372E-01 0.14613544E+03</pdfrwt>
<pdfrwt beam="1">  1       -1 0.15669068E-01 0.14613544E+03</pdfrwt>
<totfact> 0.32305615E+03</totfact>
</mgrwt>
</event>
<event>
 7    1  0.5107591E-006  0.1261268E+03  0.7546771E-02  0.1248771E+00
          1   -1    0    0  501    0  0.00000000000E+00  0.00000000000E+00  0.32564291662E+03  0.32564291662E+03  0.00000000000E+00 0. -1.
         -1   -1    0    0    0  501 -0.00000000000E+00 -0.00000000000E+00 -0.39235459570E+02  0.39235459570E+02  0.00000000000E+00 0.  1.
         23    2    1    2    0    0  0.77030157722E+01 -0.14953851656E+02  0.16924017600E+03  0.19272685292E+03  0.90655659139E+02 0.  0.
          5    1    1    2  502    0  0.28120867119E+02  0.71761405915E+01  0.12980435161E+03  0.13309222313E+03  0.47000000000E+01 0.  1.
         -5    1    1    2    0  502 -0.35823882891E+02  0.77777110648E+01 -0.12637070558E+02  0.39059300136E+02  0.47000000000E+01 0.  1.
        -11    1    3    3    0    0 -0.25545085931E+02  0.81354704782E+01  0.14061800851E+03  0.14315083518E+03  0.00000000000E+00 0. -1.
         11    1    3    3    0    0  0.33248101703E+02 -0.23089322135E+02  0.28622167488E+02  0.49576017743E+02  0.00000000000E+00 0.  1.
<mgrwt>
<rscale>  0 0.11662507E+03</rscale>
<asrwt>0</asrwt>
<pdfrwt beam="1">  1        1 0.50098908E-01 0.12612682E+03</pdfrwt>
<pdfrwt beam="2">  1       -1 0.60362248E-02 0.12612682E+03</pdfrwt>
<totfact> 0.98400046E+03</totfact>
</mgrwt>
</event>
<event>
 7    1  0.5107591E-006  0.1253472E+03  0.7546771E-02  0.1252091E+00
         -2   -1    0    0    0  501 -0.00000000000E+00  0.00000000000E+00  0.95312915048E+02  0.95312915048E+02  0.00000000000E+00 0. -1.
          2   -1    0    0  501    0  0.00000000000E+00 -0.00000000000E+00 -0.21326123655E+03  0.21326123655E+03  0.00000000000E+00 0.  1.
         23    2    1    2    0    0  0.90674886607E+01 -0.13258257281E+01 -0.15471462289E+03  0.17794612484E+03  0.87431296718E+02 0.  0.
          5    1    1    2  502    0 -0.72166152205E+01 -0.60596621830E+02  0.65905769328E+01  0.61559368229E+02  0.47000000000E+01 0.  1.
         -5    1    1    2    0  502 -0.18508734402E+01  0.61922447558E+02  0.30175724456E+02  0.69068658526E+02  0.47000000000E+01 0.  1.
        -11    1    3    3    0    0  0.38966900170E+02 -0.13064602170E+02 -0.13292011814E+03  0.13912893640E+03  0.00000000000E+00 0.  1.
         11    1    3    3    0    0 -0.29899411509E+02  0.11738776442E+02 -0.21794504751E+02  0.38817188439E+02  0.00000000000E+00 0. -1.
<mgrwt>
<rscale>  0 0.11470856E+03</rscale>
<asrwt>0</asrwt>
<pdfrwt beam="2">  1        2 0.32809421E-01 0.12534720E+03</pdfrwt>
<pdfrwt beam="1">  1       -2 0.14663526E-01 0.12534720E+03</pdfrwt>
<totfact> 0.53651248E+03</totfact>
</mgrwt>
</event>
<event>
 7    1  0.5107591E-006  0.1302873E+03  0.7546771E-02  0.1242217E+00
         -2   -1    0    0    0  501 -0.00000000000E+00  0.00000000000E+00  0.17296337642E+02  0.17296337642E+02  0.00000000000E+00 0.  1.
          2   -1    0    0  501    0  0.00000000000E+00 -0.00000000000E+00 -0.74516033315E+03  0.74516033315E+03  0.00000000000E+00 0. -1.
         23    2    1    2    0    0  0.33221577283E+02  0.15663937285E+02 -0.34903799627E+03  0.36185223799E+03  0.88093627276E+02 0.  0.
          5    1    1    2  502    0  0.34213516793E+02 -0.15272576225E+02 -0.39637326656E+02  0.54745081791E+02  0.47000000000E+01 0.  1.
         -5    1    1    2    0  502 -0.67435094076E+02 -0.39136105998E+00 -0.33918867258E+03  0.34585935101E+03  0.47000000000E+01 0.  1.
        -11    1    3    3    0    0 -0.20346904902E+02 -0.18871947120E+02 -0.63702846282E+02  0.69485247007E+02  0.00000000000E+00 0.  1.
         11    1    3    3    0    0  0.53568482185E+02  0.34535884405E+02 -0.28533514999E+03  0.29236699098E+03  0.00000000000E+00 0. -1.
<mgrwt>
<rscale>  0 0.12053507E+03</rscale>
<asrwt>0</asrwt>
<pdfrwt beam="2">  1        2 0.11464007E+00 0.13028727E+03</pdfrwt>
<pdfrwt beam="1">  1       -2 0.26609745E-02 0.13028727E+03</pdfrwt>
<totfact> 0.18588178E+04</totfact>
</mgrwt>
</event>
<event>
 7    1  0.5107591E-006  0.1293980E+03  0.7546771E-02  0.1242223E+00
         -3   -1    0    0    0  501 -0.00000000000E+00  0.00000000000E+00  0.28889684404E+03  0.28889684404E+03  0.00000000000E+00 0.  1.
          3   -1    0    0  501    0  0.00000000000E+00 -0.00000000000E+00 -0.44652992883E+02  0.44652992883E+02  0.00000000000E+00 0. -1.
         23    2    1    2    0    0  0.31883172017E+02 -0.10035713488E+02  0.95838632003E+02  0.13665406373E+03  0.91498839044E+02 0.  0.
          5    1    1    2  502    0  0.40592850260E+02  0.20075083580E+02  0.97593381708E+02  0.10769097746E+03  0.47000000000E+01 0.  1.
         -5    1    1    2    0  502 -0.72476022277E+02 -0.10039370093E+02  0.50811837442E+02  0.89204795729E+02  0.47000000000E+01 0.  1.
        -11    1    3    3    0    0  0.20140660899E+02 -0.47333288183E+02  0.78563050331E+02  0.93905480505E+02  0.00000000000E+00 0.  1.
         11    1    3    3    0    0  0.11742511119E+02  0.37297574695E+02  0.17275581672E+02  0.42748583223E+02  0.00000000000E+00 0. -1.
<mgrwt>
<rscale>  0 0.12053130E+03</rscale>
<asrwt>0</asrwt>
<pdfrwt beam="2">  1        3 0.68696914E-02 0.12939798E+03</pdfrwt>
<pdfrwt beam="1">  1       -3 0.44445667E-01 0.12939798E+03</pdfrwt>
<totfact> 0.15748260E+03</totfact>
</mgrwt>
</event>
<event>
 7    1  0.5107591E-006  0.1278397E+03  0.7546771E-02  0.1244520E+00
         -1   -1    0    0    0  501 -0.00000000000E+00  0.00000000000E+00  0.17569308160E+03  0.17569308160E+03  0.00000000000E+00 0.  1.
          1   -1    0    0  501    0  0.00000000000E+00 -0.00000000000E+00 -0.75143432761E+02  0.75143432761E+02  0.00000000000E+00 0. -1.
         23    2    1    2    0    0  0.24134025655E+02  0.11352546712E+02  0.16499679831E+02  0.97841779496E+02  0.92679247242E+02 0.  0.
          5    1    1    2  502    0 -0.70944643533E+01 -0.47033361352E+02 -0.11774781487E+02  0.49226049847E+02  0.47000000000E+01 0. -1.
         -5    1    1    2    0  502 -0.17039561301E+02  0.35680814639E+02  0.95824750492E+02  0.10376868501E+03  0.47000000000E+01 0. -1.
        -11    1    3    3    0    0  0.41423541336E+02  0.43173269146E+02  0.59771442226E+01  0.60129586716E+02  0.00000000000E+00 0. -1.
         11    1    3    3    0    0 -0.17289515681E+02 -0.31820722433E+02  0.10522535608E+02  0.37712192780E+02  0.00000000000E+00 0.  1.
<mgrwt>
<rscale>  0 0.11914182E+03</rscale>
<asrwt>0</asrwt>
<pdfrwt beam="2">  1        1 0.11560528E-01 0.12783971E+03</pdfrwt>
<pdfrwt beam="1">  1       -1 0.27029705E-01 0.12783971E+03</pdfrwt>
<totfact> 0.60896645E+03</totfact>
</mgrwt>
</event>
<event>
 6    1  0.9903322E-006  0.3366569E+03  0.7546771E-02  0.1126890E+00
         -2   -1    0    0    0  501 -0.00000000000E+00  0.00000000000E+00  0.79107224578E+02  0.79107224578E+02  0.00000000000E+00 0.  1.
          2   -1    0    0  501    0  0.00000000000E+00 -0.00000000000E+00 -0.54072101438E+03  0.54072101438E+03  0.00000000000E+00 0. -1.
          5    1    1    2  502    0  0.84476307308E+02  0.11038114302E+03 -0.36953759139E+03  0.39484220226E+03  0.47000000000E+01 0. -1.
         -5    1    1    2    0  502 -0.21621604426E+02 -0.78519375371E+02  0.26521358474E+02  0.85780292270E+02  0.47000000000E+01 0.  1.
        -11    1    1    2    0    0 -0.29148098933E+02 -0.25087400784E+02 -0.60011366369E+02  0.71276598144E+02  0.00000000000E+00 0. -1.
         11    1    1    2    0    0 -0.33706603948E+02 -0.67743668661E+01 -0.58586190511E+02  0.67929146284E+02  0.00000000000E+00 0.  1.
<mgrwt>
<rscale>  0 0.22964481E+03</rscale>
<asrwt>0</asrwt>
<pdfrwt beam="2">  1        2 0.83187845E-01 0.33665687E+03</pdfrwt>
<pdfrwt beam="1">  1       -2 0.12170343E-01 0.33665687E+03</pdfrwt>
<totfact> 0.27561109E+03</totfact>
</mgrwt>
</event>
<event>
 7    1  0.5107591E-006  0.1320381E+03  0.7546771E-02  0.1238084E+00
         -1   -1    0    0    0  501 -0.00000000000E+00  0.00000000000E+00  0.90016046860E+02  0.90016046860E+02  0.00000000000E+00 0.  1.
          1   -1    0    0  501    0  0.00000000000E+00 -0.00000000000E+00 -0.17008144179E+03  0.17008144179E+03  0.00000000000E+00 0. -1.
         23    2    1    2    0    0  0.41546640737E+02 -0.92573754130E+01 -0.80339051890E+02  0.12805914919E+03  0.90182925634E+02 0.  0.
          5    1    1    2  502    0  0.40888204314E+02  0.20143720683E+02 -0.13168586118E+02  0.47677210440E+02  0.47000000000E+01 0. -1.
         -5    1    1    2    0  502 -0.82434845051E+02 -0.10886345270E+02  0.13442243074E+02  0.84361129027E+02  0.47000000000E+01 0. -1.
        -11    1    3    3    0    0  0.24912350301E+02 -0.49767944784E+02 -0.49659639550E+02  0.74589230629E+02  0.00000000000E+00 0. -1.
         11    1    3    3    0    0  0.16634290436E+02  0.40510569371E+02 -0.30679412340E+02  0.53469918558E+02  0.00000000000E+00 0.  1.
<mgrwt>
<rscale>  0 0.12309028E+03</rscale>
<asrwt>0</asrwt>
<pdfrwt beam="2">  1        1 0.26166376E-01 0.13203806E+03</pdfrwt>
<pdfrwt beam="1">  1       -1 0.13848623E-01 0.13203806E+03</pdfrwt>
<totfact> 0.62537769E+03</totfact>
</mgrwt>
</event>
<event>
 7    1  0.5107591E-006  0.1299037E+03  0.7546771E-02  0.1238458E+00
         -1   -1    0    0    0  501 -0.00000000000E+00  0.00000000000E+00  0.35192646965E+03  0.35192646965E+03  0.00000000000E+00 0.  1.
          1   -1    0    0  501    0  0.00000000000E+00 -0.00000000000E+00 -0.38847833035E+02  0.38847833035E+02  0.00000000000E+00 0. -1.
         23    2    1    2    0    0  0.22147079553E+02 -0.27577009315E+02  0.14174985678E+03  0.17576610486E+03  0.97722654206E+02 0.  0.
          5    1    1    2  502    0  0.10167007689E+01  0.57287019391E+02  0.16721466131E+03  0.17682100902E+03  0.47000000000E+01 0.  1.
         -5    1    1    2    0  502 -0.23163780322E+02 -0.29710010076E+02  0.41141185141E+01  0.38187188803E+02  0.47000000000E+01 0.  1.
        -11    1    3    3    0    0  0.11114681349E+02  0.36560728095E+02  0.62026556521E+02  0.72852705469E+02  0.00000000000E+00 0.  1.
         11    1    3    3    0    0  0.11032398204E+02 -0.64137737409E+02  0.79723300262E+02  0.10291339939E+03  0.00000000000E+00 0. -1.
<mgrwt>
<rscale>  0 0.12285637E+03</rscale>
<asrwt>0</asrwt>
<pdfrwt beam="2">  1        1 0.59765899E-02 0.12990371E+03</pdfrwt>
<pdfrwt beam="1">  1       -1 0.54142532E-01 0.12990371E+03</pdfrwt>
<totfact> 0.43843564E+03</totfact>
</mgrwt>
</event>
<event>
 7    1  0.5107591E-006  0.1737196E+03  0.7546771E-02  0.1180154E+00
          2   -1    0    0  501    0  0.00000000000E+00  0.00000000000E+00  0.17703757183E+03  0.17703757183E+03  0.00000000000E+00 0. -1.
         -2   -1    0    0    0  501 -0.00000000000E+00 -0.00000000000E+00 -0.19802727563E+03  0.19802727563E+03  0.00000000000E+00 0.  1.
         23    2    1    2    0    0  0.11301432656E+03 -0.42443935557E+02  0.83070882000E+02  0.17256273006E+03  0.91122986643E+02 0.  0.
          5    1    1    2  502    0 -0.64766938952E+02  0.83077053342E+02 -0.40857031687E+02  0.11308377519E+03  0.47000000000E+01 0.  1.
         -5    1    1    2    0  502 -0.48247387610E+02 -0.40633117785E+02 -0.63203554105E+02  0.89418342210E+02  0.47000000000E+01 0.  1.
        -11    1    3    3    0    0 -0.14106342100E+02 -0.11867095681E+02  0.15841958057E+01  0.18502068093E+02  0.00000000000E+00 0.  1.
         11    1    3    3    0    0  0.12712066866E+03 -0.30576839875E+02  0.81486686194E+02  0.15406066196E+03  0.00000000000E+00 0. -1.
<mgrwt>
<rscale>  0 0.16780767E+03</rscale>
<asrwt>0</asrwt>
<pdfrwt beam="1">  1        2 0.27236550E-01 0.17371961E+03</pdfrwt>
<pdfrwt beam="2">  1       -2 0.30465735E-01 0.17371961E+03</pdfrwt>
<totfact> 0.19092816E+03</totfact>
</mgrwt>
</event>
<event>
 7    1  0.5107591E-006  0.1634674E+03  0.7546771E-02  0.1192055E+00
         -2   -1    0    0    0  501 -0.00000000000E+00  0.00000000000E+00  0.13479559940E+03  0.13479559940E+03  0.00000000000E+00 0.  1.
          2   -1    0    0  501    0  0.00000000000E+00 -0.00000000000E+00 -0.21834463944E+03  0.21834463944E+03  0.00000000000E+00 0. -1.
         23    2    1    2    0    0  0.13327405679E+02  0.10449623388E+03 -0.12203726378E+03  0.18520290592E+03  0.91158872166E+02 0.  0.
          5    1    1    2  502    0 -0.14996597353E+02 -0.24789642612E+02 -0.44149248437E+02  0.53015756625E+02  0.47000000000E+01 0.  1.
         -5    1    1    2    0  502  0.16691916739E+01 -0.79706591263E+02  0.82637472169E+02  0.11492157630E+03  0.47000000000E+01 0.  1.
        -11    1    3    3    0    0  0.32964516489E+02  0.20520724829E+01 -0.43576564730E+02  0.54678947891E+02  0.00000000000E+00 0.  1.
         11    1    3    3    0    0 -0.19637110810E+02  0.10244416139E+03 -0.78460699045E+02  0.13052395803E+03  0.00000000000E+00 0. -1.
<mgrwt>
<rscale>  0 0.15706098E+03</rscale>
<asrwt>0</asrwt>
<pdfrwt beam="2">  1        2 0.33591483E-01 0.16346744E+03</pdfrwt>
<pdfrwt beam="1">  1       -2 0.20737785E-01 0.16346744E+03</pdfrwt>
<totfact> 0.29794761E+03</totfact>
</mgrwt>
</event>
<event>
 7    1  0.5107591E-006  0.1307342E+03  0.7546771E-02  0.1239506E+00
          1   -1    0    0  501    0  0.00000000000E+00  0.00000000000E+00  0.98920371996E+02  0.98920371996E+02  0.00000000000E+00 0. -1.
         -1   -1    0    0    0  501 -0.00000000000E+00 -0.00000000000E+00 -0.15069564776E+03  0.15069564776E+03  0.00000000000E+00 0.  1.
         23    2    1    2    0    0  0.36409327795E+02 -0.11985329415E+02  0.18012979773E+02  0.10142080016E+03  0.92154348753E+02 0.  0.
          5    1    1    2  502    0 -0.53786738189E+02  0.91860063909E+01 -0.99364479487E+02  0.11345829940E+03  0.47000000000E+01 0. -1.
         -5    1    1    2    0  502  0.17377410394E+02  0.27993230238E+01  0.29576223950E+02  0.34736920193E+02  0.47000000000E+01 0. -1.
        -11    1    3    3    0    0  0.27305619469E+02  0.58780063357E+01  0.53676007280E+02  0.60508359510E+02  0.00000000000E+00 0. -1.
         11    1    3    3    0    0  0.91037083260E+01 -0.17863335750E+02 -0.35663027506E+02  0.40912440655E+02  0.00000000000E+00 0.  1.
<mgrwt>
<rscale>  0 0.12220348E+03</rscale>
<asrwt>0</asrwt>
<pdfrwt beam="1">  1        1 0.15218519E-01 0.13073417E+03</pdfrwt>
<pdfrwt beam="2">  1       -1 0.23183946E-01 0.13073417E+03</pdfrwt>
<totfact> 0.54849675E+03</totfact>
</mgrwt>
</event>
<event>
 7    1  0.5107591E-006  0.1888983E+03  0.7546771E-02  0.1164327E+00
         -2   -1    0    0    0  501 -0.00000000000E+00  0.00000000000E+00  0.58146268750E+02  0.58146268750E+02  0.00000000000E+00 0.  1.
          2   -1    0    0  501    0  0.00000000000E+00 -0.00000000000E+00 -0.59161051898E+03  0.59161051898E+03  0.00000000000E+00 0. -1.
         23    2    1    2    0    0  0.16130149993E+02  0.14067874498E+03 -0.33890986448E+03  0.37858531800E+03  0.91740153357E+02 0.  0.
          5    1    1    2  502    0  0.32105639456E+02 -0.64141488238E+01 -0.85074934889E+02  0.91278408928E+02  0.47000000000E+01 0. -1.
         -5    1    1    2    0  502 -0.48235789449E+02 -0.13426459615E+03 -0.10947945086E+03  0.17989306080E+03  0.47000000000E+01 0. -1.
        -11    1    3    3    0    0  0.36572680709E+02  0.36217451008E+02 -0.18080307065E+03  0.18798674178E+03  0.00000000000E+00 0. -1.
         11    1    3    3    0    0 -0.20442530716E+02  0.10446129397E+03 -0.15810679383E+03  0.19059857621E+03  0.00000000000E+00 0.  1.
<mgrwt>
<rscale>  0 0.18363844E+03</rscale>
<asrwt>0</asrwt>
<pdfrwt beam="2">  1        2 0.91017006E-01 0.18889827E+03</pdfrwt>
<pdfrwt beam="1">  1       -2 0.89455795E-02 0.18889827E+03</pdfrwt>
<totfact> 0.40000593E+03</totfact>
</mgrwt>
</event>
<event>
 7    1  0.5107591E-006  0.1106807E+03  0.7546771E-02  0.1268237E+00
         -1   -1    0    0    0  501 -0.00000000000E+00  0.00000000000E+00  0.25816980887E+03  0.25816980887E+03  0.00000000000E+00 0.  1.
          1   -1    0    0  501    0  0.00000000000E+00 -0.00000000000E+00 -0.17339801004E+03  0.17339801004E+03  0.00000000000E+00 0. -1.
         23    2    1    2    0    0 -0.11411376357E+02 -0.25337984919E+01 -0.14745130961E+03  0.17431737062E+03  0.92238914520E+02 0.  0.
          5    1    1    2  502    0  0.36072099316E+02  0.30190372924E+02  0.20663830592E+03  0.21197673089E+03  0.47000000000E+01 0. -1.
         -5    1    1    2    0  502 -0.24660722959E+02 -0.27656574432E+02  0.25584802522E+02  0.45273717390E+02  0.47000000000E+01 0.  1.
        -11    1    3    3    0    0  0.34507003549E+02 -0.13119329412E+02 -0.29350405640E+02  0.47162447025E+02  0.00000000000E+00 0.  1.
         11    1    3    3    0    0 -0.45918379906E+02  0.10585530920E+02 -0.11810090397E+03  0.12715492360E+03  0.00000000000E+00 0. -1.
<mgrwt>
<rscale>  0 0.10596134E+03</rscale>
<asrwt>0</asrwt>
<pdfrwt beam="2">  1        1 0.26676617E-01 0.11068072E+03</pdfrwt>
<pdfrwt beam="1">  1       -1 0.39718432E-01 0.11068072E+03</pdfrwt>
<totfact> 0.10824997E+03</totfact>
</mgrwt>
</event>
<event>
 7    1  0.5107591E-006  0.1290078E+03  0.7546771E-02  0.1243334E+00
          2   -1    0    0  501    0  0.00000000000E+00  0.00000000000E+00  0.93147170481E+02  0.93147170481E+02  0.00000000000E+00 0.  1.
         -2   -1    0    0    0  501 -0.00000000000E+00 -0.00000000000E+00 -0.13699732192E+03  0.13699732192E+03  0.00000000000E+00 0. -1.
         23    2    1    2    0    0 -0.83873794774E+01  0.30794351608E+02 -0.91462606648E+01  0.96550423279E+02  0.90662505622E+02 0.  0.
          5    1    1    2  502    0  0.26469441694E+02 -0.31936107768E+02  0.39255442289E+02  0.57302932492E+02  0.47000000000E+01 0. -1.
         -5    1    1    2    0  502 -0.18082062216E+02  0.11417561592E+01 -0.73959333062E+02  0.76291136629E+02  0.47000000000E+01 0. -1.
        -11    1    3    3    0    0 -0.17604526286E+02 -0.29217699091E+02  0.42474860737E+01  0.34374909802E+02  0.00000000000E+00 0.  1.
         11    1    3    3    0    0  0.92171468085E+01  0.60012050699E+02 -0.13393746739E+02  0.62175513477E+02  0.00000000000E+00 0. -1.
<mgrwt>
<rscale>  0 0.11985639E+03</rscale>
<asrwt>0</asrwt>
<pdfrwt beam="1">  1        2 0.14330334E-01 0.12900781E+03</pdfrwt>
<pdfrwt beam="2">  1       -2 0.21076511E-01 0.12900781E+03</pdfrwt>
<totfact> 0.74377287E+03</totfact>
</mgrwt>
</event>
<event>
 7    1  0.5107591E-006  0.1431686E+03  0.7546771E-02  0.1220007E+00
         -1   -1    0    0    0  501 -0.00000000000E+00  0.00000000000E+00  0.44795815434E+02  0.44795815434E+02  0.00000000000E+00 0.  1.
          1   -1    0    0  501    0  0.00000000000E+00 -0.00000000000E+00 -0.37003405690E+03  0.37003405690E+03  0.00000000000E+00 0. -1.
         23    2    1    2    0    0  0.64579878901E+02  0.26579660399E+02 -0.12960683642E+03  0.17240692432E+03  0.89717202378E+02 0.  0.
          5    1    1    2  502    0 -0.83555693882E+02 -0.60075496998E+02 -0.15621846647E+03  0.18712808070E+03  0.47000000000E+01 0. -1.
         -5    1    1    2    0  502  0.18975814981E+02  0.33495836599E+02 -0.39412938576E+02  0.55294867310E+02  0.47000000000E+01 0. -1.
        -11    1    3    3    0    0 -0.22338089493E+02  0.63182668293E+01 -0.37870117828E+02  0.44419101321E+02  0.00000000000E+00 0.  1.
         11    1    3    3    0    0  0.86917968394E+02  0.20261393569E+02 -0.91736718592E+02  0.12798782300E+03  0.00000000000E+00 0. -1.
<mgrwt>
<rscale>  0 0.13515113E+03</rscale>
<asrwt>0</asrwt>
<pdfrwt beam="2">  1        1 0.56928317E-01 0.14316857E+03</pdfrwt>
<pdfrwt beam="1">  1       -1 0.68916639E-02 0.14316857E+03</pdfrwt>
<totfact> 0.69447062E+03</totfact>
</mgrwt>
</event>
<event>
 7    1  0.5107591E-006  0.1538842E+03  0.7546771E-02  0.1217076E+00
         -1   -1    0    0    0  501 -0.00000000000E+00  0.00000000000E+00  0.76859487857E+03  0.76859487857E+03  0.00000000000E+00 0.  1.
          1   -1    0    0  501    0  0.00000000000E+00 -0.00000000000E+00 -0.21473351809E+02  0.21473351809E+02  0.00000000000E+00 0. -1.
         23    2    1    2    0    0 -0.93684774199E+00 -0.24080160653E+02  0.21270426636E+03  0.23393679872E+03  0.94353532240E+02 0.  0.
          5    1    1    2  502    0  0.81580190583E+01  0.58684573271E+02  0.76728828345E+02  0.97055837095E+02  0.47000000000E+01 0. -1.
         -5    1    1    2    0  502 -0.72211713163E+01 -0.34604412618E+02  0.45768843206E+03  0.45907559457E+03  0.47000000000E+01 0.  1.
        -11    1    3    3    0    0  0.41268739618E+02 -0.26007587080E+02  0.71557944892E+02  0.86602788249E+02  0.00000000000E+00 0. -1.
         11    1    3    3    0    0 -0.42205587360E+02  0.19274264268E+01  0.14114632147E+03  0.14733401047E+03  0.00000000000E+00 0.  1.
<mgrwt>
<rscale>  0 0.13725105E+03</rscale>
<asrwt>0</asrwt>
<pdfrwt beam="2">  1        1 0.33035932E-02 0.15388425E+03</pdfrwt>
<pdfrwt beam="1">  1       -1 0.11824534E+00 0.15388425E+03</pdfrwt>
<totfact> 0.19897716E+03</totfact>
</mgrwt>
</event>
<event>
 7    1  0.5107591E-006  0.1298482E+03  0.7546771E-02  0.1240894E+00
          3   -1    0    0  501    0  0.00000000000E+00  0.00000000000E+00  0.52328906714E+02  0.52328906714E+02  0.00000000000E+00 0. -1.
         -3   -1    0    0    0  501 -0.00000000000E+00 -0.00000000000E+00 -0.31884400737E+03  0.31884400737E+03  0.00000000000E+00 0.  1.
         23    2    1    2    0    0  0.18825362138E+02  0.29735357752E+02 -0.33727077172E+02  0.10461932205E+03  0.92569439076E+02 0.  0.
          5    1    1    2  502    0 -0.42993462490E+02 -0.61832443963E+02 -0.86554280532E+02  0.11482779464E+03  0.47000000000E+01 0.  1.
         -5    1    1    2    0  502  0.24168100352E+02  0.32097086211E+02 -0.14623374295E+03  0.15172579740E+03  0.47000000000E+01 0.  1.
        -11    1    3    3    0    0 -0.30361627961E+02  0.34275321071E+02 -0.18415012808E+01  0.45825944768E+02  0.00000000000E+00 0. -1.
         11    1    3    3    0    0  0.49186990099E+02 -0.45399633189E+01 -0.31885575891E+02  0.58793377279E+02  0.00000000000E+00 0.  1.
<mgrwt>
<rscale>  0 0.12134524E+03</rscale>
<asrwt>0</asrwt>
<pdfrwt beam="1">  1        3 0.80506009E-02 0.12984819E+03</pdfrwt>
<pdfrwt beam="2">  1       -3 0.49052925E-01 0.12984819E+03</pdfrwt>
<totfact> 0.10037518E+03</totfact>
</mgrwt>
</event>
<event>
 7    1  0.5107591E-006  0.1271235E+03  0.7546771E-02  0.1244321E+00
          1   -1    0    0  501    0  0.00000000000E+00  0.00000000000E+00  0.32594166668E+03  0.32594166668E+03  0.00000000000E+00 0. -1.
         -1   -1    0    0    0  501 -0.00000000000E+00 -0.00000000000E+00 -0.54031922893E+02  0.54031922893E+02  0.00000000000E+00 0.  1.
         23    2    1    2    0    0 -0.33787282039E+02 -0.11517216222E+02  0.22298521028E+03  0.24376051791E+03  0.91774502947E+02 0.  0.
          5    1    1    2  502    0 -0.34798141720E+01  0.56566766868E+02  0.52571184348E+02  0.77444997542E+02  0.47000000000E+01 0. -1.
         -5    1    1    2    0  502  0.37267096211E+02 -0.45049550645E+02 -0.36466508423E+01  0.58768074120E+02  0.47000000000E+01 0.  1.
        -11    1    3    3    0    0 -0.41002056502E+02 -0.44646190612E+02  0.10763294937E+03  0.12352855040E+03  0.00000000000E+00 0.  1.
         11    1    3    3    0    0  0.72147744625E+01  0.33128974390E+02  0.11535226091E+03  0.12023196751E+03  0.00000000000E+00 0. -1.
<mgrwt>
<rscale>  0 0.11926086E+03</rscale>
<asrwt>0</asrwt>
<pdfrwt beam="1">  1        1 0.50144871E-01 0.12712353E+03</pdfrwt>
<pdfrwt beam="2">  1       -1 0.83126037E-02 0.12712353E+03</pdfrwt>
<totfact> 0.60901109E+03</totfact>
</mgrwt>
</event>
<event>
 7    1  0.5107591E-006  0.1348931E+03  0.7546771E-02  0.1233979E+00
         -1   -1    0    0    0  501 -0.00000000000E+00  0.00000000000E+00  0.30255851970E+03  0.30255851970E+03  0.00000000000E+00 0.  1.
          1   -1    0    0  501    0  0.00000000000E+00 -0.00000000000E+00 -0.78351030270E+02  0.78351030270E+02  0.00000000000E+00 0. -1.
         23    2    1    2    0    0  0.21519686032E+02 -0.45901192857E+02 -0.18360673917E+02  0.10335693261E+03  0.88178936145E+02 0.  0.
          5    1    1    2  502    0 -0.28790977889E+02  0.63464682030E+02  0.54835573937E+02  0.88801556530E+02  0.47000000000E+01 0.  1.
         -5    1    1    2    0  502  0.72712918574E+01 -0.17563489174E+02  0.18773258941E+03  0.18875106083E+03  0.47000000000E+01 0.  1.
        -11    1    3    3    0    0  0.37856134976E+02 -0.70870517162E+00  0.19117605368E+02  0.42415469506E+02  0.00000000000E+00 0.  1.
         11    1    3    3    0    0 -0.16336448945E+02 -0.45192487685E+02 -0.37478279285E+02  0.60941463106E+02  0.00000000000E+00 0. -1.
<mgrwt>
<rscale>  0 0.12570032E+03</rscale>
<asrwt>0</asrwt>
<pdfrwt beam="2">  1        1 0.12054005E-01 0.13489307E+03</pdfrwt>
<pdfrwt beam="1">  1       -1 0.46547464E-01 0.13489307E+03</pdfrwt>
<totfact> 0.22688475E+03</totfact>
</mgrwt>
</event>
<event>
 7    1  0.5107591E-006  0.1673571E+03  0.7546771E-02  0.1190103E+00
          1   -1    0    0  501    0  0.00000000000E+00  0.00000000000E+00  0.65484859384E+02  0.65484859384E+02  0.00000000000E+00 0. -1.
         -1   -1    0    0    0  501 -0.00000000000E+00 -0.00000000000E+00 -0.45289441601E+03  0.45289441601E+03  0.00000000000E+00 0.  1.
         23    2    1    2    0    0 -0.97114921638E+02  0.54327999252E+02 -0.55094520131E+02  0.14630173415E+03  0.77368932782E+02 0.  0.
          5    1    1    2  502    0  0.10322811430E+03 -0.17996764716E+02 -0.13326623457E+03  0.16959335600E+03  0.47000000000E+01 0.  1.
         -5    1    1    2    0  502 -0.61131926601E+01 -0.36331234536E+02 -0.19904880192E+03  0.20248418524E+03  0.47000000000E+01 0.  1.
        -11    1    3    3    0    0 -0.28776971795E+02  0.17410920526E+02 -0.59668491503E+02  0.68495132218E+02  0.00000000000E+00 0.  1.
         11    1    3    3    0    0 -0.68337949842E+02  0.36917078726E+02  0.45739713722E+01  0.77806601933E+02  0.00000000000E+00 0. -1.
<mgrwt>
<rscale>  0 0.15876079E+03</rscale>
<asrwt>0</asrwt>
<pdfrwt beam="1">  1        1 0.10074593E-01 0.16735714E+03</pdfrwt>
<pdfrwt beam="2">  1       -1 0.69676066E-01 0.16735714E+03</pdfrwt>
<totfact> 0.13557548E+03</totfact>
</mgrwt>
</event>
<event>
 7    1  0.5107591E-006  0.4743378E+03  0.7546771E-02  0.1066009E+00
         -1   -1    0    0    0  501 -0.00000000000E+00  0.00000000000E+00  0.10546864570E+03  0.10546864570E+03  0.00000000000E+00 0.  1.
          1   -1    0    0  501    0  0.00000000000E+00 -0.00000000000E+00 -0.90793741698E+03  0.90793741698E+03  0.00000000000E+00 0. -1.
         23    2    1    2    0    0 -0.22662386424E+02 -0.87556360715E+02 -0.27928896748E+03  0.30720957276E+03  0.90530073345E+02 0.  0.
          5    1    1    2  502    0  0.20767943429E+03 -0.21847552332E+02 -0.41704912265E+03  0.46643340754E+03  0.47000000000E+01 0. -1.
         -5    1    1    2    0  502 -0.18501704787E+03  0.10940391305E+03 -0.10613068115E+03  0.23976308238E+03  0.47000000000E+01 0.  1.
        -11    1    3    3    0    0 -0.22486526047E+01 -0.76764569098E+02 -0.27253885902E+03  0.28315240628E+03  0.00000000000E+00 0. -1.
         11    1    3    3    0    0 -0.20413733819E+02 -0.10791791616E+02 -0.67501084586E+01  0.24057166478E+02  0.00000000000E+00 0.  1.
<mgrwt>
<rscale>  0 0.34185331E+03</rscale>
<asrwt>0</asrwt>
<pdfrwt beam="2">  1        1 0.13968269E+00 0.47433783E+03</pdfrwt>
<pdfrwt beam="1">  1       -1 0.16225945E-01 0.47433783E+03</pdfrwt>
<totfact> 0.52878633E+02</totfact>
</mgrwt>
</event>
<event>
 7    1  0.5107591E-006  0.3400880E+03  0.7546771E-02  0.1066758E+00
         -1   -1    0    0    0  501 -0.00000000000E+00  0.00000000000E+00  0.16676909785E+03  0.16676909785E+03  0.00000000000E+00 0.  1.
          1   -1    0    0  501    0  0.00000000000E+00 -0.00000000000E+00 -0.17338319160E+03  0.17338319160E+03  0.00000000000E+00 0. -1.
         23    2    1    2    0    0  0.31700693991E+02  0.12565105183E+02 -0.25811817235E+02  0.10105329468E+03  0.91557100156E+02 0.  0.
          5    1    1    2  502    0  0.65825158711E+02  0.67025565623E+02 -0.37112113259E+02  0.10111763900E+03  0.47000000000E+01 0. -1.
         -5    1    1    2    0  502 -0.97525852702E+02 -0.79590670805E+02  0.56309836744E+02  0.13798135576E+03  0.47000000000E+01 0.  1.
        -11    1    3    3    0    0  0.35096102152E+02 -0.33219708383E+02  0.12081163940E+00  0.48324941870E+02  0.00000000000E+00 0.  1.
         11    1    3    3    0    0 -0.33954081609E+01  0.45784813565E+02 -0.25932628874E+02  0.52728352811E+02  0.00000000000E+00 0. -1.
<mgrwt>
<rscale>  0 0.34008798E+03</rscale>
<asrwt>0</asrwt>
<pdfrwt beam="2">  1        1 0.26674337E-01 0.34008798E+03</pdfrwt>
<pdfrwt beam="1">  1       -1 0.25656785E-01 0.34008798E+03</pdfrwt>
<totfact> 0.23528387E+03</totfact>
</mgrwt>
</event>
<event>
 6    1  0.5107591E-006  0.3101213E+03  0.7546771E-02  0.1080288E+00
          4   -1    0    0  501    0  0.00000000000E+00  0.00000000000E+00  0.57820320430E+03  0.57820320430E+03  0.00000000000E+00 0. -1.
         -4   -1    0    0    0  501 -0.00000000000E+00 -0.00000000000E+00 -0.41583659700E+02  0.41583659700E+02  0.00000000000E+00 0.  1.
          5    1    1    2  502    0 -0.31307849918E+02  0.22609950385E+02  0.52427920695E+02  0.65285283115E+02  0.47000000000E+01 0. -1.
         -5    1    1    2    0  502  0.98018431714E+02  0.11384840853E+02  0.13090008074E+03  0.16399435568E+03  0.47000000000E+01 0.  1.
        -11    1    1    2    0    0 -0.85313575723E+01  0.48208188469E+02  0.46164173688E+02  0.67290002451E+02  0.00000000000E+00 0.  1.
         11    1    1    2    0    0 -0.58179224224E+02 -0.82202979708E+02  0.30712736947E+03  0.32321722275E+03  0.00000000000E+00 0. -1.
<mgrwt>
<rscale>  0 0.31012130E+03</rscale>
<asrwt>0</asrwt>
<pdfrwt beam="1">  1        4 0.88954333E-01 0.31012130E+03</pdfrwt>
<pdfrwt beam="2">  1       -4 0.63974865E-02 0.31012130E+03</pdfrwt>
<totfact> 0.33920398E+02</totfact>
</mgrwt>
</event>
<event>
 7    1  0.5107591E-006  0.1608798E+03  0.7546771E-02  0.1195002E+00
         -2   -1    0    0    0  501 -0.00000000000E+00  0.00000000000E+00  0.50664658240E+02  0.50664658240E+02  0.00000000000E+00 0.  1.
          2   -1    0    0  501    0  0.00000000000E+00 -0.00000000000E+00 -0.43827094715E+03  0.43827094715E+03  0.00000000000E+00 0. -1.
         23    2    1    2    0    0 -0.18749313068E+02 -0.99527878405E+02 -0.18636847724E+03  0.23129446037E+03  0.92231137739E+02 0.  0.
          5    1    1    2  502    0 -0.50083280671E+02  0.19102859705E+02 -0.53945628527E+02  0.76193668299E+02  0.47000000000E+01 0.  1.
         -5    1    1    2    0  502  0.68832593739E+02  0.80425018699E+02 -0.14729218314E+03  0.18144747672E+03  0.47000000000E+01 0.  1.
        -11    1    3    3    0    0  0.29900135790E+02 -0.13663085074E+02 -0.78427091675E+02  0.85038266226E+02  0.00000000000E+00 0.  1.
         11    1    3    3    0    0 -0.48649448858E+02 -0.85864793330E+02 -0.10794138557E+03  0.14625619415E+03  0.00000000000E+00 0. -1.
<mgrwt>
<rscale>  0 0.15454022E+03</rscale>
<asrwt>0</asrwt>
<pdfrwt beam="2">  1        2 0.67426302E-01 0.16087978E+03</pdfrwt>
<pdfrwt beam="1">  1       -2 0.77945625E-02 0.16087978E+03</pdfrwt>
<totfact> 0.68716628E+03</totfact>
</mgrwt>
</event>
<event>
 7    1  0.5107591E-006  0.1257242E+03  0.7546771E-02  0.1249382E+00
          1   -1    0    0  501    0  0.00000000000E+00  0.00000000000E+00  0.31854183187E+03  0.31854183187E+03  0.00000000000E+00 0. -1.
         -1   -1    0    0    0  501 -0.00000000000E+00 -0.00000000000E+00 -0.39529679289E+02  0.39529679289E+02  0.00000000000E+00 0.  1.
         23    2    1    2    0    0  0.85068608943E+00 -0.13014397247E+02  0.16220736348E+03  0.18646169696E+03  0.91030969801E+02 0.  0.
          5    1    1    2  502    0 -0.15570517110E+02 -0.50747797665E+02  0.25237058937E+02  0.58964218936E+02  0.47000000000E+01 0. -1.
         -5    1    1    2    0  502  0.14719831020E+02  0.63762194912E+02  0.91567730160E+02  0.11264559526E+03  0.47000000000E+01 0. -1.
        -11    1    3    3    0    0  0.19420468758E+02  0.35110249495E+02  0.64153851233E+02  0.75667700206E+02  0.00000000000E+00 0.  1.
         11    1    3    3    0    0 -0.18569782668E+02 -0.48124646743E+02  0.98053512249E+02  0.11079399675E+03  0.00000000000E+00 0. -1.
<mgrwt>
<rscale>  0 0.11626914E+03</rscale>
<asrwt>0</asrwt>
<pdfrwt beam="1">  1        1 0.49006434E-01 0.12572418E+03</pdfrwt>
<pdfrwt beam="2">  1       -1 0.60814893E-02 0.12572418E+03</pdfrwt>
<totfact> 0.99981403E+03</totfact>
</mgrwt>
</event>
<event>
 7    1  0.5107591E-006  0.1562073E+03  0.7546771E-02  0.1212269E+00
         -1   -1    0    0    0  501 -0.00000000000E+00  0.00000000000E+00  0.91535937410E+03  0.91535937410E+03  0.00000000000E+00 0.  1.
          1   -1    0    0  501    0  0.00000000000E+00 -0.00000000000E+00 -0.18630251811E+02  0.18630251811E+02  0.00000000000E+00 0. -1.
         23    2    1    2    0    0  0.40650646119E+02 -0.92333583337E+01  0.30297626319E+03  0.32003263837E+03  0.94279073108E+02 0.  0.
          5    1    1    2  502    0 -0.68530011964E+02 -0.23339603468E+02  0.13567920403E+03  0.15385719364E+03  0.47000000000E+01 0. -1.
         -5    1    1    2    0  502  0.27879365845E+02  0.32572961802E+02  0.45807365507E+03  0.46009979390E+03  0.47000000000E+01 0.  1.
        -11    1    3    3    0    0  0.52035189780E+02 -0.42609254072E+02  0.18233983934E+03  0.19434769491E+03  0.00000000000E+00 0. -1.
         11    1    3    3    0    0 -0.11384543662E+02  0.33375895738E+02  0.12063642385E+03  0.12568494345E+03  0.00000000000E+00 0.  1.
<mgrwt>
<rscale>  0 0.14079060E+03</rscale>
<asrwt>0</asrwt>
<pdfrwt beam="2">  1        1 0.28661933E-02 0.15620731E+03</pdfrwt>
<pdfrwt beam="1">  1       -1 0.14082448E+00 0.15620731E+03</pdfrwt>
<totfact> 0.15861297E+03</totfact>
</mgrwt>
</event>
<event>
 7    1  0.5107591E-006  0.1456299E+03  0.7546771E-02  0.1216236E+00
         -1   -1    0    0    0  501 -0.00000000000E+00  0.00000000000E+00  0.85058837131E+02  0.85058837131E+02  0.00000000000E+00 0.  1.
          1   -1    0    0  501    0  0.00000000000E+00 -0.00000000000E+00 -0.53305262049E+03  0.53305262049E+03  0.00000000000E+00 0. -1.
         23    2    1    2    0    0  0.51979629591E+02  0.53671411715E+02 -0.45746027500E+03  0.47217416632E+03  0.89977985139E+02 0.  0.
          5    1    1    2  502    0 -0.41777969837E+00 -0.50434919674E+02 -0.47111059818E+02  0.69176568429E+02  0.47000000000E+01 0.  1.
         -5    1    1    2    0  502 -0.51561849893E+02 -0.32364920411E+01  0.56577551465E+02  0.76760722866E+02  0.47000000000E+01 0.  1.
        -11    1    3    3    0    0  0.13850850967E+02  0.69491199788E+02 -0.21931685232E+03  0.23047940175E+03  0.00000000000E+00 0.  1.
         11    1    3    3    0    0  0.38128778624E+02 -0.15819788073E+02 -0.23814342268E+03  0.24169476457E+03  0.00000000000E+00 0. -1.
<mgrwt>
<rscale>  0 0.13786149E+03</rscale>
<asrwt>0</asrwt>
<pdfrwt beam="2">  1        1 0.82008095E-01 0.14562994E+03</pdfrwt>
<pdfrwt beam="1">  1       -1 0.13085975E-01 0.14562994E+03</pdfrwt>
<totfact> 0.16358330E+03</totfact>
</mgrwt>
</event>
<event>
 7    1  0.5107591E-006  0.1487822E+03  0.7546771E-02  0.1212588E+00
          1   -1    0    0  501    0  0.00000000000E+00  0.00000000000E+00  0.18599644837E+03  0.18599644837E+03  0.00000000000E+00 0. -1.
         -1   -1    0    0    0  501 -0.00000000000E+00 -0.00000000000E+00 -0.10406917377E+03  0.10406917377E+03  0.00000000000E+00 0.  1.
         23    2    1    2    0    0  0.46200486689E+02 -0.66158234837E+02  0.76778603066E+02  0.14119435252E+03  0.86772658644E+02 0.  0.
          5    1    1    2  502    0 -0.85053080696E+02  0.67796034765E+02 -0.27910601363E+01  0.10890458614E+03  0.47000000000E+01 0.  1.
         -5    1    1    2    0  502  0.38852594007E+02 -0.16377999278E+01  0.79397316702E+01  0.39966683484E+02  0.47000000000E+01 0.  1.
        -11    1    3    3    0    0 -0.47765972847E+01 -0.44652288854E+02 -0.19725234961E+01  0.44950346277E+02  0.00000000000E+00 0.  1.
         11    1    3    3    0    0  0.50977083974E+02 -0.21505945983E+02  0.78751126562E+02  0.96244006244E+02  0.00000000000E+00 0. -1.
<mgrwt>
<rscale>  0 0.14055218E+03</rscale>
<asrwt>0</asrwt>
<pdfrwt beam="1">  1        1 0.28614838E-01 0.14878221E+03</pdfrwt>
<pdfrwt beam="2">  1       -1 0.16010642E-01 0.14878221E+03</pdfrwt>
<totfact> 0.44872118E+03</totfact>
</mgrwt>
</event>
<event>
 7    1  0.5107591E-006  0.2310132E+03  0.7546771E-02  0.1125929E+00
         -1   -1    0    0    0  501 -0.00000000000E+00  0.00000000000E+00  0.18411631367E+02  0.18411631367E+02  0.00000000000E+00 0.  1.
          1   -1    0    0  501    0  0.00000000000E+00 -0.00000000000E+00 -0.72463838406E+03  0.72463838406E+03  0.00000000000E+00 0. -1.
         23    2    1    2    0    0 -0.23817352933E+02  0.72253064053E+01 -0.40619905515E+03  0.41708032129E+03  0.91317307492E+02 0.  0.
          5    1    1    2  502    0  0.59793254285E+02 -0.36776870088E+02 -0.11246795412E+03  0.13266085382E+03  0.47000000000E+01 0. -1.
         -5    1    1    2    0  502 -0.35975901352E+02  0.29551563683E+02 -0.18755974342E+03  0.19330884032E+03  0.47000000000E+01 0. -1.
        -11    1    3    3    0    0  0.26904583632E+02 -0.19621797126E+02 -0.95847339842E+02  0.10146715773E+03  0.00000000000E+00 0.  1.
         11    1    3    3    0    0 -0.50721936565E+02  0.26847103532E+02 -0.31035171531E+03  0.31561316356E+03  0.00000000000E+00 0. -1.
<mgrwt>
<rscale>  0 0.23101320E+03</rscale>
<asrwt>0</asrwt>
<pdfrwt beam="2">  1        1 0.11148283E+00 0.23101320E+03</pdfrwt>
<pdfrwt beam="1">  1       -1 0.28325587E-02 0.23101320E+03</pdfrwt>
<totfact> 0.10872589E+04</totfact>
</mgrwt>
</event>
<event>
 7    1  0.5107591E-006  0.1262685E+03  0.7546771E-02  0.1248425E+00
         -1   -1    0    0    0  501 -0.00000000000E+00  0.00000000000E+00  0.80867010097E+02  0.80867010097E+02  0.00000000000E+00 0.  1.
          1   -1    0    0  501    0  0.00000000000E+00 -0.00000000000E+00 -0.15255988497E+03  0.15255988497E+03  0.00000000000E+00 0. -1.
         23    2    1    2    0    0  0.17586518261E+02 -0.26765347780E+01 -0.50425362735E+02  0.10537987424E+03  0.90806118877E+02 0.  0.
          5    1    1    2  502    0 -0.64434797715E+02 -0.23363304998E+02 -0.27256889265E+02  0.73910183259E+02  0.47000000000E+01 0.  1.
         -5    1    1    2    0  502  0.46848279454E+02  0.26039839776E+02  0.59893771254E+01  0.54136837566E+02  0.47000000000E+01 0.  1.
        -11    1    3    3    0    0  0.29375877098E+02 -0.37756119247E+02 -0.70372929342E+01  0.48352768150E+02  0.00000000000E+00 0.  1.
         11    1    3    3    0    0 -0.11789358837E+02  0.35079584469E+02 -0.43388069801E+02  0.57027106094E+02  0.00000000000E+00 0. -1.
<mgrwt>
<rscale>  0 0.11682732E+03</rscale>
<asrwt>0</asrwt>
<pdfrwt beam="2">  1        1 0.23470751E-01 0.12626849E+03</pdfrwt>
<pdfrwt beam="1">  1       -1 0.12441079E-01 0.12626849E+03</pdfrwt>
<totfact> 0.84347328E+03</totfact>
</mgrwt>
</event>
<event>
 7    1  0.5107591E-006  0.1698826E+03  0.7546771E-02  0.1185190E+00
         -2   -1    0    0    0  501 -0.00000000000E+00  0.00000000000E+00  0.77208663984E+03  0.77208663984E+03  0.00000000000E+00 0.  1.
          2   -1    0    0  501    0  0.00000000000E+00 -0.00000000000E+00 -0.32592721263E+02  0.32592721263E+02  0.00000000000E+00 0. -1.
         23    2    1    2    0    0 -0.73116812455E+02 -0.88805557150E+02  0.28645835379E+03  0.32083916332E+03  0.87446469459E+02 0.  0.
          5    1    1    2  502    0 -0.88288465426E+01  0.67104196647E+02  0.31142082623E+03  0.31872549749E+03  0.47000000000E+01 0.  1.
         -5    1    1    2    0  502  0.81945658998E+02  0.21701360503E+02  0.14161473856E+03  0.16511470029E+03  0.47000000000E+01 0.  1.
        -11    1    3    3    0    0 -0.43669889996E+02  0.32651904543E+01  0.57228711297E+02  0.72061405466E+02  0.00000000000E+00 0. -1.
         11    1    3    3    0    0 -0.29446922459E+02 -0.92070747604E+02  0.22922964249E+03  0.24877775785E+03  0.00000000000E+00 0.  1.
<mgrwt>
<rscale>  0 0.16314601E+03</rscale>
<asrwt>0</asrwt>
<pdfrwt beam="2">  1        2 0.50142654E-02 0.16988265E+03</pdfrwt>
<pdfrwt beam="1">  1       -2 0.11878255E+00 0.16988265E+03</pdfrwt>
<totfact> 0.87559997E+02</totfact>
</mgrwt>
</event>
<event>
 7    1  0.5107591E-006  0.1385471E+03  0.7546771E-02  0.1225453E+00
         -2   -1    0    0    0  501 -0.00000000000E+00  0.00000000000E+00  0.16436431658E+03  0.16436431658E+03  0.00000000000E+00 0.  1.
          2   -1    0    0  501    0  0.00000000000E+00 -0.00000000000E+00 -0.95839861603E+02  0.95839861603E+02  0.00000000000E+00 0. -1.
         23    2    1    2    0    0  0.77877815724E+01  0.59236080266E+02  0.22355113435E+02  0.11416680090E+03  0.94682335122E+02 0.  0.
          5    1    1    2  502    0  0.23610949643E+02 -0.77988093423E+02 -0.63507286093E+01  0.81865996681E+02  0.47000000000E+01 0.  1.
         -5    1    1    2    0  502 -0.31398731216E+02  0.18752013156E+02  0.52520070146E+02  0.64171380596E+02  0.47000000000E+01 0.  1.
        -11    1    3    3    0    0  0.44476057411E+01  0.43895385791E+02  0.59364832225E+02  0.73964649635E+02  0.00000000000E+00 0.  1.
         11    1    3    3    0    0  0.33401758314E+01  0.15340694475E+02 -0.37009718789E+02  0.40202151266E+02  0.00000000000E+00 0. -1.
<mgrwt>
<rscale>  0 0.13135926E+03</rscale>
<asrwt>0</asrwt>
<pdfrwt beam="2">  1        2 0.14744594E-01 0.13854713E+03</pdfrwt>
<pdfrwt beam="1">  1       -2 0.25286818E-01 0.13854713E+03</pdfrwt>
<totfact> 0.52801556E+03</totfact>
</mgrwt>
</event>
<event>
 7    1  0.5107591E-006  0.1293867E+03  0.7546771E-02  0.1242233E+00
         -1   -1    0    0    0  501 -0.00000000000E+00  0.00000000000E+00  0.46429917925E+02  0.46429917925E+02  0.00000000000E+00 0.  1.
          1   -1    0    0  501    0  0.00000000000E+00 -0.00000000000E+00 -0.27703518317E+03  0.27703518317E+03  0.00000000000E+00 0. -1.
         23    2    1    2    0    0  0.24192205692E+02  0.16818094706E+02 -0.10127062027E+03  0.14052146443E+03  0.92857053105E+02 0.  0.
          5    1    1    2  502    0  0.26655370686E+02 -0.30001301916E+02 -0.12343000934E+03  0.12987549464E+03  0.47000000000E+01 0. -1.
         -5    1    1    2    0  502 -0.50847576378E+02  0.13183207210E+02 -0.59046356447E+01  0.53068142025E+02  0.47000000000E+01 0.  1.
        -11    1    3    3    0    0  0.51341102258E+02  0.20949732321E+02 -0.27683493582E+02  0.61977220672E+02  0.00000000000E+00 0.  1.
         11    1    3    3    0    0 -0.27148896566E+02 -0.41316376148E+01 -0.73587126686E+02  0.78544243762E+02  0.00000000000E+00 0. -1.
<mgrwt>
<rscale>  0 0.12052542E+03</rscale>
<asrwt>0</asrwt>
<pdfrwt beam="2">  1        1 0.42620797E-01 0.12938672E+03</pdfrwt>
<pdfrwt beam="1">  1       -1 0.71430644E-02 0.12938672E+03</pdfrwt>
<totfact> 0.93637138E+03</totfact>
</mgrwt>
</event>
<event>
 6    1  0.5107591E-006  0.1468646E+03  0.7546771E-02  0.1259760E+00
          2   -1    0    0  501    0  0.00000000000E+00  0.00000000000E+00  0.33721972445E+03  0.33721972445E+03  0.00000000000E+00 0. -1.
         -2   -1    0    0    0  501 -0.00000000000E+00 -0.00000000000E+00 -0.83050222171E+02  0.83050222171E+02  0.00000000000E+00 0.  1.
          5    1    1    2  502    0  0.25298534399E+02  0.47637242769E+02  0.39063078009E+02  0.66763289351E+02  0.47000000000E+01 0. -1.
         -5    1    1    2    0  502 -0.49596556321E+02 -0.34417197881E+02 -0.53515635487E+02  0.80810736604E+02  0.47000000000E+01 0.  1.
        -11    1    1    2    0    0 -0.84702193125E+01 -0.11318195211E+02  0.80678388601E+02  0.81907560978E+02  0.00000000000E+00 0.  1.
         11    1    1    2    0    0  0.32768241235E+02 -0.19018496776E+01  0.18794367115E+03  0.19078835969E+03  0.00000000000E+00 0. -1.
<mgrwt>
<rscale>  0 0.11043843E+03</rscale>
<asrwt>0</asrwt>
<pdfrwt beam="1">  1        2 0.51879957E-01 0.14686462E+03</pdfrwt>
<pdfrwt beam="2">  1       -2 0.12776957E-01 0.14686462E+03</pdfrwt>
<totfact> 0.41547404E+03</totfact>
</mgrwt>
</event>
<event>
 7    1  0.5107591E-006  0.2211046E+03  0.7546771E-02  0.1133062E+00
         -1   -1    0    0    0  501 -0.00000000000E+00  0.00000000000E+00  0.93151516917E+02  0.93151516917E+02  0.00000000000E+00 0.  1.
          1   -1    0    0  501    0  0.00000000000E+00 -0.00000000000E+00 -0.13120354820E+03  0.13120354820E+03  0.00000000000E+00 0. -1.
         23    2    1    2    0    0 -0.21511656435E+02 -0.16110884530E+02 -0.36007075665E+02  0.96485582157E+02  0.85385280367E+02 0.  0.
          5    1    1    2  502    0  0.56135341994E+02  0.47678028206E+02  0.19128998943E+02  0.76238963758E+02  0.47000000000E+01 0. -1.
         -5    1    1    2    0  502 -0.34623685559E+02 -0.31567143675E+02 -0.21173954565E+02  0.51630519206E+02  0.47000000000E+01 0. -1.
        -11    1    3    3    0    0 -0.43048003429E+02 -0.22069415444E+02  0.61575685678E+01  0.48765821514E+02  0.00000000000E+00 0.  1.
         11    1    3    3    0    0  0.21536346995E+02  0.59585309135E+01 -0.42164644233E+02  0.47719760643E+02  0.00000000000E+00 0. -1.
<mgrwt>
<rscale>  0 0.22110459E+03</rscale>
<asrwt>0</asrwt>
<pdfrwt beam="2">  1        1 0.20185161E-01 0.22110459E+03</pdfrwt>
<pdfrwt beam="1">  1       -1 0.14331003E-01 0.22110459E+03</pdfrwt>
<totfact> 0.85227880E+03</totfact>
</mgrwt>
</event>
<event>
 7    1  0.5107591E-006  0.2278494E+03  0.7546771E-02  0.1128163E+00
          3   -1    0    0  501    0  0.00000000000E+00  0.00000000000E+00  0.32882964412E+03  0.32882964412E+03  0.00000000000E+00 0. -1.
         -3   -1    0    0    0  501 -0.00000000000E+00 -0.00000000000E+00 -0.39469776018E+02  0.39469776018E+02  0.00000000000E+00 0.  1.
         23    2    1    2    0    0  0.41554012051E+01 -0.15065442185E+02  0.12625736189E+03  0.15613536244E+03  0.90515717226E+02 0.  0.
          5    1    1    2  502    0 -0.25105499896E+02  0.63449487782E+02  0.13704260073E+03  0.15316294604E+03  0.47000000000E+01 0. -1.
         -5    1    1    2    0  502  0.20950098691E+02 -0.48384045596E+02  0.26059905484E+02  0.59001111661E+02  0.47000000000E+01 0.  1.
        -11    1    3    3    0    0  0.21556672199E+02 -0.37073489578E+02  0.11994030630E+03  0.12737664944E+03  0.00000000000E+00 0.  1.
         11    1    3    3    0    0 -0.17401270994E+02  0.22008047393E+02  0.63170555889E+01  0.28758713003E+02  0.00000000000E+00 0. -1.
<mgrwt>
<rscale>  0 0.22784936E+03</rscale>
<asrwt>0</asrwt>
<pdfrwt beam="1">  1        3 0.50589174E-01 0.22784936E+03</pdfrwt>
<pdfrwt beam="2">  1       -3 0.60722734E-02 0.22784936E+03</pdfrwt>
<totfact> 0.16223670E+03</totfact>
</mgrwt>
</event>
<event>
 7    1  0.5107591E-006  0.1356147E+03  0.7546771E-02  0.1231046E+00
         -1   -1    0    0    0  501 -0.00000000000E+00  0.00000000000E+00  0.16601012071E+03  0.16601012071E+03  0.00000000000E+00 0.  1.
          1   -1    0    0  501    0  0.00000000000E+00 -0.00000000000E+00 -0.21360692482E+03  0.21360692482E+03  0.00000000000E+00 0. -1.
         23    2    1    2    0    0  0.25143571784E+01 -0.52542563691E+02 -0.16763449781E+03  0.19850823384E+03  0.92396704781E+02 0.  0.
          5    1    1    2  502    0 -0.40936395178E+02  0.76333127223E+02  0.58548066273E+02  0.10465419641E+03  0.47000000000E+01 0.  1.
         -5    1    1    2    0  502  0.38422038000E+02 -0.23790563532E+02  0.61489627424E+02  0.76454615282E+02  0.47000000000E+01 0.  1.
        -11    1    3    3    0    0  0.40304372489E+02 -0.54899096422E+02 -0.11531914372E+03  0.13392855610E+03  0.00000000000E+00 0. -1.
         11    1    3    3    0    0 -0.37790015311E+02  0.23565327314E+01 -0.52315354091E+02  0.64579677743E+02  0.00000000000E+00 0.  1.
<mgrwt>
<rscale>  0 0.12761011E+03</rscale>
<asrwt>0</asrwt>
<pdfrwt beam="2">  1        1 0.32862604E-01 0.13561473E+03</pdfrwt>
<pdfrwt beam="1">  1       -1 0.25540019E-01 0.13561473E+03</pdfrwt>
<totfact> 0.17734284E+03</totfact>
</mgrwt>
</event>
<event>
 7    1  0.5107591E-006  0.1322521E+03  0.7546771E-02  0.1238184E+00
          2   -1    0    0  501    0  0.00000000000E+00  0.00000000000E+00  0.16179511233E+03  0.16179511233E+03  0.00000000000E+00 0. -1.
         -2   -1    0    0    0  501 -0.00000000000E+00 -0.00000000000E+00 -0.82693011522E+02  0.82693011522E+02  0.00000000000E+00 0.  1.
         23    2    1    2    0    0 -0.39775777318E+02  0.16857817022E+02  0.31417507626E+02  0.10390203615E+03  0.89119441618E+02 0.  0.
          5    1    1    2  502    0  0.70029093153E+02 -0.48829027046E+02  0.18250823040E+02  0.87427285854E+02  0.47000000000E+01 0. -1.
         -5    1    1    2    0  502 -0.30253315835E+02  0.31971210024E+02  0.29433770145E+02  0.53158801852E+02  0.47000000000E+01 0. -1.
        -11    1    3    3    0    0 -0.19121324661E+02  0.36925058350E+02  0.53394776930E+02  0.67676341467E+02  0.00000000000E+00 0. -1.
         11    1    3    3    0    0 -0.20654452657E+02 -0.20067241327E+02 -0.21977269305E+02  0.36225694681E+02  0.00000000000E+00 0.  1.
<mgrwt>
<rscale>  0 0.12302766E+03</rscale>
<asrwt>0</asrwt>
<pdfrwt beam="1">  1        2 0.24891556E-01 0.13225214E+03</pdfrwt>
<pdfrwt beam="2">  1       -2 0.12722002E-01 0.13225214E+03</pdfrwt>
<totfact> 0.91469090E+03</totfact>
</mgrwt>
</event>
<event>
 7    1  0.5107591E-006  0.1336953E+03  0.7546771E-02  0.1234329E+00
         -1   -1    0    0    0  501 -0.00000000000E+00  0.00000000000E+00  0.16583727375E+03  0.16583727375E+03  0.00000000000E+00 0.  1.
          1   -1    0    0  501    0  0.00000000000E+00 -0.00000000000E+00 -0.89869256558E+02  0.89869256558E+02  0.00000000000E+00 0. -1.
         23    2    1    2    0    0  0.20581171057E+02  0.42736603105E+02  0.63062490737E+02  0.12138977003E+03  0.92242054849E+02 0.  0.
          5    1    1    2  502    0 -0.10588323663E+02  0.19960293591E+02  0.53875762723E+02  0.58610696355E+02  0.47000000000E+01 0.  1.
         -5    1    1    2    0  502 -0.99928473942E+01 -0.62696896696E+02 -0.40970236270E+02  0.75706063921E+02  0.47000000000E+01 0.  1.
        -11    1    3    3    0    0  0.15995166177E+02  0.69853385991E+02  0.28259343543E+02  0.77032015246E+02  0.00000000000E+00 0. -1.
         11    1    3    3    0    0  0.45860048806E+01 -0.27116782885E+02  0.34803147194E+02  0.44357754783E+02  0.00000000000E+00 0.  1.
<mgrwt>
<rscale>  0 0.12547483E+03</rscale>
<asrwt>0</asrwt>
<pdfrwt beam="2">  1        1 0.13826039E-01 0.13369532E+03</pdfrwt>
<pdfrwt beam="1">  1       -1 0.25513427E-01 0.13369532E+03</pdfrwt>
<totfact> 0.53184429E+03</totfact>
</mgrwt>
</event>
<event>
 7    1  0.5107591E-006  0.1257818E+03  0.7546771E-02  0.1250849E+00
         -2   -1    0    0    0  501 -0.00000000000E+00  0.00000000000E+00  0.27238002941E+02  0.27238002941E+02  0.00000000000E+00 0.  1.
          2   -1    0    0  501    0  0.00000000000E+00 -0.00000000000E+00 -0.42860519247E+03  0.42860519247E+03  0.00000000000E+00 0. -1.
         23    2    1    2    0    0 -0.11307367066E+02  0.80814505708E+01 -0.14391030054E+03  0.16930330860E+03  0.88092390742E+02 0.  0.
          5    1    1    2  502    0 -0.38248519911E+02 -0.42126534158E+02 -0.17706455958E+03  0.18604177600E+03  0.47000000000E+01 0. -1.
         -5    1    1    2    0  502  0.49555886977E+02  0.34045083587E+02 -0.80392329403E+02  0.10049811082E+03  0.47000000000E+01 0. -1.
        -11    1    3    3    0    0 -0.41024625167E+01  0.44169449320E+02 -0.11246811491E+03  0.12090015435E+03  0.00000000000E+00 0. -1.
         11    1    3    3    0    0 -0.72049045493E+01 -0.36087998749E+02 -0.31442185634E+02  0.48403154244E+02  0.00000000000E+00 0.  1.
<mgrwt>
<rscale>  0 0.11542042E+03</rscale>
<asrwt>0</asrwt>
<pdfrwt beam="2">  1        2 0.65939257E-01 0.12578178E+03</pdfrwt>
<pdfrwt beam="1">  1       -2 0.41904622E-02 0.12578178E+03</pdfrwt>
<totfact> 0.17704876E+04</totfact>
</mgrwt>
</event>
<event>
 7    1  0.5107591E-006  0.2236798E+03  0.7546771E-02  0.1134216E+00
         -1   -1    0    0    0  501 -0.00000000000E+00  0.00000000000E+00  0.42890356133E+02  0.42890356133E+02  0.00000000000E+00 0.  1.
          1   -1    0    0  501    0  0.00000000000E+00 -0.00000000000E+00 -0.10876437675E+04  0.10876437675E+04  0.00000000000E+00 0. -1.
         23    2    1    2    0    0 -0.15517287053E+02 -0.18484470207E+03 -0.53424106910E+03  0.57316933101E+03  0.93280287408E+02 0.  0.
          5    1    1    2  502    0 -0.24370536730E+02  0.17750196866E+03 -0.44987273807E+03  0.48426071738E+03  0.47000000000E+01 0. -1.
         -5    1    1    2    0  502  0.39887823783E+02  0.73427334101E+01 -0.60639604205E+02  0.73104075250E+02  0.47000000000E+01 0. -1.
        -11    1    3    3    0    0  0.35280220703E+01  0.10536937408E+02 -0.23289833668E+02  0.25804851132E+02  0.00000000000E+00 0.  1.
         11    1    3    3    0    0 -0.19045309123E+02 -0.19538163948E+03 -0.51095123543E+03  0.54736447988E+03  0.00000000000E+00 0. -1.
<mgrwt>
<rscale>  0 0.21955423E+03</rscale>
<asrwt>0</asrwt>
<pdfrwt beam="2">  1        1 0.16732980E+00 0.22367982E+03</pdfrwt>
<pdfrwt beam="1">  1       -1 0.65985167E-02 0.22367982E+03</pdfrwt>
<totfact> 0.15926125E+03</totfact>
</mgrwt>
</event>
<event>
 7    1  0.5107591E-006  0.1972762E+03  0.7546771E-02  0.1156354E+00
          1   -1    0    0  501    0  0.00000000000E+00  0.00000000000E+00  0.36502936838E+03  0.36502936838E+03  0.00000000000E+00 0. -1.
         -1   -1    0    0    0  501 -0.00000000000E+00 -0.00000000000E+00 -0.10190172578E+03  0.10190172578E+03  0.00000000000E+00 0.  1.
         23    2    1    2    0    0 -0.17086965885E+02  0.15166513611E+03  0.17837648514E+03  0.25222042537E+03  0.92210056970E+02 0.  0.
          5    1    1    2  502    0  0.29814080057E+02  0.81316083176E+01  0.34715679969E+02  0.46714782020E+02  0.47000000000E+01 0. -1.
         -5    1    1    2    0  502 -0.12727114172E+02 -0.15979674443E+03  0.50035477493E+02  0.16799588678E+03  0.47000000000E+01 0. -1.
        -11    1    3    3    0    0  0.34822393192E+02  0.65391472908E+02  0.51405330310E+02  0.90172899371E+02  0.00000000000E+00 0.  1.
         11    1    3    3    0    0 -0.51909359077E+02  0.86273663204E+02  0.12697115483E+03  0.16204752600E+03  0.00000000000E+00 0. -1.
<mgrwt>
<rscale>  0 0.19235536E+03</rscale>
<asrwt>0</asrwt>
<pdfrwt beam="1">  1        1 0.56158363E-01 0.19727623E+03</pdfrwt>
<pdfrwt beam="2">  1       -1 0.15677189E-01 0.19727623E+03</pdfrwt>
<totfact> 0.20215821E+03</totfact>
</mgrwt>
</event>
<event>
 7    1  0.5107591E-006  0.1404016E+03  0.7546771E-02  0.1225132E+00
         -2   -1    0    0    0  501 -0.00000000000E+00  0.00000000000E+00  0.74854748717E+02  0.74854748717E+02  0.00000000000E+00 0.  1.
          2   -1    0    0  501    0  0.00000000000E+00 -0.00000000000E+00 -0.32330537881E+03  0.32330537881E+03  0.00000000000E+00 0. -1.
         23    2    1    2    0    0  0.29351735710E+01  0.63869872831E+02 -0.23296485605E+03  0.25690705158E+03  0.87410715010E+02 0.  0.
          5    1    1    2  502    0 -0.19946272078E+02  0.26211503593E+02 -0.34043619839E+02  0.47602045567E+02  0.47000000000E+01 0.  1.
         -5    1    1    2    0  502  0.17011098507E+02 -0.90081376423E+02  0.18557845794E+02  0.93651030380E+02  0.47000000000E+01 0.  1.
        -11    1    3    3    0    0  0.27685199128E+02 -0.13389193078E+01 -0.12740911389E+03  0.13038920684E+03  0.00000000000E+00 0.  1.
         11    1    3    3    0    0 -0.24750025557E+02  0.65208792138E+02 -0.10555574215E+03  0.12651784474E+03  0.00000000000E+00 0. -1.
<mgrwt>
<rscale>  0 0.13157851E+03</rscale>
<asrwt>0</asrwt>
<pdfrwt beam="2">  1        2 0.49739289E-01 0.14040165E+03</pdfrwt>
<pdfrwt beam="1">  1       -2 0.11516115E-01 0.14040165E+03</pdfrwt>
<totfact> 0.51187645E+03</totfact>
</mgrwt>
</event>
<event>
 7    1  0.5107591E-006  0.1307461E+03  0.7546771E-02  0.1249357E+00
         -2   -1    0    0    0  501 -0.00000000000E+00  0.00000000000E+00  0.81390369977E+03  0.81390369977E+03  0.00000000000E+00 0.  1.
          2   -1    0    0  501    0  0.00000000000E+00 -0.00000000000E+00 -0.14197898052E+02  0.14197898052E+02  0.00000000000E+00 0. -1.
         23    2    1    2    0    0 -0.36892847592E+02 -0.10924884525E+02  0.24927348707E+03  0.26235405511E+03  0.72193791771E+02 0.  0.
          5    1    1    2  502    0  0.37463911598E+02  0.44030061088E+02  0.11279645736E+03  0.12683580624E+03  0.47000000000E+01 0.  1.
         -5    1    1    2    0  502 -0.57106400599E+00 -0.33105176563E+02  0.43763585729E+03  0.43891173648E+03  0.47000000000E+01 0.  1.
        -11    1    3    3    0    0 -0.13101835729E+02  0.24958347883E+02  0.41507976348E+02  0.50174588479E+02  0.00000000000E+00 0. -1.
         11    1    3    3    0    0 -0.23791011862E+02 -0.35883232408E+02  0.20776551072E+03  0.21217946663E+03  0.00000000000E+00 0.  1.
<mgrwt>
<rscale>  0 0.11628379E+03</rscale>
<asrwt>0</asrwt>
<pdfrwt beam="2">  1        2 0.21842926E-02 0.13074612E+03</pdfrwt>
<pdfrwt beam="1">  1       -2 0.12521592E+00 0.13074612E+03</pdfrwt>
<totfact> 0.23103121E+03</totfact>
</mgrwt>
</event>
<event>
 7    1  0.5107591E-006  0.1466509E+03  0.7546771E-02  0.1215475E+00
          3   -1    0    0  501    0  0.00000000000E+00  0.00000000000E+00  0.25979330277E+03  0.25979330277E+03  0.00000000000E+00 0. -1.
         -3   -1    0    0    0  501 -0.00000000000E+00 -0.00000000000E+00 -0.84382255889E+02  0.84382255889E+02  0.00000000000E+00 0.  1.
         23    2    1    2    0    0  0.48662970574E+00 -0.76686162964E+02  0.15837087172E+03  0.19653799331E+03  0.87549102841E+02 0.  0.
          5    1    1    2  502    0  0.58531322804E+02  0.49020076663E+02  0.27841394365E+02  0.81400963787E+02  0.47000000000E+01 0.  1.
         -5    1    1    2    0  502 -0.59017952510E+02  0.27666086301E+02 -0.10801219203E+02  0.66236601558E+02  0.47000000000E+01 0.  1.
        -11    1    3    3    0    0  0.77352473584E+00 -0.40064437553E+02  0.15461463384E+03  0.15972301805E+03  0.00000000000E+00 0. -1.
         11    1    3    3    0    0 -0.28689503010E+00 -0.36621725411E+02  0.37562378794E+01  0.36814975266E+02  0.00000000000E+00 0.  1.
<mgrwt>
<rscale>  0 0.13841696E+03</rscale>
<asrwt>0</asrwt>
<pdfrwt beam="1">  1        3 0.39968200E-01 0.14665089E+03</pdfrwt>
<pdfrwt beam="2">  1       -3 0.12981886E-01 0.14665089E+03</pdfrwt>
<totfact> 0.69215338E+02</totfact>
</mgrwt>
</event>
<event>
 7    1  0.5107591E-006  0.3484768E+03  0.7546771E-02  0.1064392E+00
         -2   -1    0    0    0  501 -0.00000000000E+00  0.00000000000E+00  0.82989860741E+02  0.82989860741E+02  0.00000000000E+00 0.  1.
          2   -1    0    0  501    0  0.00000000000E+00 -0.00000000000E+00 -0.15571075460E+04  0.15571075460E+04  0.00000000000E+00 0. -1.
         23    2    1    2    0    0  0.18142308252E+03 -0.26999330166E+03 -0.97174577948E+03  0.10286944256E+04  0.90064662701E+02 0.  0.
          5    1    1    2  502    0 -0.83435715897E+02  0.79297128704E+02 -0.88501202858E+02  0.14527252395E+03  0.47000000000E+01 0. -1.
         -5    1    1    2    0  502 -0.97987366619E+02  0.19069617296E+03 -0.41387070288E+03  0.46613045717E+03  0.47000000000E+01 0. -1.
        -11    1    3    3    0    0  0.13842650101E+03 -0.21019750308E+03 -0.61652379267E+03  0.66591776775E+03  0.00000000000E+00 0.  1.
         11    1    3    3    0    0  0.42996581509E+02 -0.59795798587E+02 -0.35522198682E+03  0.36277665783E+03  0.00000000000E+00 0. -1.
<mgrwt>
<rscale>  0 0.34570568E+03</rscale>
<asrwt>0</asrwt>
<pdfrwt beam="2">  1        2 0.23955502E+00 0.34847679E+03</pdfrwt>
<pdfrwt beam="1">  1       -2 0.12767670E-01 0.34847679E+03</pdfrwt>
<totfact> 0.56500679E+02</totfact>
</mgrwt>
</event>
<event>
 7    1  0.5107591E-006  0.1216725E+03  0.7546771E-02  0.1252002E+00
         -2   -1    0    0    0  501 -0.00000000000E+00  0.00000000000E+00  0.78227707049E+02  0.78227707049E+02  0.00000000000E+00 0.  1.
          2   -1    0    0  501    0  0.00000000000E+00 -0.00000000000E+00 -0.15897426406E+03  0.15897426406E+03  0.00000000000E+00 0. -1.
         23    2    1    2    0    0  0.12975355107E+02  0.32391636280E+02 -0.60874392915E+02  0.11391737507E+03  0.89743516142E+02 0.  0.
          5    1    1    2  502    0 -0.23567842033E+02  0.40752182895E+02 -0.12019255527E+02  0.48813277827E+02  0.47000000000E+01 0. -1.
         -5    1    1    2    0  502  0.10592486926E+02 -0.73143819175E+02 -0.78529085679E+01  0.74471318209E+02  0.47000000000E+01 0.  1.
        -11    1    3    3    0    0  0.36850735348E+02 -0.17636212711E+02 -0.26185845555E+02  0.48525366582E+02  0.00000000000E+00 0.  1.
         11    1    3    3    0    0 -0.23875380242E+02  0.50027848991E+02 -0.34688547360E+02  0.65392008490E+02  0.00000000000E+00 0. -1.
<mgrwt>
<rscale>  0 0.11475929E+03</rscale>
<asrwt>0</asrwt>
<pdfrwt beam="2">  1        2 0.24457579E-01 0.12167246E+03</pdfrwt>
<pdfrwt beam="1">  1       -2 0.12035032E-01 0.12167246E+03</pdfrwt>
<totfact> 0.10122701E+04</totfact>
</mgrwt>
</event>
<event>
 7    1  0.5107591E-006  0.1187927E+03  0.7546771E-02  0.1253129E+00
          2   -1    0    0  501    0  0.00000000000E+00  0.00000000000E+00  0.42313778697E+02  0.42313778697E+02  0.00000000000E+00 0. -1.
         -2   -1    0    0    0  501 -0.00000000000E+00 -0.00000000000E+00 -0.30287974220E+03  0.30287974220E+03  0.00000000000E+00 0.  1.
         23    2    1    2    0    0 -0.40958204016E+02 -0.59420988185E+01 -0.79633395612E+02  0.12874882987E+03  0.92314140202E+02 0.  0.
          5    1    1    2  502    0  0.76852493888E+02  0.34731622430E+01 -0.89719819994E+02  0.11827977330E+03  0.47000000000E+01 0. -1.
         -5    1    1    2    0  502 -0.35894289872E+02  0.24689365755E+01 -0.91212747896E+02  0.98164917725E+02  0.47000000000E+01 0.  1.
        -11    1    3    3    0    0  0.27963099329E+02 -0.12470511677E+02 -0.15239491773E+02  0.34200741148E+02  0.00000000000E+00 0. -1.
         11    1    3    3    0    0 -0.68921303345E+02  0.65284128588E+01 -0.64393903838E+02  0.94548088721E+02  0.00000000000E+00 0.  1.
<mgrwt>
<rscale>  0 0.11411749E+03</rscale>
<asrwt>0</asrwt>
<pdfrwt beam="1">  1        2 0.65098116E-02 0.11879272E+03</pdfrwt>
<pdfrwt beam="2">  1       -2 0.46596887E-01 0.11879272E+03</pdfrwt>
<totfact> 0.46184615E+03</totfact>
</mgrwt>
</event>
<event>
 7    1  0.5107591E-006  0.1544880E+03  0.7546771E-02  0.1199868E+00
         -2   -1    0    0    0  501 -0.00000000000E+00  0.00000000000E+00  0.50739341066E+03  0.50739341066E+03  0.00000000000E+00 0.  1.
          2   -1    0    0  501    0  0.00000000000E+00 -0.00000000000E+00 -0.44531756221E+02  0.44531756221E+02  0.00000000000E+00 0. -1.
         23    2    1    2    0    0 -0.29747582809E+02  0.85786004445E+02  0.16064144111E+03  0.21250861135E+03  0.10540436448E+03 0.  0.
          5    1    1    2  502    0  0.53483309976E+02 -0.56175511801E+02  0.71652011893E+02  0.10569888070E+03  0.47000000000E+01 0. -1.
         -5    1    1    2    0  502 -0.23735727167E+02 -0.29610492644E+02  0.23056820144E+03  0.23371767484E+03  0.47000000000E+01 0. -1.
        -11    1    3    3    0    0 -0.46284383713E+02  0.91187015600E+02  0.16541222619E+03  0.19446984487E+03  0.00000000000E+00 0.  1.
         11    1    3    3    0    0  0.16536800904E+02 -0.54010111550E+01 -0.47707850834E+01  0.18038766475E+02  0.00000000000E+00 0. -1.
<mgrwt>
<rscale>  0 0.15049361E+03</rscale>
<asrwt>0</asrwt>
<pdfrwt beam="2">  1        2 0.68510398E-02 0.15448800E+03</pdfrwt>
<pdfrwt beam="1">  1       -2 0.78060521E-01 0.15448800E+03</pdfrwt>
<totfact> 0.15210753E+03</totfact>
</mgrwt>
</event>
<event>
 7    1  0.5107591E-006  0.1448178E+03  0.7546771E-02  0.1216587E+00
          1   -1    0    0  501    0  0.00000000000E+00  0.00000000000E+00  0.14317293367E+03  0.14317293367E+03  0.00000000000E+00 0. -1.
         -1   -1    0    0    0  501 -0.00000000000E+00 -0.00000000000E+00 -0.12454072283E+03  0.12454072283E+03  0.00000000000E+00 0.  1.
         23    2    1    2    0    0  0.47471312403E+02 -0.55555678140E+02  0.31898138464E+02  0.12228949005E+03  0.92721460641E+02 0.  0.
          5    1    1    2  502    0 -0.31920224414E+02  0.74381538954E+02  0.37169555390E+02  0.89191815273E+02  0.47000000000E+01 0. -1.
         -5    1    1    2    0  502 -0.15551087990E+02 -0.18825860814E+02 -0.50435483014E+02  0.56232351186E+02  0.47000000000E+01 0. -1.
        -11    1    3    3    0    0  0.55661331225E+02 -0.29038066299E+02 -0.17897582601E+02  0.65281824049E+02  0.00000000000E+00 0.  1.
         11    1    3    3    0    0 -0.81900188220E+01 -0.26517611840E+02  0.49795721065E+02  0.57007665997E+02  0.00000000000E+00 0. -1.
<mgrwt>
<rscale>  0 0.13760638E+03</rscale>
<asrwt>0</asrwt>
<pdfrwt beam="1">  1        1 0.22026605E-01 0.14481783E+03</pdfrwt>
<pdfrwt beam="2">  1       -1 0.19160111E-01 0.14481783E+03</pdfrwt>
<totfact> 0.46801181E+03</totfact>
</mgrwt>
</event>
<event>
 6    1  0.5107591E-006  0.1410190E+03  0.7546771E-02  0.1236842E+00
         -1   -1    0    0    0  501 -0.00000000000E+00  0.00000000000E+00  0.16442377988E+03  0.16442377988E+03  0.00000000000E+00 0.  1.
          1   -1    0    0  501    0  0.00000000000E+00 -0.00000000000E+00 -0.18908916677E+03  0.18908916677E+03  0.00000000000E+00 0. -1.
          5    1    1    2  502    0  0.38293702789E+02 -0.15447511210E+01  0.36495843288E+02  0.53130316267E+02  0.47000000000E+01 0. -1.
         -5    1    1    2    0  502 -0.98832559358E+02  0.25948232461E+02  0.84219341741E+02  0.13249970974E+03  0.47000000000E+01 0. -1.
        -11    1    1    2    0    0  0.29477870277E+02 -0.26736364532E+02 -0.34366192617E+02  0.52581491225E+02  0.00000000000E+00 0.  1.
         11    1    1    2    0    0  0.31060986292E+02  0.23328831919E+01 -0.11101437930E+03  0.11530142942E+03  0.00000000000E+00 0. -1.
<mgrwt>
<rscale>  0 0.12387263E+03</rscale>
<asrwt>0</asrwt>
<pdfrwt beam="2">  1        1 0.29090641E-01 0.14101897E+03</pdfrwt>
<pdfrwt beam="1">  1       -1 0.25295966E-01 0.14101897E+03</pdfrwt>
<totfact> 0.20993906E+03</totfact>
</mgrwt>
</event>
<event>
 7    1  0.5107591E-006  0.1645297E+03  0.7546771E-02  0.1191991E+00
         -2   -1    0    0    0  501 -0.00000000000E+00  0.00000000000E+00  0.21996637414E+02  0.21996637414E+02  0.00000000000E+00 0.  1.
          2   -1    0    0  501    0  0.00000000000E+00 -0.00000000000E+00 -0.10691335107E+04  0.10691335107E+04  0.00000000000E+00 0. -1.
         23    2    1    2    0    0 -0.10447462186E+03 -0.23005178785E+02 -0.57818873619E+03  0.59415694073E+03  0.85299886862E+02 0.  0.
          5    1    1    2  502    0  0.23072955021E+02  0.41129894476E+02 -0.34032083729E+03  0.34360499380E+03  0.47000000000E+01 0.  1.
         -5    1    1    2    0  502  0.81401666835E+02 -0.18124715691E+02 -0.12862729982E+03  0.15336821360E+03  0.47000000000E+01 0.  1.
        -11    1    3    3    0    0  0.11500652586E+01 -0.22467262217E+02 -0.41822139606E+02  0.47488860619E+02  0.00000000000E+00 0.  1.
         11    1    3    3    0    0 -0.10562468711E+03 -0.53791656764E+00 -0.53636659658E+03  0.54666808011E+03  0.00000000000E+00 0. -1.
<mgrwt>
<rscale>  0 0.15711663E+03</rscale>
<asrwt>0</asrwt>
<pdfrwt beam="2">  1        2 0.16448207E+00 0.16452967E+03</pdfrwt>
<pdfrwt beam="1">  1       -2 0.33840983E-02 0.16452967E+03</pdfrwt>
<totfact> 0.82422047E+03</totfact>
</mgrwt>
</event>
<event>
 7    1  0.5107591E-006  0.1350226E+03  0.7546771E-02  0.1233291E+00
          1   -1    0    0  501    0  0.00000000000E+00  0.00000000000E+00  0.31041812387E+03  0.31041812387E+03  0.00000000000E+00 0. -1.
         -1   -1    0    0    0  501 -0.00000000000E+00 -0.00000000000E+00 -0.45586258622E+02  0.45586258622E+02  0.00000000000E+00 0.  1.
         23    2    1    2    0    0  0.50892553098E+02  0.39947573269E+01  0.11724057688E+03  0.15596868169E+03  0.89302109459E+02 0.  0.
          5    1    1    2  502    0 -0.84216708138E+02  0.96935906438E+01  0.56547218840E+02  0.10201028177E+03  0.47000000000E+01 0.  1.
         -5    1    1    2    0  502  0.33324155040E+02 -0.13688347971E+02  0.91044069527E+02  0.98025419026E+02  0.47000000000E+01 0.  1.
        -11    1    3    3    0    0 -0.10487672258E+02  0.31097860582E+02  0.22171342554E+02  0.39606017634E+02  0.00000000000E+00 0. -1.
         11    1    3    3    0    0  0.61380225356E+02 -0.27103103255E+02  0.95069234327E+02  0.11636266406E+03  0.00000000000E+00 0.  1.
<mgrwt>
<rscale>  0 0.12614498E+03</rscale>
<asrwt>0</asrwt>
<pdfrwt beam="1">  1        1 0.47756633E-01 0.13502257E+03</pdfrwt>
<pdfrwt beam="2">  1       -1 0.70132708E-02 0.13502257E+03</pdfrwt>
<totfact> 0.83881057E+03</totfact>
</mgrwt>
</event>
<event>
 7    1  0.5107591E-006  0.1812727E+03  0.7546771E-02  0.1197406E+00
         -2   -1    0    0    0  501 -0.00000000000E+00  0.00000000000E+00  0.17214821740E+03  0.17214821740E+03  0.00000000000E+00 0.  1.
          2   -1    0    0  501    0  0.00000000000E+00 -0.00000000000E+00 -0.16401100895E+03  0.16401100895E+03  0.00000000000E+00 0. -1.
         23    2    1    2    0    0  0.11632610332E+02 -0.12808187183E+02 -0.91804375263E+02  0.12916135494E+03  0.89192180208E+02 0.  0.
          5    1    1    2  502    0 -0.12233712614E+02  0.13590872653E+02 -0.51824127468E+02  0.55156193955E+02  0.47000000000E+01 0. -1.
         -5    1    1    2    0  502  0.60110228173E+00 -0.78268546940E+00  0.15176571118E+03  0.15184167745E+03  0.47000000000E+01 0.  1.
        -11    1    3    3    0    0  0.90152333332E+01  0.36046358876E+02 -0.60753084992E+02  0.71214828205E+02  0.00000000000E+00 0. -1.
         11    1    3    3    0    0  0.26173769989E+01 -0.48854546059E+02 -0.31051290271E+02  0.57946526733E+02  0.00000000000E+00 0.  1.
<mgrwt>
<rscale>  0 0.15252338E+03</rscale>
<asrwt>0</asrwt>
<pdfrwt beam="2">  1        2 0.25232463E-01 0.18127272E+03</pdfrwt>
<pdfrwt beam="1">  1       -2 0.26484341E-01 0.18127272E+03</pdfrwt>
<totfact> 0.26750795E+03</totfact>
</mgrwt>
</event>
<event>
 7    1  0.5107591E-006  0.1661849E+03  0.7546771E-02  0.1184249E+00
          2   -1    0    0  501    0  0.00000000000E+00  0.00000000000E+00  0.11289519897E+04  0.11289519897E+04  0.00000000000E+00 0. -1.
         -2   -1    0    0    0  501 -0.00000000000E+00 -0.00000000000E+00 -0.26454215201E+02  0.26454215201E+02  0.00000000000E+00 0.  1.
         23    2    1    2    0    0 -0.10924780147E+03  0.75980861532E+01  0.74039751825E+03  0.75699184544E+03  0.11338146226E+03 0.  0.
          5    1    1    2  502    0  0.75784380072E+02 -0.55366430232E+02  0.29387677879E+03  0.30853584066E+03  0.47000000000E+01 0. -1.
         -5    1    1    2    0  502  0.33463421402E+02  0.47768344078E+02  0.68223477496E+02  0.89878518844E+02  0.47000000000E+01 0. -1.
        -11    1    3    3    0    0  0.29999406678E+01  0.39606815591E+02  0.15021508134E+03  0.15537783029E+03  0.00000000000E+00 0. -1.
         11    1    3    3    0    0 -0.11224774214E+03 -0.32008729438E+02  0.59018243691E+03  0.60161401514E+03  0.00000000000E+00 0.  1.
<mgrwt>
<rscale>  0 0.16400436E+03</rscale>
<asrwt>0</asrwt>
<pdfrwt beam="1">  1        2 0.17368488E+00 0.16618486E+03</pdfrwt>
<pdfrwt beam="2">  1       -2 0.40698801E-02 0.16618486E+03</pdfrwt>
<totfact> 0.57855682E+03</totfact>
</mgrwt>
</event>
<event>
 7    1  0.5107591E-006  0.1900616E+03  0.7546771E-02  0.1163494E+00
         -2   -1    0    0    0  501 -0.00000000000E+00  0.00000000000E+00  0.68171004586E+02  0.68171004586E+02  0.00000000000E+00 0.  1.
          2   -1    0    0  501    0  0.00000000000E+00 -0.00000000000E+00 -0.48902518732E+03  0.48902518732E+03  0.00000000000E+00 0. -1.
         23    2    1    2    0    0  0.45138313157E+02 -0.13587207367E+03 -0.24963694179E+03  0.30138617770E+03  0.89534002963E+02 0.  0.
          5    1    1    2  502    0 -0.11719455383E+02  0.14657016838E+03 -0.10505980968E+03  0.18077558879E+03  0.47000000000E+01 0.  1.
         -5    1    1    2    0  502 -0.33418857774E+02 -0.10698094701E+02 -0.66157431267E+02  0.75034425412E+02  0.47000000000E+01 0.  1.
        -11    1    3    3    0    0 -0.25334216470E+02 -0.27302242999E+02 -0.37324418670E+02  0.52728997962E+02  0.00000000000E+00 0.  1.
         11    1    3    3    0    0  0.70472529627E+02 -0.10856983068E+03 -0.21231252312E+03  0.24865717974E+03  0.00000000000E+00 0. -1.
<mgrwt>
<rscale>  0 0.18452493E+03</rscale>
<asrwt>0</asrwt>
<pdfrwt beam="2">  1        2 0.75234643E-01 0.19006162E+03</pdfrwt>
<pdfrwt beam="1">  1       -2 0.10487847E-01 0.19006162E+03</pdfrwt>
<totfact> 0.38568069E+03</totfact>
</mgrwt>
</event>
<event>
 6    1  0.5107591E-006  0.3090598E+03  0.7546771E-02  0.1080797E+00
          1   -1    0    0  501    0  0.00000000000E+00  0.00000000000E+00  0.24336831671E+02  0.24336831671E+02  0.00000000000E+00 0.  1.
         -1   -1    0    0    0  501 -0.00000000000E+00 -0.00000000000E+00 -0.98120808958E+03  0.98120808958E+03  0.00000000000E+00 0. -1.
          5    1    1    2  502    0 -0.50736976895E+02 -0.37396801282E+02 -0.22965920179E+03  0.23819781808E+03  0.47000000000E+01 0. -1.
         -5    1    1    2    0  502 -0.13207272974E+02  0.79421102672E+02 -0.19404092402E+03  0.21013356182E+03  0.47000000000E+01 0. -1.
        -11    1    1    2    0    0  0.12357472253E+02 -0.90154722956E+02 -0.31862239334E+03  0.33136205384E+03  0.00000000000E+00 0. -1.
         11    1    1    2    0    0  0.51586777616E+02  0.48130421566E+02 -0.21454873876E+03  0.22585148750E+03  0.00000000000E+00 0.  1.
<mgrwt>
<rscale>  0 0.30905984E+03</rscale>
<asrwt>0</asrwt>
<pdfrwt beam="1">  1        1 0.37441282E-02 0.30905984E+03</pdfrwt>
<pdfrwt beam="2">  1       -1 0.15095508E+00 0.30905984E+03</pdfrwt>
<totfact> 0.92911950E+02</totfact>
</mgrwt>
</event>
<event>
 6    1  0.5107591E-006  0.3891019E+03  0.7546771E-02  0.1047620E+00
          2   -1    0    0  501    0  0.00000000000E+00  0.00000000000E+00  0.67790775621E+03  0.67790775621E+03  0.00000000000E+00 0. -1.
         -2   -1    0    0    0  501 -0.00000000000E+00 -0.00000000000E+00 -0.55833647615E+02  0.55833647615E+02  0.00000000000E+00 0.  1.
          5    1    1    2  502    0  0.15136754676E+02 -0.33047167456E+02  0.56599410908E+02  0.67430111479E+02  0.47000000000E+01 0. -1.
         -5    1    1    2    0  502  0.10924499935E+02  0.55340642287E+02 -0.18138772286E+02  0.59439351003E+02  0.47000000000E+01 0.  1.
        -11    1    1    2    0    0  0.65348322425E+02  0.70480954664E+01  0.17001806893E+03  0.18228061514E+03  0.00000000000E+00 0.  1.
         11    1    1    2    0    0 -0.91409577037E+02 -0.29341570298E+02  0.41359540104E+03  0.42459132620E+03  0.00000000000E+00 0. -1.
<mgrwt>
<rscale>  0 0.38910185E+03</rscale>
<asrwt>0</asrwt>
<pdfrwt beam="1">  1        2 0.10429350E+00 0.38910185E+03</pdfrwt>
<pdfrwt beam="2">  1       -2 0.85897924E-02 0.38910185E+03</pdfrwt>
<totfact> 0.37062112E+03</totfact>
</mgrwt>
</event>
<event>
 7    1  0.5107591E-006  0.1943444E+03  0.7546771E-02  0.1161306E+00
          3   -1    0    0  501    0  0.00000000000E+00  0.00000000000E+00  0.65324787693E+02  0.65324787693E+02  0.00000000000E+00 0. -1.
         -3   -1    0    0    0  501 -0.00000000000E+00 -0.00000000000E+00 -0.10903776521E+04  0.10903776521E+04  0.00000000000E+00 0.  1.
         23    2    1    2    0    0  0.11541299601E+03 -0.79806544365E+02 -0.68701913535E+02  0.17980445075E+03  0.88996873063E+02 0.  0.
          5    1    1    2  502    0 -0.58050345636E+02  0.10500282743E+03 -0.45308673305E+03  0.46872712111E+03  0.47000000000E+01 0. -1.
         -5    1    1    2    0  502 -0.57362650376E+02 -0.25196283067E+02 -0.50326421781E+03  0.50717086792E+03  0.47000000000E+01 0.  1.
        -11    1    3    3    0    0 -0.28820192731E+01 -0.12823228624E+02 -0.38315325002E+02  0.40506855684E+02  0.00000000000E+00 0.  1.
         11    1    3    3    0    0  0.11829501529E+03 -0.66983315741E+02 -0.30386588533E+02  0.13929759507E+03  0.00000000000E+00 0. -1.
<mgrwt>
<rscale>  0 0.18687952E+03</rscale>
<asrwt>0</asrwt>
<pdfrwt beam="1">  1        3 0.10049967E-01 0.19434439E+03</pdfrwt>
<pdfrwt beam="2">  1       -3 0.16775042E+00 0.19434439E+03</pdfrwt>
<totfact> 0.45871183E+01</totfact>
</mgrwt>
</event>
<event>
 7    1  0.5107591E-006  0.1192219E+03  0.7546771E-02  0.1256716E+00
          1   -1    0    0  501    0  0.00000000000E+00  0.00000000000E+00  0.48746426869E+02  0.48746426869E+02  0.00000000000E+00 0. -1.
         -1   -1    0    0    0  501 -0.00000000000E+00 -0.00000000000E+00 -0.23909635352E+03  0.23909635352E+03  0.00000000000E+00 0.  1.
         23    2    1    2    0    0 -0.19078502358E+02  0.16641768535E+01 -0.58331051352E+02  0.10995843699E+03  0.91222736074E+02 0.  0.
          5    1    1    2  502    0 -0.27678103692E+02  0.22788917920E+01 -0.12742819944E+03  0.13050404892E+03  0.47000000000E+01 0. -1.
         -5    1    1    2    0  502  0.46756606050E+02 -0.39430686454E+01 -0.45906758544E+01  0.47380294474E+02  0.47000000000E+01 0.  1.
        -11    1    3    3    0    0  0.13018626721E+02  0.15960624703E+02 -0.69974191992E+02  0.72942537161E+02  0.00000000000E+00 0.  1.
         11    1    3    3    0    0 -0.32097129079E+02 -0.14296447849E+02  0.11643140640E+02  0.37015899829E+02  0.00000000000E+00 0. -1.
<mgrwt>
<rscale>  0 0.11210736E+03</rscale>
<asrwt>0</asrwt>
<pdfrwt beam="1">  1        1 0.74994502E-02 0.11922188E+03</pdfrwt>
<pdfrwt beam="2">  1       -1 0.36784055E-01 0.11922188E+03</pdfrwt>
<totfact> 0.63954931E+03</totfact>
</mgrwt>
</event>
<event>
 7    1  0.5107591E-006  0.1306570E+03  0.7546771E-02  0.1237884E+00
          2   -1    0    0  501    0  0.00000000000E+00  0.00000000000E+00  0.11315939099E+03  0.11315939099E+03  0.00000000000E+00 0. -1.
         -2   -1    0    0    0  501 -0.00000000000E+00 -0.00000000000E+00 -0.12271119728E+03  0.12271119728E+03  0.00000000000E+00 0.  1.
         23    2    1    2    0    0 -0.24595193481E+02 -0.29006812303E+02  0.97350321699E+01  0.10379774536E+03  0.96087888877E+02 0.  0.
          5    1    1    2  502    0  0.12271769361E+02 -0.49401643372E+02 -0.62274877028E+01  0.51497478523E+02  0.47000000000E+01 0. -1.
         -5    1    1    2    0  502  0.12323424120E+02  0.78408455675E+02 -0.13059350758E+02  0.80575364384E+02  0.47000000000E+01 0. -1.
        -11    1    3    3    0    0  0.23658856435E+02 -0.43863105378E+02 -0.76051562284E+01  0.50413806665E+02  0.00000000000E+00 0. -1.
         11    1    3    3    0    0 -0.48254049916E+02  0.14856293075E+02  0.17340188398E+02  0.53383938698E+02  0.00000000000E+00 0.  1.
<mgrwt>
<rscale>  0 0.12321593E+03</rscale>
<asrwt>0</asrwt>
<pdfrwt beam="1">  1        2 0.17409137E-01 0.13065701E+03</pdfrwt>
<pdfrwt beam="2">  1       -2 0.18878646E-01 0.13065701E+03</pdfrwt>
<totfact> 0.71530394E+03</totfact>
</mgrwt>
</event>
<event>
 7    1  0.5107591E-006  0.1702605E+03  0.7546771E-02  0.1184227E+00
          1   -1    0    0  501    0  0.00000000000E+00  0.00000000000E+00  0.14671111272E+03  0.14671111272E+03  0.00000000000E+00 0. -1.
         -1   -1    0    0    0  501 -0.00000000000E+00 -0.00000000000E+00 -0.17132433279E+03  0.17132433279E+03  0.00000000000E+00 0.  1.
         23    2    1    2    0    0  0.67353333341E+02 -0.93951905180E+02 -0.16545431795E+02  0.14758389093E+03  0.90243124659E+02 0.  0.
          5    1    1    2  502    0 -0.92969410082E+02  0.26228380109E+02  0.44784882323E+01  0.96816248589E+02  0.47000000000E+01 0.  1.
         -5    1    1    2    0  502  0.25616076741E+02  0.67723525071E+02 -0.12546276511E+02  0.73635306002E+02  0.47000000000E+01 0.  1.
        -11    1    3    3    0    0  0.21961278400E+02 -0.59562672799E+02 -0.50643463114E+02  0.81208189834E+02  0.00000000000E+00 0.  1.
         11    1    3    3    0    0  0.45392054941E+02 -0.34389232381E+02  0.34098031319E+02  0.66375701091E+02  0.00000000000E+00 0. -1.
<mgrwt>
<rscale>  0 0.16402445E+03</rscale>
<asrwt>0</asrwt>
<pdfrwt beam="1">  1        1 0.22570940E-01 0.17026052E+03</pdfrwt>
<pdfrwt beam="2">  1       -1 0.26357590E-01 0.17026052E+03</pdfrwt>
<totfact> 0.27195146E+03</totfact>
</mgrwt>
</event>
<event>
 7    1  0.5107591E-006  0.1715820E+03  0.7546771E-02  0.1182876E+00
          4   -1    0    0  501    0  0.00000000000E+00  0.00000000000E+00  0.26736618639E+02  0.26736618639E+02  0.00000000000E+00 0. -1.
         -4   -1    0    0    0  501 -0.00000000000E+00 -0.00000000000E+00 -0.95310570900E+03  0.95310570900E+03  0.00000000000E+00 0.  1.
         23    2    1    2    0    0  0.69093673451E+02  0.95094849658E+02 -0.43124043374E+03  0.45582631155E+03  0.89399935492E+02 0.  0.
          5    1    1    2  502    0  0.36498616625E+02 -0.21873019117E+02 -0.11325253438E+03  0.12107355006E+03  0.47000000000E+01 0.  1.
         -5    1    1    2    0  502 -0.10559229008E+03 -0.73221830541E+02 -0.38187612224E+03  0.40294246603E+03  0.47000000000E+01 0.  1.
        -11    1    3    3    0    0 -0.10449274025E+02  0.53999969836E+02 -0.21177995253E+03  0.21880569546E+03  0.00000000000E+00 0.  1.
         11    1    3    3    0    0  0.79542947476E+02  0.41094879822E+02 -0.21946048121E+03  0.23702061609E+03  0.00000000000E+00 0. -1.
<mgrwt>
<rscale>  0 0.16526624E+03</rscale>
<asrwt>0</asrwt>
<pdfrwt beam="1">  1        4 0.41133260E-02 0.17158205E+03</pdfrwt>
<pdfrwt beam="2">  1       -4 0.14663165E+00 0.17158205E+03</pdfrwt>
<totfact> 0.19166148E+02</totfact>
</mgrwt>
</event>
<event>
 7    1  0.5107591E-006  0.1580276E+03  0.7546771E-02  0.1199118E+00
          2   -1    0    0  501    0  0.00000000000E+00  0.00000000000E+00  0.58916313080E+02  0.58916313080E+02  0.00000000000E+00 0. -1.
         -2   -1    0    0    0  501 -0.00000000000E+00 -0.00000000000E+00 -0.51042208767E+03  0.51042208767E+03  0.00000000000E+00 0.  1.
         23    2    1    2    0    0  0.61226893710E+02 -0.74827537971E+02 -0.56116035756E+02  0.14353826736E+03  0.90035169654E+02 0.  0.
          5    1    1    2  502    0 -0.37032857864E+02  0.53370795880E+02 -0.38648002696E+03  0.39192955446E+03  0.47000000000E+01 0. -1.
         -5    1    1    2    0  502 -0.24194035846E+02  0.21456742091E+02 -0.89097118640E+01  0.33870578931E+02  0.47000000000E+01 0. -1.
        -11    1    3    3    0    0  0.17833305034E+02 -0.63596533175E+02  0.66793844973E+01  0.66386444231E+02  0.00000000000E+00 0. -1.
         11    1    3    3    0    0  0.43393588676E+02 -0.11231004796E+02 -0.62795420254E+02  0.77151823126E+02  0.00000000000E+00 0.  1.
<mgrwt>
<rscale>  0 0.15110791E+03</rscale>
<asrwt>0</asrwt>
<pdfrwt beam="1">  1        2 0.90640483E-02 0.15802755E+03</pdfrwt>
<pdfrwt beam="2">  1       -2 0.78526474E-01 0.15802755E+03</pdfrwt>
<totfact> 0.10557031E+03</totfact>
</mgrwt>
</event>
<event>
 7    1  0.5107591E-006  0.3309441E+03  0.7546771E-02  0.1071987E+00
         -2   -1    0    0    0  501 -0.00000000000E+00  0.00000000000E+00  0.73561825801E+03  0.73561825801E+03  0.00000000000E+00 0.  1.
          2   -1    0    0  501    0  0.00000000000E+00 -0.00000000000E+00 -0.14386614038E+03  0.14386614038E+03  0.00000000000E+00 0. -1.
         23    2    1    2    0    0 -0.16758567175E+03 -0.25654375181E+03  0.28639002950E+03  0.42918450201E+03  0.90996888959E+02 0.  0.
          5    1    1    2  502    0  0.80953710923E+01  0.12163665864E+03  0.11252833416E+03  0.16596905660E+03  0.47000000000E+01 0.  1.
         -5    1    1    2    0  502  0.15949030065E+03  0.13490709316E+03  0.19283375396E+03  0.28433083979E+03  0.47000000000E+01 0.  1.
        -11    1    3    3    0    0 -0.15120041344E+03 -0.19241763758E+03  0.17960894936E+03  0.30355475118E+03  0.00000000000E+00 0. -1.
         11    1    3    3    0    0 -0.16385258305E+02 -0.64126114230E+02  0.10678108015E+03  0.12562975083E+03  0.00000000000E+00 0.  1.
<mgrwt>
<rscale>  0 0.32808529E+03</rscale>
<asrwt>0</asrwt>
<pdfrwt beam="2">  1        2 0.22133253E-01 0.33094409E+03</pdfrwt>
<pdfrwt beam="1">  1       -2 0.11317204E+00 0.33094409E+03</pdfrwt>
<totfact> 0.15839364E+02</totfact>
</mgrwt>
</event>
<event>
 7    1  0.5107591E-006  0.1831988E+03  0.7546771E-02  0.1170349E+00
          2   -1    0    0  501    0  0.00000000000E+00  0.00000000000E+00  0.41258336262E+03  0.41258336262E+03  0.00000000000E+00 0. -1.
         -2   -1    0    0    0  501 -0.00000000000E+00 -0.00000000000E+00 -0.85761054573E+02  0.85761054573E+02  0.00000000000E+00 0.  1.
         23    2    1    2    0    0 -0.13340035298E+03 -0.11914416004E+02  0.25492830872E+03  0.30154364903E+03  0.89456817508E+02 0.  0.
          5    1    1    2  502    0  0.60358579396E+02 -0.25289997153E+02  0.91302625849E+02  0.11243220868E+03  0.47000000000E+01 0. -1.
         -5    1    1    2    0  502  0.73041773582E+02  0.37204413157E+02 -0.19408626518E+02  0.84368559486E+02  0.47000000000E+01 0. -1.
        -11    1    3    3    0    0 -0.37163389732E+02 -0.53967047993E+01  0.16651350059E+03  0.17069559993E+03  0.00000000000E+00 0.  1.
         11    1    3    3    0    0 -0.96236963247E+02 -0.65177112049E+01  0.88414808130E+02  0.13084804909E+03  0.00000000000E+00 0. -1.
<mgrwt>
<rscale>  0 0.17739381E+03</rscale>
<asrwt>0</asrwt>
<pdfrwt beam="1">  1        2 0.63474362E-01 0.18319879E+03</pdfrwt>
<pdfrwt beam="2">  1       -2 0.13194009E-01 0.18319879E+03</pdfrwt>
<totfact> 0.32084199E+03</totfact>
</mgrwt>
</event>
<event>
 7    1  0.5107591E-006  0.1401980E+03  0.7546771E-02  0.1223059E+00
          2   -1    0    0  501    0  0.00000000000E+00  0.00000000000E+00  0.70345347674E+03  0.70345347674E+03  0.00000000000E+00 0.  1.
         -2   -1    0    0    0  501 -0.00000000000E+00 -0.00000000000E+00 -0.22921093065E+02  0.22921093065E+02  0.00000000000E+00 0. -1.
         23    2    1    2    0    0 -0.39306824535E+02 -0.49869069326E+02  0.29084131627E+03  0.31223134218E+03  0.94168939990E+02 0.  0.
          5    1    1    2  502    0  0.19684720709E+02 -0.38309324952E+02  0.74027015088E+02  0.85774014541E+02  0.47000000000E+01 0. -1.
         -5    1    1    2    0  502  0.19622103826E+02  0.88178394279E+02  0.31566405232E+03  0.32836921309E+03  0.47000000000E+01 0. -1.
        -11    1    3    3    0    0 -0.19784810779E+02 -0.73239194306E+02  0.25019255172E+03  0.26144164025E+03  0.00000000000E+00 0.  1.
         11    1    3    3    0    0 -0.19522013756E+02  0.23370124980E+02  0.40648764548E+02  0.50789701927E+02  0.00000000000E+00 0. -1.
<mgrwt>
<rscale>  0 0.13300839E+03</rscale>
<asrwt>0</asrwt>
<pdfrwt beam="1">  1        2 0.10822360E+00 0.14019802E+03</pdfrwt>
<pdfrwt beam="2">  1       -2 0.35263226E-02 0.14019802E+03</pdfrwt>
<totfact> 0.13236013E+04</totfact>
</mgrwt>
</event>
<event>
 7    1  0.5107591E-006  0.1567098E+03  0.7546771E-02  0.1201085E+00
          3   -1    0    0  501    0  0.00000000000E+00  0.00000000000E+00  0.72033451530E+02  0.72033451530E+02  0.00000000000E+00 0. -1.
         -3   -1    0    0    0  501 -0.00000000000E+00 -0.00000000000E+00 -0.33954744543E+03  0.33954744543E+03  0.00000000000E+00 0.  1.
         23    2    1    2    0    0 -0.93258643164E+02  0.15353437529E+02 -0.40978647169E+02  0.13612450211E+03  0.88981615978E+02 0.  0.
          5    1    1    2  502    0  0.55476035263E+02 -0.66920752718E+02 -0.16523096265E+03  0.18676010990E+03  0.47000000000E+01 0. -1.
         -5    1    1    2    0  502  0.37782607901E+02  0.51567315189E+02 -0.61304384082E+02  0.88696284946E+02  0.47000000000E+01 0. -1.
        -11    1    3    3    0    0 -0.19735760999E+02  0.45277400667E+02 -0.74320721995E+01  0.49947762418E+02  0.00000000000E+00 0.  1.
         11    1    3    3    0    0 -0.73522882165E+02 -0.29923963138E+02 -0.33546574969E+02  0.86176739692E+02  0.00000000000E+00 0. -1.
<mgrwt>
<rscale>  0 0.14950274E+03</rscale>
<asrwt>0</asrwt>
<pdfrwt beam="1">  1        3 0.11082069E-01 0.15670980E+03</pdfrwt>
<pdfrwt beam="2">  1       -3 0.52238068E-01 0.15670980E+03</pdfrwt>
<totfact> 0.53748593E+02</totfact>
</mgrwt>
</event>
<event>
 7    1  0.5107591E-006  0.1298381E+03  0.7546771E-02  0.1241763E+00
          3   -1    0    0  501    0  0.00000000000E+00  0.00000000000E+00  0.91728749564E+02  0.91728749564E+02  0.00000000000E+00 0. -1.
         -3   -1    0    0    0  501 -0.00000000000E+00 -0.00000000000E+00 -0.14605211413E+03  0.14605211413E+03  0.00000000000E+00 0.  1.
         23    2    1    2    0    0  0.34257608934E+02  0.74984313073E+01 -0.76877155711E+00  0.97331506767E+02  0.90791084132E+02 0.  0.
          5    1    1    2  502    0 -0.31323090735E+02  0.33647161762E+02 -0.79167720715E+02  0.91667254301E+02  0.47000000000E+01 0.  1.
         -5    1    1    2    0  502 -0.29345181995E+01 -0.41145593069E+02  0.25613127704E+02  0.48782102629E+02  0.47000000000E+01 0.  1.
        -11    1    3    3    0    0  0.57678241587E+02  0.25029073973E+02 -0.15236639904E+02  0.64694584720E+02  0.00000000000E+00 0. -1.
         11    1    3    3    0    0 -0.23420632653E+02 -0.17530642666E+02  0.14467868347E+02  0.32636922046E+02  0.00000000000E+00 0.  1.
<mgrwt>
<rscale>  0 0.12081241E+03</rscale>
<asrwt>0</asrwt>
<pdfrwt beam="1">  1        3 0.14112115E-01 0.12983808E+03</pdfrwt>
<pdfrwt beam="2">  1       -3 0.22469556E-01 0.12983808E+03</pdfrwt>
<totfact> 0.17115454E+03</totfact>
</mgrwt>
</event>
<event>
 7    1  0.5107591E-006  0.1325011E+03  0.7546771E-02  0.1237932E+00
         -1   -1    0    0    0  501 -0.00000000000E+00  0.00000000000E+00  0.13386161492E+03  0.13386161492E+03  0.00000000000E+00 0.  1.
          1   -1    0    0  501    0  0.00000000000E+00 -0.00000000000E+00 -0.10034543202E+03  0.10034543202E+03  0.00000000000E+00 0. -1.
         23    2    1    2    0    0  0.19815706652E+02 -0.39206294375E+02  0.83774795113E+01  0.99342297242E+02  0.88706900011E+02 0.  0.
          5    1    1    2  502    0  0.16753442099E+01  0.71486655237E+02 -0.20746584610E+02  0.74603347299E+02  0.47000000000E+01 0. -1.
         -5    1    1    2    0  502 -0.21491050862E+02 -0.32280360862E+02  0.45885287999E+02  0.60261402401E+02  0.47000000000E+01 0. -1.
        -11    1    3    3    0    0 -0.13819455483E+02 -0.26678940874E+02  0.41006296240E+02  0.50835613180E+02  0.00000000000E+00 0.  1.
         11    1    3    3    0    0  0.33635162135E+02 -0.12527353501E+02 -0.32628816729E+02  0.48506684062E+02  0.00000000000E+00 0. -1.
<mgrwt>
<rscale>  0 0.12318583E+03</rscale>
<asrwt>0</asrwt>
<pdfrwt beam="2">  1        1 0.15437759E-01 0.13250112E+03</pdfrwt>
<pdfrwt beam="1">  1       -1 0.20594095E-01 0.13250112E+03</pdfrwt>
<totfact> 0.65285487E+03</totfact>
</mgrwt>
</event>
<event>
 7    1  0.5107591E-006  0.1802800E+03  0.7546771E-02  0.1173031E+00
          1   -1    0    0  501    0  0.00000000000E+00  0.00000000000E+00  0.15320980917E+03  0.15320980917E+03  0.00000000000E+00 0. -1.
         -1   -1    0    0    0  501 -0.00000000000E+00 -0.00000000000E+00 -0.18819568607E+03  0.18819568607E+03  0.00000000000E+00 0.  1.
         23    2    1    2    0    0  0.15044085993E+02  0.12903617109E+03 -0.87112035839E+01  0.15922083028E+03  0.91644583871E+02 0.  0.
          5    1    1    2  502    0 -0.66773062608E+02 -0.47023081259E+02 -0.75110890973E+00  0.81807494924E+02  0.47000000000E+01 0. -1.
         -5    1    1    2    0  502  0.51728976616E+02 -0.82013089831E+02 -0.25523564407E+02  0.10037717004E+03  0.47000000000E+01 0. -1.
        -11    1    3    3    0    0  0.35370460350E+02  0.47316505019E+02 -0.37793912564E+02  0.70130599167E+02  0.00000000000E+00 0.  1.
         11    1    3    3    0    0 -0.20326374358E+02  0.81719666072E+02  0.29082708980E+02  0.89090231109E+02  0.00000000000E+00 0. -1.
<mgrwt>
<rscale>  0 0.17470204E+03</rscale>
<asrwt>0</asrwt>
<pdfrwt beam="1">  1        1 0.23570740E-01 0.18028004E+03</pdfrwt>
<pdfrwt beam="2">  1       -1 0.28953182E-01 0.18028004E+03</pdfrwt>
<totfact> 0.22044818E+03</totfact>
</mgrwt>
</event>
<event>
 7    1  0.5107591E-006  0.1281250E+03  0.7546771E-02  0.1238932E+00
         -1   -1    0    0    0  501 -0.00000000000E+00  0.00000000000E+00  0.97473227319E+02  0.97473227319E+02  0.00000000000E+00 0.  1.
          1   -1    0    0  501    0  0.00000000000E+00 -0.00000000000E+00 -0.16409056998E+03  0.16409056998E+03  0.00000000000E+00 0. -1.
         23    2    1    2    0    0  0.15244941734E+02 -0.52610906315E+02 -0.78439928222E+02  0.13289452839E+03  0.92237831859E+02 0.  0.
          5    1    1    2  502    0 -0.32044397764E+02 -0.72650792547E+01 -0.36823544004E+02  0.49575076375E+02  0.47000000000E+01 0. -1.
         -5    1    1    2    0  502  0.16799456030E+02  0.59875985569E+02  0.48646129562E+02  0.79094192531E+02  0.47000000000E+01 0.  1.
        -11    1    3    3    0    0 -0.31628208781E+02  0.60163871328E+01 -0.22405531485E+02  0.39224333594E+02  0.00000000000E+00 0.  1.
         11    1    3    3    0    0  0.46873150515E+02 -0.58627293447E+02 -0.56034396737E+02  0.93670194800E+02  0.00000000000E+00 0. -1.
<mgrwt>
<rscale>  0 0.12256062E+03</rscale>
<asrwt>0</asrwt>
<pdfrwt beam="2">  1        1 0.25244703E-01 0.12812497E+03</pdfrwt>
<pdfrwt beam="1">  1       -1 0.14995881E-01 0.12812497E+03</pdfrwt>
<totfact> 0.57649257E+03</totfact>
</mgrwt>
</event>
<event>
 7    1  0.5107591E-006  0.1436727E+03  0.7546771E-02  0.1218686E+00
          2   -1    0    0  501    0  0.00000000000E+00  0.00000000000E+00  0.11409868867E+03  0.11409868867E+03  0.00000000000E+00 0. -1.
         -2   -1    0    0    0  501 -0.00000000000E+00 -0.00000000000E+00 -0.22124234688E+03  0.22124234688E+03  0.00000000000E+00 0.  1.
         23    2    1    2    0    0  0.21001981530E+02 -0.67646154106E+02  0.46792642653E+02  0.12477456957E+03  0.91444280369E+02 0.  0.
          5    1    1    2  502    0  0.48497692047E+02  0.31440093448E+02 -0.99052891508E+02  0.11477835565E+03  0.47000000000E+01 0.  1.
         -5    1    1    2    0  502 -0.69499673577E+02  0.36206060658E+02 -0.54883409354E+02  0.95788110317E+02  0.47000000000E+01 0.  1.
        -11    1    3    3    0    0  0.52690609448E+02 -0.65034481580E+02  0.30843610718E+02  0.89202648170E+02  0.00000000000E+00 0. -1.
         11    1    3    3    0    0 -0.31688627918E+02 -0.26116725261E+01  0.15949031934E+02  0.35571921404E+02  0.00000000000E+00 0.  1.
<mgrwt>
<rscale>  0 0.13609253E+03</rscale>
<asrwt>0</asrwt>
<pdfrwt beam="1">  1        2 0.17553645E-01 0.14367272E+03</pdfrwt>
<pdfrwt beam="2">  1       -2 0.34037284E-01 0.14367272E+03</pdfrwt>
<totfact> 0.25355047E+03</totfact>
</mgrwt>
</event>
<event>
 7    1  0.5107591E-006  0.1584448E+03  0.7546771E-02  0.1198519E+00
         -2   -1    0    0    0  501 -0.00000000000E+00  0.00000000000E+00  0.23369860779E+03  0.23369860779E+03  0.00000000000E+00 0.  1.
          2   -1    0    0  501    0  0.00000000000E+00 -0.00000000000E+00 -0.90781931660E+02  0.90781931660E+02  0.00000000000E+00 0. -1.
         23    2    1    2    0    0  0.65948323264E+02 -0.71632816762E+02  0.68807823289E+02  0.14956094014E+03  0.90296824378E+02 0.  0.
          5    1    1    2  502    0 -0.23439279405E+02 -0.33134419255E+02  0.23516772963E+01  0.40925663642E+02  0.47000000000E+01 0.  1.
         -5    1    1    2    0  502 -0.42509043859E+02  0.10476723602E+03  0.71757175546E+02  0.13399393566E+03  0.47000000000E+01 0.  1.
        -11    1    3    3    0    0  0.38249497982E+02 -0.29019174444E+02 -0.16069865522E+02  0.50629805048E+02  0.00000000000E+00 0. -1.
         11    1    3    3    0    0  0.27698825282E+02 -0.42613642318E+02  0.84877688811E+02  0.98931135097E+02  0.00000000000E+00 0.  1.
<mgrwt>
<rscale>  0 0.15160103E+03</rscale>
<asrwt>0</asrwt>
<pdfrwt beam="2">  1        2 0.13966451E-01 0.15844477E+03</pdfrwt>
<pdfrwt beam="1">  1       -2 0.35953632E-01 0.15844477E+03</pdfrwt>
<totfact> 0.30077050E+03</totfact>
</mgrwt>
</event>
<event>
 7    1  0.5107591E-006  0.1509825E+03  0.7546771E-02  0.1214497E+00
          2   -1    0    0  501    0  0.00000000000E+00  0.00000000000E+00  0.83299334143E+03  0.83299334143E+03  0.00000000000E+00 0. -1.
         -2   -1    0    0    0  501 -0.00000000000E+00 -0.00000000000E+00 -0.20312207323E+02  0.20312207323E+02  0.00000000000E+00 0.  1.
         23    2    1    2    0    0  0.99199931900E+01  0.58743772167E+02  0.36032302025E+03  0.37641606788E+03  0.91143514317E+02 0.  0.
          5    1    1    2  502    0 -0.30247256647E+02 -0.58385371403E+02  0.45120032630E+03  0.45599075931E+03  0.47000000000E+01 0. -1.
         -5    1    1    2    0  502  0.20327263457E+02 -0.35840076443E+00  0.11577875583E+01  0.20898721558E+02  0.47000000000E+01 0.  1.
        -11    1    3    3    0    0 -0.25863653930E+02  0.64186369245E+02  0.27806957670E+03  0.28655105667E+03  0.00000000000E+00 0.  1.
         11    1    3    3    0    0  0.35783647120E+02 -0.54425970771E+01  0.82253443551E+02  0.89865011212E+02  0.00000000000E+00 0. -1.
<mgrwt>
<rscale>  0 0.13913582E+03</rscale>
<asrwt>0</asrwt>
<pdfrwt beam="1">  1        2 0.12815280E+00 0.15098249E+03</pdfrwt>
<pdfrwt beam="2">  1       -2 0.31249556E-02 0.15098249E+03</pdfrwt>
<totfact> 0.12921200E+04</totfact>
</mgrwt>
</event>
<event>
 7    1  0.5107591E-006  0.1270652E+03  0.7546771E-02  0.1246846E+00
         -1   -1    0    0    0  501 -0.00000000000E+00  0.00000000000E+00  0.16160209113E+03  0.16160209113E+03  0.00000000000E+00 0.  1.
          1   -1    0    0  501    0  0.00000000000E+00 -0.00000000000E+00 -0.86691291327E+02  0.86691291327E+02  0.00000000000E+00 0. -1.
         23    2    1    2    0    0  0.19382397888E+02  0.11795722215E+02 -0.11798250678E+02  0.94462237653E+02  0.90934587550E+02 0.  0.
          5    1    1    2  502    0  0.24107667527E+02 -0.57721612121E+02  0.52311479532E+02  0.81679526384E+02  0.47000000000E+01 0.  1.
         -5    1    1    2    0  502 -0.43490065415E+02  0.45925889906E+02  0.34397570950E+02  0.72151618420E+02  0.47000000000E+01 0.  1.
        -11    1    3    3    0    0  0.46124619161E+01  0.36052543256E+02  0.27781380366E+02  0.45747849951E+02  0.00000000000E+00 0.  1.
         11    1    3    3    0    0  0.14769935972E+02 -0.24256821041E+02 -0.39579631044E+02  0.48714387702E+02  0.00000000000E+00 0. -1.
<mgrwt>
<rscale>  0 0.11775543E+03</rscale>
<asrwt>0</asrwt>
<pdfrwt beam="2">  1        1 0.13337122E-01 0.12706519E+03</pdfrwt>
<pdfrwt beam="1">  1       -1 0.24861860E-01 0.12706519E+03</pdfrwt>
<totfact> 0.57949283E+03</totfact>
</mgrwt>
</event>
<event>
 7    1  0.5107591E-006  0.1476759E+03  0.7546771E-02  0.1212683E+00
         -4   -1    0    0    0  501 -0.00000000000E+00  0.00000000000E+00  0.87269299145E+02  0.87269299145E+02  0.00000000000E+00 0. -1.
          4   -1    0    0  501    0  0.00000000000E+00 -0.00000000000E+00 -0.29295798490E+03  0.29295798490E+03  0.00000000000E+00 0.  1.
         23    2    1    2    0    0  0.69829682004E+02  0.36158732275E+02 -0.19842547781E+03  0.23237289891E+03  0.91874128545E+02 0.  0.
          5    1    1    2  502    0 -0.71136276979E+02 -0.69504629163E+02  0.23414272871E+02  0.10228187304E+03  0.47000000000E+01 0. -1.
         -5    1    1    2    0  502  0.13065949753E+01  0.33345896888E+02 -0.30677480817E+02  0.45572512099E+02  0.47000000000E+01 0. -1.
        -11    1    3    3    0    0  0.11036408235E+02  0.46014256290E+02 -0.14427547778E+03  0.15183717456E+03  0.00000000000E+00 0.  1.
         11    1    3    3    0    0  0.58793273768E+02 -0.98555240151E+01 -0.54150000027E+02  0.80535724352E+02  0.00000000000E+00 0. -1.
<mgrwt>
<rscale>  0 0.14048090E+03</rscale>
<asrwt>0</asrwt>
<pdfrwt beam="2">  1        4 0.45070459E-01 0.14767588E+03</pdfrwt>
<pdfrwt beam="1">  1       -4 0.13426046E-01 0.14767588E+03</pdfrwt>
<totfact> 0.37018751E+02</totfact>
</mgrwt>
</event>
<event>
 7    1  0.5107591E-006  0.1332654E+03  0.7546771E-02  0.1234166E+00
         -2   -1    0    0    0  501 -0.00000000000E+00  0.00000000000E+00  0.14010286937E+03  0.14010286937E+03  0.00000000000E+00 0. -1.
          2   -1    0    0  501    0  0.00000000000E+00 -0.00000000000E+00 -0.10390429994E+03  0.10390429994E+03  0.00000000000E+00 0.  1.
         23    2    1    2    0    0 -0.46166405672E+02 -0.17749289813E+01  0.34933982294E+02  0.11073581713E+03  0.94379821421E+02 0.  0.
          5    1    1    2  502    0  0.52861106963E+01 -0.34738123085E+02  0.48969504574E+02  0.60454797493E+02  0.47000000000E+01 0.  1.
         -5    1    1    2    0  502  0.40880294975E+02  0.36513052066E+02 -0.47704917441E+02  0.72816554687E+02  0.47000000000E+01 0.  1.
        -11    1    3    3    0    0 -0.17314915061E+02  0.16273727700E+01  0.65970330276E+02  0.68224182681E+02  0.00000000000E+00 0. -1.
         11    1    3    3    0    0 -0.28851490610E+02 -0.34023017513E+01 -0.31036347983E+02  0.42511634452E+02  0.00000000000E+00 0.  1.
<mgrwt>
<rscale>  0 0.12557960E+03</rscale>
<asrwt>0</asrwt>
<pdfrwt beam="2">  1        2 0.15985277E-01 0.13326535E+03</pdfrwt>
<pdfrwt beam="1">  1       -2 0.21554287E-01 0.13326535E+03</pdfrwt>
<totfact> 0.63162246E+03</totfact>
</mgrwt>
</event>
<event>
 7    1  0.5107591E-006  0.1254667E+03  0.7546771E-02  0.1249628E+00
         -2   -1    0    0    0  501 -0.00000000000E+00  0.00000000000E+00  0.58509171001E+02  0.58509171001E+02  0.00000000000E+00 0.  1.
          2   -1    0    0  501    0  0.00000000000E+00 -0.00000000000E+00 -0.26359456287E+03  0.26359456287E+03  0.00000000000E+00 0. -1.
         23    2    1    2    0    0  0.72609840660E+00 -0.10737112603E+02 -0.16748271074E+03  0.19112334582E+03  0.91443217993E+02 0.  0.
          5    1    1    2  502    0  0.33379687445E+02 -0.44328630356E+02  0.48754066468E+00  0.55691639400E+02  0.47000000000E+01 0.  1.
         -5    1    1    2    0  502 -0.34105785852E+02  0.55065742959E+02 -0.38090221795E+02  0.75288748646E+02  0.47000000000E+01 0.  1.
        -11    1    3    3    0    0 -0.22006769786E+02  0.19957301281E+02 -0.13785393047E+02  0.32751012996E+02  0.00000000000E+00 0.  1.
         11    1    3    3    0    0  0.22732868192E+02 -0.30694413884E+02 -0.15369731769E+03  0.15837233283E+03  0.00000000000E+00 0. -1.
<mgrwt>
<rscale>  0 0.11612642E+03</rscale>
<asrwt>0</asrwt>
<pdfrwt beam="2">  1        2 0.40553009E-01 0.12546673E+03</pdfrwt>
<pdfrwt beam="1">  1       -2 0.90014111E-02 0.12546673E+03</pdfrwt>
<totfact> 0.92929365E+03</totfact>
</mgrwt>
</event>
<event>
 7    1  0.5107591E-006  0.1442797E+03  0.7546771E-02  0.1217752E+00
         -4   -1    0    0    0  501 -0.00000000000E+00  0.00000000000E+00  0.14630313716E+03  0.14630313716E+03  0.00000000000E+00 0.  1.
          4   -1    0    0  501    0  0.00000000000E+00 -0.00000000000E+00 -0.14324751198E+03  0.14324751198E+03  0.00000000000E+00 0. -1.
         23    2    1    2    0    0 -0.69707291630E+02 -0.18269584818E+02 -0.61231677765E+02  0.13159657585E+03  0.91517518417E+02 0.  0.
          5    1    1    2  502    0  0.36168411434E+02 -0.44578122824E+02  0.64617735755E+02  0.86561566496E+02  0.47000000000E+01 0. -1.
         -5    1    1    2    0  502  0.33538880196E+02  0.62847707642E+02 -0.33043281598E+00  0.71392506795E+02  0.47000000000E+01 0. -1.
        -11    1    3    3    0    0 -0.64945445205E+01 -0.19374926058E+02 -0.65123779130E+02  0.68254475871E+02  0.00000000000E+00 0. -1.
         11    1    3    3    0    0 -0.63212747109E+02  0.11053412399E+01  0.38921013652E+01  0.63342099976E+02  0.00000000000E+00 0.  1.
<mgrwt>
<rscale>  0 0.13676336E+03</rscale>
<asrwt>0</asrwt>
<pdfrwt beam="2">  1        4 0.22038079E-01 0.14427970E+03</pdfrwt>
<pdfrwt beam="1">  1       -4 0.22508175E-01 0.14427970E+03</pdfrwt>
<totfact> 0.57667001E+02</totfact>
</mgrwt>
</event>
<event>
 7    1  0.5107591E-006  0.1496822E+03  0.7546771E-02  0.1209480E+00
         -1   -1    0    0    0  501 -0.00000000000E+00  0.00000000000E+00  0.22685681199E+03  0.22685681199E+03  0.00000000000E+00 0.  1.
          1   -1    0    0  501    0  0.00000000000E+00 -0.00000000000E+00 -0.85664306295E+02  0.85664306295E+02  0.00000000000E+00 0. -1.
         23    2    1    2    0    0  0.80397890459E+02 -0.17761585639E+02  0.35576508218E+02  0.12932856314E+03  0.93171318510E+02 0.  0.
          5    1    1    2  502    0 -0.18690127864E+02 -0.52444579730E+02  0.34716634611E+02  0.65780616760E+02  0.47000000000E+01 0.  1.
         -5    1    1    2    0  502 -0.61707762595E+02  0.70206165369E+02  0.70899362868E+02  0.11741193839E+03  0.47000000000E+01 0.  1.
        -11    1    3    3    0    0  0.28124067504E+02  0.37670971228E+02  0.22125482250E+02  0.51957696360E+02  0.00000000000E+00 0.  1.
         11    1    3    3    0    0  0.52273822955E+02 -0.55432556867E+02  0.13451025968E+02  0.77370866783E+02  0.00000000000E+00 0. -1.
<mgrwt>
<rscale>  0 0.14289912E+03</rscale>
<asrwt>0</asrwt>
<pdfrwt beam="2">  1        1 0.13179124E-01 0.14968224E+03</pdfrwt>
<pdfrwt beam="1">  1       -1 0.34901048E-01 0.14968224E+03</pdfrwt>
<totfact> 0.33655384E+03</totfact>
</mgrwt>
</event>
<event>
 7    1  0.5107591E-006  0.1976449E+03  0.7546771E-02  0.1156151E+00
          1   -1    0    0  501    0  0.00000000000E+00  0.00000000000E+00  0.49683887559E+03  0.49683887559E+03  0.00000000000E+00 0. -1.
         -1   -1    0    0    0  501 -0.00000000000E+00 -0.00000000000E+00 -0.11967709176E+03  0.11967709176E+03  0.00000000000E+00 0.  1.
         23    2    1    2    0    0 -0.85947943205E+02 -0.12669442726E+03  0.37908069920E+03  0.41886176405E+03  0.91128886981E+02 0.  0.
          5    1    1    2  502    0 -0.80521564319E+01  0.88726629600E+02 -0.26815082318E+02  0.93157880306E+02  0.47000000000E+01 0. -1.
         -5    1    1    2    0  502  0.94000099637E+02  0.37967797655E+02  0.24896166954E+02  0.10449632300E+03  0.47000000000E+01 0. -1.
        -11    1    3    3    0    0 -0.25104660706E+02 -0.61110807699E+02  0.26909992798E+03  0.27709122333E+03  0.00000000000E+00 0. -1.
         11    1    3    3    0    0 -0.60843282499E+02 -0.65583619556E+02  0.10998077121E+03  0.14177054072E+03  0.00000000000E+00 0.  1.
<mgrwt>
<rscale>  0 0.19258399E+03</rscale>
<asrwt>0</asrwt>
<pdfrwt beam="1">  1        1 0.76436749E-01 0.19764489E+03</pdfrwt>
<pdfrwt beam="2">  1       -1 0.18411861E-01 0.19764489E+03</pdfrwt>
<totfact> 0.10511358E+03</totfact>
</mgrwt>
</event>
<event>
 7    1  0.5107591E-006  0.1278018E+03  0.7546771E-02  0.1244868E+00
          1   -1    0    0  501    0  0.00000000000E+00  0.00000000000E+00  0.50537859411E+03  0.50537859411E+03  0.00000000000E+00 0. -1.
         -1   -1    0    0    0  501 -0.00000000000E+00 -0.00000000000E+00 -0.24744447895E+02  0.24744447895E+02  0.00000000000E+00 0.  1.
         23    2    1    2    0    0 -0.12957495410E+02  0.23250112450E+02  0.20504111312E+03  0.22633887379E+03  0.92081286409E+02 0.  0.
          5    1    1    2  502    0  0.27163532885E+02 -0.20223361326E+02  0.71775957282E+01  0.34934935846E+02  0.47000000000E+01 0. -1.
         -5    1    1    2    0  502 -0.14206037475E+02 -0.30267511235E+01  0.26841543737E+03  0.26884923236E+03  0.47000000000E+01 0. -1.
        -11    1    3    3    0    0  0.32156244998E+02  0.17415231707E+01  0.28985949477E+02  0.43327153869E+02  0.00000000000E+00 0.  1.
         11    1    3    3    0    0 -0.45113740407E+02  0.21508589279E+02  0.17605516364E+03  0.18301171993E+03  0.00000000000E+00 0. -1.
<mgrwt>
<rscale>  0 0.11893289E+03</rscale>
<asrwt>0</asrwt>
<pdfrwt beam="1">  1        1 0.77750545E-01 0.12780180E+03</pdfrwt>
<pdfrwt beam="2">  1       -1 0.38068385E-02 0.12780180E+03</pdfrwt>
<totfact> 0.11154204E+04</totfact>
</mgrwt>
</event>
<event>
 7    1  0.5107591E-006  0.1530307E+03  0.7546771E-02  0.1205116E+00
          3   -1    0    0  501    0  0.00000000000E+00  0.00000000000E+00  0.18001705891E+03  0.18001705891E+03  0.00000000000E+00 0. -1.
         -3   -1    0    0    0  501 -0.00000000000E+00 -0.00000000000E+00 -0.11089436188E+03  0.11089436188E+03  0.00000000000E+00 0.  1.
         23    2    1    2    0    0  0.33713695375E+02 -0.81589738013E+02  0.47711184475E+02  0.13639007172E+03  0.92370969115E+02 0.  0.
          5    1    1    2  502    0  0.60394045717E+01  0.94788769383E+02 -0.18035100247E+02  0.96792252012E+02  0.47000000000E+01 0. -1.
         -5    1    1    2    0  502 -0.39753099946E+02 -0.13199031370E+02  0.39446612807E+02  0.57729097051E+02  0.47000000000E+01 0. -1.
        -11    1    3    3    0    0  0.56061119521E+02 -0.34837945992E+02  0.76621565315E-01  0.66004071645E+02  0.00000000000E+00 0.  1.
         11    1    3    3    0    0 -0.22347424146E+02 -0.46751792021E+02  0.47634562909E+02  0.70386000076E+02  0.00000000000E+00 0. -1.
<mgrwt>
<rscale>  0 0.14628289E+03</rscale>
<asrwt>0</asrwt>
<pdfrwt beam="1">  1        3 0.27694932E-01 0.15303070E+03</pdfrwt>
<pdfrwt beam="2">  1       -3 0.17060671E-01 0.15303070E+03</pdfrwt>
<totfact> 0.86926882E+02</totfact>
</mgrwt>
</event>
<event>
 7    1  0.5107591E-006  0.1334247E+03  0.7546771E-02  0.1234501E+00
         -1   -1    0    0    0  501 -0.00000000000E+00  0.00000000000E+00  0.51632891846E+03  0.51632891846E+03  0.00000000000E+00 0.  1.
          1   -1    0    0  501    0  0.00000000000E+00 -0.00000000000E+00 -0.31972996922E+02  0.31972996922E+02  0.00000000000E+00 0. -1.
         23    2    1    2    0    0 -0.18436673419E+02  0.42852161717E+02  0.11233598656E+03  0.15307921894E+03  0.92938983772E+02 0.  0.
          5    1    1    2  502    0 -0.12777122937E+02  0.22348290106E+02  0.26319430045E+03  0.26449202394E+03  0.47000000000E+01 0. -1.
         -5    1    1    2    0  502  0.31213796356E+02 -0.65200451823E+02  0.10882563453E+03  0.13073067250E+03  0.47000000000E+01 0. -1.
        -11    1    3    3    0    0 -0.17698877818E+02  0.90969096244E+01  0.11727959334E+03  0.11895590383E+03  0.00000000000E+00 0.  1.
         11    1    3    3    0    0 -0.73779560078E+00  0.33755252092E+02 -0.49436067845E+01  0.34123315112E+02  0.00000000000E+00 0. -1.
<mgrwt>
<rscale>  0 0.12536457E+03</rscale>
<asrwt>0</asrwt>
<pdfrwt beam="2">  1        1 0.49189230E-02 0.13342469E+03</pdfrwt>
<pdfrwt beam="1">  1       -1 0.79435212E-01 0.13342469E+03</pdfrwt>
<totfact> 0.27197206E+03</totfact>
</mgrwt>
</event>
<event>
 7    1  0.5107591E-006  0.1272434E+03  0.7546771E-02  0.1245985E+00
         -2   -1    0    0    0  501 -0.00000000000E+00  0.00000000000E+00  0.22243408280E+03  0.22243408280E+03  0.00000000000E+00 0.  1.
          2   -1    0    0  501    0  0.00000000000E+00 -0.00000000000E+00 -0.67424875086E+02  0.67424875086E+02  0.00000000000E+00 0. -1.
         23    2    1    2    0    0 -0.22977664004E+02  0.60382513606E+01  0.78004328156E+01  0.95279161214E+02  0.91939318504E+02 0.  0.
          5    1    1    2  502    0  0.48899412147E+02 -0.37887959513E+02  0.27359424847E+02  0.67803230840E+02  0.47000000000E+01 0.  1.
         -5    1    1    2    0  502 -0.25921748143E+02  0.31849708152E+02  0.11984935005E+03  0.12677656583E+03  0.47000000000E+01 0.  1.
        -11    1    3    3    0    0 -0.34375070045E+02  0.25582336011E+02  0.38185983380E+02  0.57395737499E+02  0.00000000000E+00 0.  1.
         11    1    3    3    0    0  0.11397406040E+02 -0.19544084650E+02 -0.30385550564E+02  0.37883423715E+02  0.00000000000E+00 0. -1.
<mgrwt>
<rscale>  0 0.11826623E+03</rscale>
<asrwt>0</asrwt>
<pdfrwt beam="2">  1        2 0.10373058E-01 0.12724336E+03</pdfrwt>
<pdfrwt beam="1">  1       -2 0.34220628E-01 0.12724336E+03</pdfrwt>
<totfact> 0.46499962E+03</totfact>
</mgrwt>
</event>
<event>
 7    1  0.5107591E-006  0.1388745E+03  0.7546771E-02  0.1226833E+00
          1   -1    0    0  501    0  0.00000000000E+00  0.00000000000E+00  0.42341738176E+02  0.42341738176E+02  0.00000000000E+00 0. -1.
         -1   -1    0    0    0  501 -0.00000000000E+00 -0.00000000000E+00 -0.38544927701E+03  0.38544927701E+03  0.00000000000E+00 0.  1.
         23    2    1    2    0    0  0.59778010489E+02  0.93773082106E+01 -0.96890494400E+02  0.14510928550E+03  0.89485151769E+02 0.  0.
          5    1    1    2  502    0  0.65622751170E+01  0.39354200391E+02 -0.26818585605E+02  0.48302619774E+02  0.47000000000E+01 0.  1.
         -5    1    1    2    0  502 -0.66340285606E+02 -0.48731508602E+02 -0.21939845882E+03  0.23437910990E+03  0.47000000000E+01 0.  1.
        -11    1    3    3    0    0  0.23967613367E+02 -0.23951945555E+02  0.28638358971E+01  0.34005054659E+02  0.00000000000E+00 0. -1.
         11    1    3    3    0    0  0.35810397122E+02  0.33329253765E+02 -0.99754330297E+02  0.11110423084E+03  0.00000000000E+00 0.  1.
<mgrwt>
<rscale>  0 0.13042048E+03</rscale>
<asrwt>0</asrwt>
<pdfrwt beam="1">  1        1 0.65141135E-02 0.13887450E+03</pdfrwt>
<pdfrwt beam="2">  1       -1 0.59299890E-01 0.13887450E+03</pdfrwt>
<totfact> 0.33032075E+03</totfact>
</mgrwt>
</event>
<event>
 7    1  0.5107591E-006  0.1551785E+03  0.7546771E-02  0.1203066E+00
         -2   -1    0    0    0  501 -0.00000000000E+00  0.00000000000E+00  0.41053924987E+03  0.41053924987E+03  0.00000000000E+00 0.  1.
          2   -1    0    0  501    0  0.00000000000E+00 -0.00000000000E+00 -0.56016509376E+02  0.56016509376E+02  0.00000000000E+00 0. -1.
         23    2    1    2    0    0 -0.76685449575E+02 -0.50750354754E+02  0.79426851722E+02  0.15071070130E+03  0.89156233809E+02 0.  0.
          5    1    1    2  502    0  0.73456612697E+02  0.75282677206E+02  0.12402390290E+03  0.16268796491E+03  0.47000000000E+01 0.  1.
         -5    1    1    2    0  502  0.32288368776E+01 -0.24532322452E+02  0.15107198587E+03  0.15315709304E+03  0.47000000000E+01 0.  1.
        -11    1    3    3    0    0 -0.26621345804E+02 -0.67509236349E+02  0.60974133921E+02  0.94784165619E+02  0.00000000000E+00 0.  1.
         11    1    3    3    0    0 -0.50064103771E+02  0.16758881595E+02  0.18452717801E+02  0.55926535678E+02  0.00000000000E+00 0. -1.
<mgrwt>
<rscale>  0 0.14790944E+03</rscale>
<asrwt>0</asrwt>
<pdfrwt beam="2">  1        2 0.86179248E-02 0.15517845E+03</pdfrwt>
<pdfrwt beam="1">  1       -2 0.63159883E-01 0.15517845E+03</pdfrwt>
<totfact> 0.17874298E+03</totfact>
</mgrwt>
</event>
<event>
 7    1  0.5107591E-006  0.1555439E+03  0.7546771E-02  0.1199660E+00
         -1   -1    0    0    0  501 -0.00000000000E+00  0.00000000000E+00  0.20861479377E+02  0.20861479377E+02  0.00000000000E+00 0.  1.
          1   -1    0    0  501    0  0.00000000000E+00 -0.00000000000E+00 -0.10600042205E+04  0.10600042205E+04  0.00000000000E+00 0. -1.
         23    2    1    2    0    0 -0.80716638004E+02 -0.65864418339E+02 -0.58551504051E+03  0.60131172929E+03  0.88851763454E+02 0.  0.
          5    1    1    2  502    0  0.39059501543E+02 -0.24575572878E+02 -0.23124547544E+03  0.23585199460E+03  0.47000000000E+01 0. -1.
         -5    1    1    2    0  502  0.41657136461E+02  0.90439991217E+02 -0.22238222522E+03  0.24370197603E+03  0.47000000000E+01 0.  1.
        -11    1    3    3    0    0 -0.90194172683E+01 -0.64438574975E+02 -0.29238031252E+03  0.29953284792E+03  0.00000000000E+00 0.  1.
         11    1    3    3    0    0 -0.71697220735E+02 -0.14258433647E+01 -0.29313472799E+03  0.30177888137E+03  0.00000000000E+00 0. -1.
<mgrwt>
<rscale>  0 0.15066383E+03</rscale>
<asrwt>0</asrwt>
<pdfrwt beam="2">  1        1 0.16307754E+00 0.15554395E+03</pdfrwt>
<pdfrwt beam="1">  1       -1 0.32094591E-02 0.15554395E+03</pdfrwt>
<totfact> 0.48393395E+03</totfact>
</mgrwt>
</event>
<event>
 7    1  0.5107591E-006  0.1813907E+03  0.7546771E-02  0.1171802E+00
          1   -1    0    0  501    0  0.00000000000E+00  0.00000000000E+00  0.81273464477E+02  0.81273464477E+02  0.00000000000E+00 0. -1.
         -1   -1    0    0    0  501 -0.00000000000E+00 -0.00000000000E+00 -0.36161959543E+03  0.36161959543E+03  0.00000000000E+00 0.  1.
         23    2    1    2    0    0 -0.81226086806E+02 -0.10334992941E+03 -0.11505023092E+03  0.19748454715E+03  0.92112461925E+02 0.  0.
          5    1    1    2  502    0  0.12113836254E+02  0.64858244822E+02 -0.15103913150E+03  0.16488858722E+03  0.47000000000E+01 0. -1.
         -5    1    1    2    0  502  0.69112250552E+02  0.38491684589E+02 -0.14256768529E+02  0.80519925532E+02  0.47000000000E+01 0. -1.
        -11    1    3    3    0    0 -0.11644130267E+02  0.42270920879E+01 -0.54294791115E+02  0.55690020825E+02  0.00000000000E+00 0.  1.
         11    1    3    3    0    0 -0.69581956539E+02 -0.10757702150E+03 -0.60755439802E+02  0.14179452633E+03  0.00000000000E+00 0. -1.
<mgrwt>
<rscale>  0 0.17592888E+03</rscale>
<asrwt>0</asrwt>
<pdfrwt beam="1">  1        1 0.12503610E-01 0.18139075E+03</pdfrwt>
<pdfrwt beam="2">  1       -1 0.55633784E-01 0.18139075E+03</pdfrwt>
<totfact> 0.15750616E+03</totfact>
</mgrwt>
</event>
<event>
 7    1  0.5107591E-006  0.1573743E+03  0.7546771E-02  0.1199454E+00
         -2   -1    0    0    0  501 -0.00000000000E+00  0.00000000000E+00  0.31495948957E+02  0.31495948957E+02  0.00000000000E+00 0.  1.
          2   -1    0    0  501    0  0.00000000000E+00 -0.00000000000E+00 -0.69509688762E+03  0.69509688762E+03  0.00000000000E+00 0. -1.
         23    2    1    2    0    0 -0.41167963338E+02  0.86297017572E+02 -0.37583195181E+03  0.39860250981E+03  0.92153829974E+02 0.  0.
          5    1    1    2  502    0  0.48531032864E+02 -0.28937076541E+02 -0.30742956190E+02  0.64496782128E+02  0.47000000000E+01 0.  1.
         -5    1    1    2    0  502 -0.73630695260E+01 -0.57359941031E+02 -0.25702603066E+03  0.26349354464E+03  0.47000000000E+01 0.  1.
        -11    1    3    3    0    0 -0.41535828129E+02  0.31554248313E+02 -0.66770642397E+02  0.84730244253E+02  0.00000000000E+00 0.  1.
         11    1    3    3    0    0  0.36786479079E+00  0.54742769259E+02 -0.30906130941E+03  0.31387226556E+03  0.00000000000E+00 0. -1.
<mgrwt>
<rscale>  0 0.15083256E+03</rscale>
<asrwt>0</asrwt>
<pdfrwt beam="2">  1        2 0.10693798E+00 0.15737428E+03</pdfrwt>
<pdfrwt beam="1">  1       -2 0.48455309E-02 0.15737428E+03</pdfrwt>
<totfact> 0.84177627E+03</totfact>
</mgrwt>
</event>
<event>
 7    1  0.5107591E-006  0.1275753E+03  0.7546771E-02  0.1245672E+00
         -3   -1    0    0    0  501 -0.00000000000E+00  0.00000000000E+00  0.66361925628E+03  0.66361925628E+03  0.00000000000E+00 0.  1.
          3   -1    0    0  501    0  0.00000000000E+00 -0.00000000000E+00 -0.38086994619E+02  0.38086994619E+02  0.00000000000E+00 0. -1.
         23    2    1    2    0    0 -0.11500953447E+01  0.25486092009E+02  0.40801946476E+02  0.10322066210E+03  0.91317263668E+02 0.  0.
          5    1    1    2  502    0 -0.12722673138E+02  0.39002597015E+02  0.40275807894E+03  0.40486939763E+03  0.47000000000E+01 0. -1.
         -5    1    1    2    0  502  0.13872768482E+02 -0.64488689023E+02  0.18197223624E+03  0.19361619116E+03  0.47000000000E+01 0. -1.
        -11    1    3    3    0    0 -0.44049648821E+02  0.65132421913E+01  0.62587397650E+01  0.44966273012E+02  0.00000000000E+00 0.  1.
         11    1    3    3    0    0  0.42899553476E+02  0.18972849817E+02  0.34543206711E+02  0.58254389093E+02  0.00000000000E+00 0. -1.
<mgrwt>
<rscale>  0 0.11845221E+03</rscale>
<asrwt>0</asrwt>
<pdfrwt beam="2">  1        3 0.58595381E-02 0.12757531E+03</pdfrwt>
<pdfrwt beam="1">  1       -3 0.10209526E+00 0.12757531E+03</pdfrwt>
<totfact> 0.35205954E+02</totfact>
</mgrwt>
</event>
<event>
 7    1  0.5107591E-006  0.2280068E+03  0.7546771E-02  0.1131209E+00
          3   -1    0    0  501    0  0.00000000000E+00  0.00000000000E+00  0.43174240210E+03  0.43174240210E+03  0.00000000000E+00 0. -1.
         -3   -1    0    0    0  501 -0.00000000000E+00 -0.00000000000E+00 -0.11267065910E+03  0.11267065910E+03  0.00000000000E+00 0.  1.
         23    2    1    2    0    0 -0.82968576927E+02 -0.17169171153E+03  0.18008406629E+03  0.27738371058E+03  0.90275264605E+02 0.  0.
          5    1    1    2  502    0  0.60952330275E+02  0.70407502262E+01  0.31693852442E+02  0.69219571021E+02  0.47000000000E+01 0. -1.
         -5    1    1    2    0  502  0.22016246652E+02  0.16465096130E+03  0.10729382427E+03  0.19780977959E+03  0.47000000000E+01 0. -1.
        -11    1    3    3    0    0 -0.75422238484E+02 -0.72934993879E+02  0.12791539068E+03  0.16543994247E+03  0.00000000000E+00 0. -1.
         11    1    3    3    0    0 -0.75463384431E+01 -0.98756717652E+02  0.52168675606E+02  0.11194376811E+03  0.00000000000E+00 0.  1.
<mgrwt>
<rscale>  0 0.22362472E+03</rscale>
<asrwt>0</asrwt>
<pdfrwt beam="1">  1        3 0.66421907E-01 0.22800680E+03</pdfrwt>
<pdfrwt beam="2">  1       -3 0.17333948E-01 0.22800680E+03</pdfrwt>
<totfact> 0.15899544E+02</totfact>
</mgrwt>
</event>
<event>
 7    1  0.5107591E-006  0.1510108E+03  0.7546771E-02  0.1207137E+00
         -2   -1    0    0    0  501 -0.00000000000E+00  0.00000000000E+00  0.71304275229E+02  0.71304275229E+02  0.00000000000E+00 0.  1.
          2   -1    0    0  501    0  0.00000000000E+00 -0.00000000000E+00 -0.30045380439E+03  0.30045380439E+03  0.00000000000E+00 0. -1.
         23    2    1    2    0    0  0.84822912979E+02  0.20648794431E+01 -0.16316568073E+03  0.20696083661E+03  0.94923960257E+02 0.  0.
          5    1    1    2  502    0  0.34219422417E+01 -0.18185722616E+02 -0.72269849569E+02  0.74749256535E+02  0.47000000000E+01 0. -1.
         -5    1    1    2    0  502 -0.88244855221E+02  0.16120843173E+02  0.62860011333E+01  0.90047986473E+02  0.47000000000E+01 0. -1.
        -11    1    3    3    0    0  0.10327914199E+03  0.41015140224E+01 -0.11139671569E+03  0.15196260018E+03  0.00000000000E+00 0.  1.
         11    1    3    3    0    0 -0.18456229009E+02 -0.20366345792E+01 -0.51768965036E+02  0.54998236431E+02  0.00000000000E+00 0. -1.
<mgrwt>
<rscale>  0 0.14470317E+03</rscale>
<asrwt>0</asrwt>
<pdfrwt beam="2">  1        2 0.46223661E-01 0.15101080E+03</pdfrwt>
<pdfrwt beam="1">  1       -2 0.10969889E-01 0.15101080E+03</pdfrwt>
<totfact> 0.60029048E+03</totfact>
</mgrwt>
</event>
<event>
 7    1  0.5107591E-006  0.1475475E+03  0.7546771E-02  0.1213199E+00
          1   -1    0    0  501    0  0.00000000000E+00  0.00000000000E+00  0.48350452152E+03  0.48350452152E+03  0.00000000000E+00 0. -1.
         -1   -1    0    0    0  501 -0.00000000000E+00 -0.00000000000E+00 -0.37174688032E+02  0.37174688032E+02  0.00000000000E+00 0.  1.
         23    2    1    2    0    0 -0.71277278287E+02  0.32645731053E+02  0.21839802912E+03  0.24915911444E+03  0.90754454596E+02 0.  0.
          5    1    1    2  502    0 -0.28493437277E+02  0.16909269850E+02  0.33279170645E+02  0.47195260075E+02  0.47000000000E+01 0. -1.
         -5    1    1    2    0  502  0.99770715564E+02 -0.49555000903E+02  0.19465263372E+03  0.22432483503E+03  0.47000000000E+01 0. -1.
        -11    1    3    3    0    0 -0.33622187676E+02  0.50182328010E+02  0.59000118558E+02  0.84437737645E+02  0.00000000000E+00 0.  1.
         11    1    3    3    0    0 -0.37655090610E+02 -0.17536596957E+02  0.15939791056E+03  0.16472137680E+03  0.00000000000E+00 0. -1.
<mgrwt>
<rscale>  0 0.14009685E+03</rscale>
<asrwt>0</asrwt>
<pdfrwt beam="1">  1        1 0.74385306E-01 0.14754747E+03</pdfrwt>
<pdfrwt beam="2">  1       -1 0.57191831E-02 0.14754747E+03</pdfrwt>
<totfact> 0.65399454E+03</totfact>
</mgrwt>
</event>
<event>
 7    1  0.5107591E-006  0.2892082E+03  0.7546771E-02  0.1093234E+00
          2   -1    0    0  501    0  0.00000000000E+00  0.00000000000E+00  0.71707069286E+03  0.71707069286E+03  0.00000000000E+00 0. -1.
         -2   -1    0    0    0  501 -0.00000000000E+00 -0.00000000000E+00 -0.10946311888E+03  0.10946311888E+03  0.00000000000E+00 0.  1.
         23    2    1    2    0    0 -0.25871157792E+02  0.25950384052E+03  0.28479233148E+03  0.39311590378E+03  0.73633427794E+02 0.  0.
          5    1    1    2  502    0 -0.15657181387E+02 -0.74432472350E+02  0.18147763207E+03  0.19682876113E+03  0.47000000000E+01 0.  1.
         -5    1    1    2    0  502  0.41528339178E+02 -0.18507136817E+03  0.14133761044E+03  0.23658914683E+03  0.47000000000E+01 0.  1.
        -11    1    3    3    0    0  0.24762672050E+02  0.11310960052E+03  0.13092523629E+03  0.17478097481E+03  0.00000000000E+00 0.  1.
         11    1    3    3    0    0 -0.50633829842E+02  0.14639424000E+03  0.15386709518E+03  0.21833492897E+03  0.00000000000E+00 0. -1.
<mgrwt>
<rscale>  0 0.28454092E+03</rscale>
<asrwt>0</asrwt>
<pdfrwt beam="1">  1        2 0.11031857E+00 0.28920823E+03</pdfrwt>
<pdfrwt beam="2">  1       -2 0.16840480E-01 0.28920823E+03</pdfrwt>
<totfact> 0.11493519E+03</totfact>
</mgrwt>
</event>
<event>
 7    1  0.5107591E-006  0.1287338E+03  0.7546771E-02  0.1242280E+00
         -2   -1    0    0    0  501 -0.00000000000E+00  0.00000000000E+00  0.34371502781E+02  0.34371502781E+02  0.00000000000E+00 0.  1.
          2   -1    0    0  501    0  0.00000000000E+00 -0.00000000000E+00 -0.39677039760E+03  0.39677039760E+03  0.00000000000E+00 0. -1.
         23    2    1    2    0    0  0.10922773691E+02  0.28803967747E+02 -0.20678054288E+03  0.22917789279E+03  0.93890031904E+02 0.  0.
          5    1    1    2  502    0 -0.27654073578E+02 -0.25115629481E+02 -0.17303553682E+03  0.17708452680E+03  0.47000000000E+01 0. -1.
         -5    1    1    2    0  502  0.16731299887E+02 -0.36883382659E+01  0.17417184877E+02  0.24879480785E+02  0.47000000000E+01 0. -1.
        -11    1    3    3    0    0 -0.28603977268E+02  0.39886801547E+02 -0.15786433840E+03  0.16531876419E+03  0.00000000000E+00 0. -1.
         11    1    3    3    0    0  0.39526750959E+02 -0.11082833800E+02 -0.48916204474E+02  0.63859128608E+02  0.00000000000E+00 0.  1.
<mgrwt>
<rscale>  0 0.12049656E+03</rscale>
<asrwt>0</asrwt>
<pdfrwt beam="2">  1        2 0.61041598E-01 0.12873379E+03</pdfrwt>
<pdfrwt beam="1">  1       -2 0.52879236E-02 0.12873379E+03</pdfrwt>
<totfact> 0.13607717E+04</totfact>
</mgrwt>
</event>
<event>
 7    1  0.5107591E-006  0.1913757E+03  0.7546771E-02  0.1162020E+00
         -2   -1    0    0    0  501 -0.00000000000E+00  0.00000000000E+00  0.10277295778E+03  0.10277295778E+03  0.00000000000E+00 0.  1.
          2   -1    0    0  501    0  0.00000000000E+00 -0.00000000000E+00 -0.31975490176E+03  0.31975490176E+03  0.00000000000E+00 0. -1.
         23    2    1    2    0    0 -0.48931667514E+02  0.13640205519E+03 -0.99951290879E+02  0.19820484605E+03  0.91077284237E+02 0.  0.
          5    1    1    2  502    0  0.43265433182E+02  0.13264968877E+00 -0.64579300891E+02  0.77874844513E+02  0.47000000000E+01 0. -1.
         -5    1    1    2    0  502  0.56662343314E+01 -0.13653470488E+03 -0.52451352211E+02  0.14644816898E+03  0.47000000000E+01 0. -1.
        -11    1    3    3    0    0 -0.10723892682E+02  0.94832141324E+02 -0.10454737698E+03  0.14155667041E+03  0.00000000000E+00 0. -1.
         11    1    3    3    0    0 -0.38207774832E+02  0.41569913867E+02  0.45960861036E+01  0.56648175646E+02  0.00000000000E+00 0.  1.
<mgrwt>
<rscale>  0 0.18610756E+03</rscale>
<asrwt>0</asrwt>
<pdfrwt beam="2">  1        2 0.49193061E-01 0.19137565E+03</pdfrwt>
<pdfrwt beam="1">  1       -2 0.15811225E-01 0.19137565E+03</pdfrwt>
<totfact> 0.31425301E+03</totfact>
</mgrwt>
</event>
<event>
 7    1  0.5107591E-006  0.1406405E+03  0.7546771E-02  0.1223647E+00
         -2   -1    0    0    0  501 -0.00000000000E+00  0.00000000000E+00  0.50107021104E+02  0.50107021104E+02  0.00000000000E+00 0.  1.
          2   -1    0    0  501    0  0.00000000000E+00 -0.00000000000E+00 -0.32597596195E+03  0.32597596195E+03  0.00000000000E+00 0. -1.
         23    2    1    2    0    0 -0.48071564565E+02  0.42941459173E+02 -0.15447095938E+03  0.19029484184E+03  0.90531791675E+02 0.  0.
          5    1    1    2  502    0 -0.30139545812E+02 -0.71197371614E+01 -0.87965360463E+02  0.93376000773E+02  0.47000000000E+01 0. -1.
         -5    1    1    2    0  502  0.78211110377E+02 -0.35821722011E+02 -0.33432621009E+02  0.92412140446E+02  0.47000000000E+01 0. -1.
        -11    1    3    3    0    0 -0.76089791377E+01  0.41728605499E+02 -0.14160092859E+03  0.14781744166E+03  0.00000000000E+00 0. -1.
         11    1    3    3    0    0 -0.40462585427E+02  0.12128536737E+01 -0.12870030782E+02  0.42477400177E+02  0.00000000000E+00 0.  1.
<mgrwt>
<rscale>  0 0.13260046E+03</rscale>
<asrwt>0</asrwt>
<pdfrwt beam="2">  1        2 0.50150149E-01 0.14064055E+03</pdfrwt>
<pdfrwt beam="1">  1       -2 0.77087722E-02 0.14064055E+03</pdfrwt>
<totfact> 0.95130826E+03</totfact>
</mgrwt>
</event>
<event>
 7    1  0.5107591E-006  0.1904698E+03  0.7546771E-02  0.1162931E+00
          1   -1    0    0  501    0  0.00000000000E+00  0.00000000000E+00  0.33070318774E+03  0.33070318774E+03  0.00000000000E+00 0. -1.
         -1   -1    0    0    0  501 -0.00000000000E+00 -0.00000000000E+00 -0.12035347853E+03  0.12035347853E+03  0.00000000000E+00 0.  1.
         23    2    1    2    0    0  0.14362254425E+03 -0.51062116829E+01  0.19688553000E+03  0.26011152900E+03  0.90777678871E+02 0.  0.
          5    1    1    2  502    0 -0.35912582697E+02 -0.27947482441E+02 -0.44788225986E+02  0.64022266109E+02  0.47000000000E+01 0.  1.
         -5    1    1    2    0  502 -0.10770996155E+03  0.33053694124E+02  0.58252405195E+02  0.12692287116E+03  0.47000000000E+01 0.  1.
        -11    1    3    3    0    0  0.10996529453E+03 -0.21977945417E+02  0.19172219309E+03  0.22210987238E+03  0.00000000000E+00 0. -1.
         11    1    3    3    0    0  0.33657249718E+02  0.16871733734E+02  0.51633369104E+01  0.38001656620E+02  0.00000000000E+00 0.  1.
<mgrwt>
<rscale>  0 0.18512744E+03</rscale>
<asrwt>0</asrwt>
<pdfrwt beam="1">  1        1 0.50877413E-01 0.19046984E+03</pdfrwt>
<pdfrwt beam="2">  1       -1 0.18515920E-01 0.19046984E+03</pdfrwt>
<totfact> 0.17538262E+03</totfact>
</mgrwt>
</event>
<event>
 7    1  0.5107591E-006  0.1993196E+03  0.7546771E-02  0.1154694E+00
          1   -1    0    0  501    0  0.00000000000E+00  0.00000000000E+00  0.20253353631E+03  0.20253353631E+03  0.00000000000E+00 0. -1.
         -1   -1    0    0    0  501 -0.00000000000E+00 -0.00000000000E+00 -0.18982414728E+03  0.18982414728E+03  0.00000000000E+00 0.  1.
         23    2    1    2    0    0 -0.86211250636E+02 -0.12908932772E+03 -0.44128136220E+02  0.18509261047E+03  0.90639658962E+02 0.  0.
          5    1    1    2  502    0  0.44685793263E+02  0.12598012748E+03 -0.35043128571E+01  0.13379903904E+03  0.47000000000E+01 0.  1.
         -5    1    1    2    0  502  0.41525457374E+02  0.31092002444E+01  0.60341838115E+02  0.73466034079E+02  0.47000000000E+01 0.  1.
        -11    1    3    3    0    0 -0.43563272370E+02  0.13078943089E+00 -0.13564033663E+02  0.45626295211E+02  0.00000000000E+00 0.  1.
         11    1    3    3    0    0 -0.42647978266E+02 -0.12922011715E+03 -0.30564102557E+02  0.13946631526E+03  0.00000000000E+00 0. -1.
<mgrwt>
<rscale>  0 0.19423745E+03</rscale>
<asrwt>0</asrwt>
<pdfrwt beam="1">  1        1 0.31159006E-01 0.19931961E+03</pdfrwt>
<pdfrwt beam="2">  1       -1 0.29203715E-01 0.19931961E+03</pdfrwt>
<totfact> 0.15321750E+03</totfact>
</mgrwt>
</event>
<event>
 7    1  0.5107591E-006  0.1346639E+03  0.7546771E-02  0.1233630E+00
          1   -1    0    0  501    0  0.00000000000E+00  0.00000000000E+00  0.77021160611E+02  0.77021160611E+02  0.00000000000E+00 0. -1.
         -1   -1    0    0    0  501 -0.00000000000E+00 -0.00000000000E+00 -0.22719151497E+03  0.22719151497E+03  0.00000000000E+00 0.  1.
         23    2    1    2    0    0  0.33991514643E+01  0.49971328680E+02 -0.62280104601E+00  0.10296943094E+03  0.89964592517E+02 0.  0.
          5    1    1    2  502    0 -0.21506035217E+02  0.78980591961E+01 -0.13720698298E+03  0.13918597295E+03  0.47000000000E+01 0.  1.
         -5    1    1    2    0  502  0.18106883752E+02 -0.57869387876E+02 -0.12340570335E+02  0.62057271682E+02  0.47000000000E+01 0.  1.
        -11    1    3    3    0    0 -0.83797291251E+01  0.66063890889E+02 -0.25303529880E+02  0.71238516015E+02  0.00000000000E+00 0.  1.
         11    1    3    3    0    0  0.11778880589E+02 -0.16092562209E+02  0.24680728834E+02  0.31730914928E+02  0.00000000000E+00 0. -1.
<mgrwt>
<rscale>  0 0.12592546E+03</rscale>
<asrwt>0</asrwt>
<pdfrwt beam="1">  1        1 0.11849409E-01 0.13466393E+03</pdfrwt>
<pdfrwt beam="2">  1       -1 0.34952541E-01 0.13466393E+03</pdfrwt>
<totfact> 0.38368768E+03</totfact>
</mgrwt>
</event>
<event>
 7    1  0.5107591E-006  0.1845377E+03  0.7546771E-02  0.1168791E+00
          2   -1    0    0  501    0  0.00000000000E+00  0.00000000000E+00  0.58522905038E+02  0.58522905038E+02  0.00000000000E+00 0. -1.
         -2   -1    0    0    0  501 -0.00000000000E+00 -0.00000000000E+00 -0.65985963903E+03  0.65985963903E+03  0.00000000000E+00 0.  1.
         23    2    1    2    0    0  0.55111641262E+02  0.12406912685E+03 -0.11932357585E+03  0.20225190048E+03  0.90759430670E+02 0.  0.
          5    1    1    2  502    0  0.10454121272E+02 -0.11692277658E+03 -0.28285132855E+03  0.30627959188E+03  0.47000000000E+01 0.  1.
         -5    1    1    2    0  502 -0.65565762533E+02 -0.71463502620E+01 -0.19916182959E+03  0.20985105171E+03  0.47000000000E+01 0.  1.
        -11    1    3    3    0    0  0.29742412773E+02  0.78593342342E+01  0.38709332863E+01  0.31005876486E+02  0.00000000000E+00 0.  1.
         11    1    3    3    0    0  0.25369228489E+02  0.11620979261E+03 -0.12319450913E+03  0.17124602399E+03  0.00000000000E+00 0. -1.
<mgrwt>
<rscale>  0 0.17898310E+03</rscale>
<asrwt>0</asrwt>
<pdfrwt beam="1">  1        2 0.90035241E-02 0.18453768E+03</pdfrwt>
<pdfrwt beam="2">  1       -2 0.10151686E+00 0.18453768E+03</pdfrwt>
<totfact> 0.60016277E+02</totfact>
</mgrwt>
</event>
<event>
 7    1  0.5107591E-006  0.1336021E+03  0.7546771E-02  0.1237023E+00
          1   -1    0    0  501    0  0.00000000000E+00  0.00000000000E+00  0.31033893059E+03  0.31033893059E+03  0.00000000000E+00 0. -1.
         -1   -1    0    0    0  501 -0.00000000000E+00 -0.00000000000E+00 -0.43427877633E+02  0.43427877633E+02  0.00000000000E+00 0.  1.
         23    2    1    2    0    0 -0.42071603259E+02  0.21453080254E+02  0.10571595678E+03  0.14440258540E+03  0.86290142533E+02 0.  0.
          5    1    1    2  502    0  0.85204253279E+02 -0.20440403213E+02  0.88018136185E+02  0.12428538594E+03  0.47000000000E+01 0.  1.
         -5    1    1    2    0  502 -0.43132650020E+02 -0.10126770409E+01  0.73176959998E+02  0.85078836893E+02  0.47000000000E+01 0.  1.
        -11    1    3    3    0    0 -0.21480141585E+02  0.31428009348E+02  0.11390752804E+03  0.12010012988E+03  0.00000000000E+00 0. -1.
         11    1    3    3    0    0 -0.20591461674E+02 -0.99749290941E+01 -0.81915712597E+01  0.24302455514E+02  0.00000000000E+00 0.  1.
<mgrwt>
<rscale>  0 0.12375800E+03</rscale>
<asrwt>0</asrwt>
<pdfrwt beam="1">  1        1 0.47744449E-01 0.13360209E+03</pdfrwt>
<pdfrwt beam="2">  1       -1 0.66812121E-02 0.13360209E+03</pdfrwt>
<totfact> 0.90161941E+03</totfact>
</mgrwt>
</event>
<event>
 7    1  0.5107591E-006  0.1451048E+03  0.7546771E-02  0.1217222E+00
          2   -1    0    0  501    0  0.00000000000E+00  0.00000000000E+00  0.20665457242E+03  0.20665457242E+03  0.00000000000E+00 0. -1.
         -2   -1    0    0    0  501 -0.00000000000E+00 -0.00000000000E+00 -0.84198389300E+02  0.84198389300E+02  0.00000000000E+00 0.  1.
         23    2    1    2    0    0 -0.73277998685E+02  0.77690375632E+01  0.75946842629E+02  0.13847671325E+03  0.89318834362E+02 0.  0.
          5    1    1    2  502    0  0.19270056378E+02 -0.62838246766E+02  0.90939654839E+01  0.66518948711E+02  0.47000000000E+01 0.  1.
         -5    1    1    2    0  502  0.54007942307E+02  0.55069209203E+02  0.37415375006E+02  0.85857299756E+02  0.47000000000E+01 0.  1.
        -11    1    3    3    0    0 -0.25460305273E+01  0.31750433557E+02  0.50246238560E+02  0.59491653128E+02  0.00000000000E+00 0.  1.
         11    1    3    3    0    0 -0.70731968157E+02 -0.23981395994E+02  0.25700604069E+02  0.78985060124E+02  0.00000000000E+00 0. -1.
<mgrwt>
<rscale>  0 0.13714543E+03</rscale>
<asrwt>0</asrwt>
<pdfrwt beam="1">  1        2 0.31793011E-01 0.14510480E+03</pdfrwt>
<pdfrwt beam="2">  1       -2 0.12953598E-01 0.14510480E+03</pdfrwt>
<totfact> 0.68490022E+03</totfact>
</mgrwt>
</event>
<event>
 7    1  0.5107591E-006  0.2216927E+03  0.7546771E-02  0.1132627E+00
          2   -1    0    0  501    0  0.00000000000E+00  0.00000000000E+00  0.39450742250E+02  0.39450742250E+02  0.00000000000E+00 0. -1.
         -2   -1    0    0    0  501 -0.00000000000E+00 -0.00000000000E+00 -0.31144941795E+03  0.31144941795E+03  0.00000000000E+00 0.  1.
         23    2    1    2    0    0 -0.64745091963E+01  0.15353537736E+02 -0.13731724659E+03  0.16641606541E+03  0.92523673864E+02 0.  0.
          5    1    1    2  502    0  0.55434491068E+02 -0.29905868340E+02 -0.34584937894E+02  0.72010774821E+02  0.47000000000E+01 0.  1.
         -5    1    1    2    0  502 -0.48959981872E+02  0.14552330604E+02 -0.10009649122E+03  0.11247331997E+03  0.47000000000E+01 0.  1.
        -11    1    3    3    0    0  0.34121079952E+02  0.20923749091E+02 -0.25828517845E+02  0.47635739809E+02  0.00000000000E+00 0. -1.
         11    1    3    3    0    0 -0.40595589148E+02 -0.55702113558E+01 -0.11148872874E+03  0.11878032560E+03  0.00000000000E+00 0.  1.
<mgrwt>
<rscale>  0 0.22169268E+03</rscale>
<asrwt>0</asrwt>
<pdfrwt beam="1">  1        2 0.60693450E-02 0.22169268E+03</pdfrwt>
<pdfrwt beam="2">  1       -2 0.47915294E-01 0.22169268E+03</pdfrwt>
<totfact> 0.49997773E+03</totfact>
</mgrwt>
</event>
<event>
 7    1  0.5107591E-006  0.2744813E+03  0.7546771E-02  0.1129154E+00
         -1   -1    0    0    0  501 -0.00000000000E+00  0.00000000000E+00  0.38073461599E+02  0.38073461599E+02  0.00000000000E+00 0.  1.
          1   -1    0    0  501    0  0.00000000000E+00 -0.00000000000E+00 -0.10608504237E+04  0.10608504237E+04  0.00000000000E+00 0. -1.
         23    2    1    2    0    0 -0.10357757601E+02 -0.83105383362E+02 -0.30526027834E+03  0.33069853524E+03  0.95728239262E+02 0.  0.
          5    1    1    2  502    0  0.10162991122E+03  0.12041695116E+03 -0.56475225796E+03  0.58634126910E+03  0.47000000000E+01 0. -1.
         -5    1    1    2    0  502 -0.91272153622E+02 -0.37311567794E+02 -0.15276442585E+03  0.18188408101E+03  0.47000000000E+01 0.  1.
        -11    1    3    3    0    0  0.29854308361E+02 -0.40932601430E+02 -0.23001320809E+03  0.23552671501E+03  0.00000000000E+00 0. -1.
         11    1    3    3    0    0 -0.40212065961E+02 -0.42172781932E+02 -0.75247070245E+02  0.95171820226E+02  0.00000000000E+00 0.  1.
<mgrwt>
<rscale>  0 0.22646398E+03</rscale>
<asrwt>0</asrwt>
<pdfrwt beam="2">  1        1 0.16320774E+00 0.27448132E+03</pdfrwt>
<pdfrwt beam="1">  1       -1 0.58574564E-02 0.27448132E+03</pdfrwt>
<totfact> 0.19961265E+03</totfact>
</mgrwt>
</event>
<event>
 7    1  0.5107591E-006  0.1269204E+03  0.7546771E-02  0.1252364E+00
         -1   -1    0    0    0  501 -0.00000000000E+00  0.00000000000E+00  0.31891909642E+03  0.31891909642E+03  0.00000000000E+00 0.  1.
          1   -1    0    0  501    0  0.00000000000E+00 -0.00000000000E+00 -0.38591038072E+02  0.38591038072E+02  0.00000000000E+00 0. -1.
         23    2    1    2    0    0 -0.73645802516E+01  0.20744108507E+02  0.60594119790E+02  0.10375478096E+03  0.81294846944E+02 0.  0.
          5    1    1    2  502    0  0.28488890149E+02 -0.14318763497E+02  0.22758405326E+03  0.22985481320E+03  0.47000000000E+01 0. -1.
         -5    1    1    2    0  502 -0.21124309897E+02 -0.64253450094E+01 -0.78501147066E+01  0.23900540329E+02  0.47000000000E+01 0. -1.
        -11    1    3    3    0    0 -0.34679941597E+02  0.26753460400E+02  0.61814787032E+02  0.75759579516E+02  0.00000000000E+00 0.  1.
         11    1    3    3    0    0  0.27315361345E+02 -0.60093518932E+01 -0.12206672425E+01  0.27995201448E+02  0.00000000000E+00 0. -1.
<mgrwt>
<rscale>  0 0.11455270E+03</rscale>
<asrwt>0</asrwt>
<pdfrwt beam="2">  1        1 0.59370830E-02 0.12692035E+03</pdfrwt>
<pdfrwt beam="1">  1       -1 0.49064475E-01 0.12692035E+03</pdfrwt>
<totfact> 0.52911508E+03</totfact>
</mgrwt>
</event>
<event>
 7    1  0.5107591E-006  0.2403663E+03  0.7546771E-02  0.1122088E+00
         -2   -1    0    0    0  501 -0.00000000000E+00  0.00000000000E+00  0.52484163969E+02  0.52484163969E+02  0.00000000000E+00 0.  1.
          2   -1    0    0  501    0  0.00000000000E+00 -0.00000000000E+00 -0.10512179164E+04  0.10512179164E+04  0.00000000000E+00 0. -1.
         23    2    1    2    0    0 -0.81201926837E+02 -0.18857228479E+03 -0.55390384764E+03  0.59808406288E+03  0.93497670172E+02 0.  0.
          5    1    1    2  502    0  0.63152585235E+01 -0.13797474825E+02 -0.67581124002E+01  0.17263107628E+02  0.47000000000E+01 0.  1.
         -5    1    1    2    0  502  0.74886668313E+02  0.20236975962E+03 -0.43807179243E+03  0.48835490990E+03  0.47000000000E+01 0.  1.
        -11    1    3    3    0    0 -0.57673890586E+02 -0.12889067390E+03 -0.24669939699E+03  0.28425283807E+03  0.00000000000E+00 0.  1.
         11    1    3    3    0    0 -0.23528036250E+02 -0.59681610891E+02 -0.30720445065E+03  0.31383122482E+03  0.00000000000E+00 0. -1.
<mgrwt>
<rscale>  0 0.23658630E+03</rscale>
<asrwt>0</asrwt>
<pdfrwt beam="2">  1        2 0.16172582E+00 0.24036625E+03</pdfrwt>
<pdfrwt beam="1">  1       -2 0.80744873E-02 0.24036625E+03</pdfrwt>
<totfact> 0.22725269E+03</totfact>
</mgrwt>
</event>
<event>
 7    1  0.5107591E-006  0.1456720E+03  0.7546771E-02  0.1217028E+00
         -1   -1    0    0    0  501 -0.00000000000E+00  0.00000000000E+00  0.96089128235E+02  0.96089128235E+02  0.00000000000E+00 0.  1.
          1   -1    0    0  501    0  0.00000000000E+00 -0.00000000000E+00 -0.23741709813E+03  0.23741709813E+03  0.00000000000E+00 0. -1.
         23    2    1    2    0    0 -0.63200124131E+02  0.40006195967E+02 -0.14836471434E+03  0.18766433146E+03  0.87241397497E+02 0.  0.
          5    1    1    2  502    0  0.57461129832E+02  0.36815115974E+02  0.58442816745E+01  0.68654059123E+02  0.47000000000E+01 0.  1.
         -5    1    1    2    0  502  0.57389942993E+01 -0.76821311941E+02  0.11924627737E+01  0.77187835774E+02  0.47000000000E+01 0.  1.
        -11    1    3    3    0    0  0.16298410796E+02  0.72330361605E+01 -0.66820716560E+02  0.69158970265E+02  0.00000000000E+00 0.  1.
         11    1    3    3    0    0 -0.79498534927E+02  0.32773159807E+02 -0.81543997779E+02  0.11850536120E+03  0.00000000000E+00 0. -1.
<mgrwt>
<rscale>  0 0.13728649E+03</rscale>
<asrwt>0</asrwt>
<pdfrwt beam="2">  1        1 0.36525707E-01 0.14567204E+03</pdfrwt>
<pdfrwt beam="1">  1       -1 0.14782943E-01 0.14567204E+03</pdfrwt>
<totfact> 0.37507164E+03</totfact>
</mgrwt>
</event>
<event>
 7    1  0.5107591E-006  0.1596960E+03  0.7546771E-02  0.1196231E+00
          1   -1    0    0  501    0  0.00000000000E+00  0.00000000000E+00  0.35011024415E+03  0.35011024415E+03  0.00000000000E+00 0. -1.
         -1   -1    0    0    0  501 -0.00000000000E+00 -0.00000000000E+00 -0.71592373618E+02  0.71592373618E+02  0.00000000000E+00 0.  1.
         23    2    1    2    0    0 -0.89852585788E+02  0.42479443411E+02  0.20427301213E+03  0.24559158421E+03  0.93326161751E+02 0.  0.
          5    1    1    2  502    0  0.30053888400E+02 -0.24121319190E+02  0.10078081915E+03  0.10799971183E+03  0.47000000000E+01 0. -1.
         -5    1    1    2    0  502  0.59798697388E+02 -0.18358124221E+02 -0.26535960745E+02  0.68111321723E+02  0.47000000000E+01 0. -1.
        -11    1    3    3    0    0 -0.33609351271E+02 -0.21852174446E+02  0.25680120410E+02  0.47608556008E+02  0.00000000000E+00 0.  1.
         11    1    3    3    0    0 -0.56243234517E+02  0.64331617857E+02  0.17859289172E+03  0.19798302821E+03  0.00000000000E+00 0. -1.
<mgrwt>
<rscale>  0 0.15350546E+03</rscale>
<asrwt>0</asrwt>
<pdfrwt beam="1">  1        1 0.53863113E-01 0.15969595E+03</pdfrwt>
<pdfrwt beam="2">  1       -1 0.11014212E-01 0.15969595E+03</pdfrwt>
<totfact> 0.36723197E+03</totfact>
</mgrwt>
</event>
<event>
 7    1  0.5107591E-006  0.1354705E+03  0.7546771E-02  0.1231605E+00
         -2   -1    0    0    0  501 -0.00000000000E+00  0.00000000000E+00  0.75290095905E+02  0.75290095905E+02  0.00000000000E+00 0.  1.
          2   -1    0    0  501    0  0.00000000000E+00 -0.00000000000E+00 -0.28434129418E+03  0.28434129418E+03  0.00000000000E+00 0. -1.
         23    2    1    2    0    0 -0.14281785927E+02  0.50228139910E+02 -0.19723094132E+03  0.22364617332E+03  0.91600934374E+02 0.  0.
          5    1    1    2  502    0  0.37947864371E+02 -0.26921540602E+02 -0.60747101808E+02  0.76662312363E+02  0.47000000000E+01 0.  1.
         -5    1    1    2    0  502 -0.23666078444E+02 -0.23306599307E+02  0.48926844850E+02  0.59322904406E+02  0.47000000000E+01 0.  1.
        -11    1    3    3    0    0 -0.19765522476E+02  0.11701101456E+02 -0.36650960159E+00  0.22972287289E+02  0.00000000000E+00 0.  1.
         11    1    3    3    0    0  0.54837365487E+01  0.38527038454E+02 -0.19686443171E+03  0.20067388603E+03  0.00000000000E+00 0. -1.
<mgrwt>
<rscale>  0 0.12724327E+03</rscale>
<asrwt>0</asrwt>
<pdfrwt beam="2">  1        2 0.43744815E-01 0.13547052E+03</pdfrwt>
<pdfrwt beam="1">  1       -2 0.11583092E-01 0.13547052E+03</pdfrwt>
<totfact> 0.57993396E+03</totfact>
</mgrwt>
</event>
<event>
 7    1  0.5107591E-006  0.1438762E+03  0.7546771E-02  0.1218986E+00
          1   -1    0    0  501    0  0.00000000000E+00  0.00000000000E+00  0.58057977161E+02  0.58057977161E+02  0.00000000000E+00 0. -1.
         -1   -1    0    0    0  501 -0.00000000000E+00 -0.00000000000E+00 -0.30993534402E+03  0.30993534402E+03  0.00000000000E+00 0.  1.
         23    2    1    2    0    0 -0.61195269137E+02 -0.36479133242E+02 -0.63280752049E+02  0.13078237909E+03  0.89576721166E+02 0.  0.
          5    1    1    2  502    0 -0.27248559622E+02  0.35917314198E+02 -0.26529817127E+02  0.52521030621E+02  0.47000000000E+01 0.  1.
         -5    1    1    2    0  502  0.88443828758E+02  0.56181904370E+00 -0.16206679768E+03  0.18468991147E+03  0.47000000000E+01 0.  1.
        -11    1    3    3    0    0 -0.76415400348E+02 -0.35233828147E+02 -0.74054975895E+02  0.11209315551E+03  0.00000000000E+00 0.  1.
         11    1    3    3    0    0  0.15220131212E+02 -0.12453050950E+01  0.10774223846E+02  0.18689223589E+02  0.00000000000E+00 0. -1.
<mgrwt>
<rscale>  0 0.13587788E+03</rscale>
<asrwt>0</asrwt>
<pdfrwt beam="1">  1        1 0.89319964E-02 0.14387615E+03</pdfrwt>
<pdfrwt beam="2">  1       -1 0.47682361E-01 0.14387615E+03</pdfrwt>
<totfact> 0.32406742E+03</totfact>
</mgrwt>
</event>
<event>
 7    1  0.5107591E-006  0.1462375E+03  0.7546771E-02  0.1215314E+00
          2   -1    0    0  501    0  0.00000000000E+00  0.00000000000E+00  0.53711360679E+03  0.53711360679E+03  0.00000000000E+00 0. -1.
         -2   -1    0    0    0  501 -0.00000000000E+00 -0.00000000000E+00 -0.33639640863E+02  0.33639640863E+02  0.00000000000E+00 0.  1.
         23    2    1    2    0    0  0.34572020763E+02  0.67567297999E+02  0.27907212891E+03  0.30290701804E+03  0.90060224684E+02 0.  0.
          5    1    1    2  502    0  0.46010319286E+02 -0.33825274288E+02  0.70857567268E+02  0.91126195469E+02  0.47000000000E+01 0. -1.
         -5    1    1    2    0  502 -0.80582340049E+02 -0.33742023711E+02  0.15354426975E+03  0.17672003413E+03  0.47000000000E+01 0. -1.
        -11    1    3    3    0    0  0.54324478798E+02  0.26803734642E+02  0.22159674653E+03  0.22972746301E+03  0.00000000000E+00 0. -1.
         11    1    3    3    0    0 -0.19752458036E+02  0.40763563357E+02  0.57475382373E+02  0.73179555034E+02  0.00000000000E+00 0.  1.
<mgrwt>
<rscale>  0 0.13853491E+03</rscale>
<asrwt>0</asrwt>
<pdfrwt beam="1">  1        2 0.82632856E-01 0.14623754E+03</pdfrwt>
<pdfrwt beam="2">  1       -2 0.51753298E-02 0.14623754E+03</pdfrwt>
<totfact> 0.10207367E+04</totfact>
</mgrwt>
</event>
<event>
 7    1  0.5107591E-006  0.1953314E+03  0.7546771E-02  0.1158472E+00
          2   -1    0    0  501    0  0.00000000000E+00  0.00000000000E+00  0.13847211619E+04  0.13847211619E+04  0.00000000000E+00 0. -1.
         -2   -1    0    0    0  501 -0.00000000000E+00 -0.00000000000E+00 -0.25448520549E+02  0.25448520549E+02  0.00000000000E+00 0.  1.
         23    2    1    2    0    0 -0.31423180930E+02  0.14677398609E+03  0.76082049902E+03  0.78064659828E+03  0.89617299638E+02 0.  0.
          5    1    1    2  502    0  0.64174933830E+02 -0.10329800987E+03  0.26480200430E+03  0.29142939532E+03  0.47000000000E+01 0. -1.
         -5    1    1    2    0  502 -0.32751752901E+02 -0.43475976219E+02  0.33365013807E+03  0.33809368888E+03  0.47000000000E+01 0. -1.
        -11    1    3    3    0    0  0.21228361025E+02  0.86856851243E+02  0.30252879955E+03  0.31546541883E+03  0.00000000000E+00 0. -1.
         11    1    3    3    0    0 -0.52651541955E+02  0.59917134849E+02  0.45829169947E+03  0.46518117946E+03  0.00000000000E+00 0.  1.
<mgrwt>
<rscale>  0 0.18998768E+03</rscale>
<asrwt>0</asrwt>
<pdfrwt beam="1">  1        2 0.21303397E+00 0.19533138E+03</pdfrwt>
<pdfrwt beam="2">  1       -2 0.39151581E-02 0.19533138E+03</pdfrwt>
<totfact> 0.44461348E+03</totfact>
</mgrwt>
</event>
<event>
 7    1  0.5107591E-006  0.1695450E+03  0.7546771E-02  0.1184840E+00
          2   -1    0    0  501    0  0.00000000000E+00  0.00000000000E+00  0.77580174015E+03  0.77580174015E+03  0.00000000000E+00 0.  1.
         -2   -1    0    0    0  501 -0.00000000000E+00 -0.00000000000E+00 -0.33300110685E+02  0.33300110685E+02  0.00000000000E+00 0. -1.
         23    2    1    2    0    0 -0.11197772034E+03  0.24066640092E+02  0.41884801674E+03  0.44372921089E+03  0.91344066338E+02 0.  0.
          5    1    1    2  502    0  0.55047975379E+02  0.50658345909E+02  0.15798663156E+03  0.17486684464E+03  0.47000000000E+01 0.  1.
         -5    1    1    2    0  502  0.56929744960E+02 -0.74724986001E+02  0.16566698116E+03  0.19050579530E+03  0.47000000000E+01 0.  1.
        -11    1    3    3    0    0  0.97890566598E+01 -0.14688206891E+02  0.35539263054E+02  0.39681334030E+02  0.00000000000E+00 0.  1.
         11    1    3    3    0    0 -0.12176677700E+03  0.38754846983E+02  0.38330875369E+03  0.40404787686E+03  0.00000000000E+00 0. -1.
<mgrwt>
<rscale>  0 0.16346410E+03</rscale>
<asrwt>0</asrwt>
<pdfrwt beam="1">  1        2 0.11935410E+00 0.16954499E+03</pdfrwt>
<pdfrwt beam="2">  1       -2 0.51230945E-02 0.16954499E+03</pdfrwt>
<totfact> 0.67978382E+03</totfact>
</mgrwt>
</event>
<event>
 7    1  0.5107591E-006  0.1313664E+03  0.7546771E-02  0.1240692E+00
          1   -1    0    0  501    0  0.00000000000E+00  0.00000000000E+00  0.22852840738E+03  0.22852840738E+03  0.00000000000E+00 0. -1.
         -1   -1    0    0    0  501 -0.00000000000E+00 -0.00000000000E+00 -0.56571518608E+02  0.56571518608E+02  0.00000000000E+00 0.  1.
         23    2    1    2    0    0  0.25085699368E+02  0.31615179895E+02  0.73633674983E+02  0.12101277355E+03  0.87139895329E+02 0.  0.
          5    1    1    2  502    0 -0.24421474330E+02 -0.67867525592E+02  0.10444464382E+03  0.12701646768E+03  0.47000000000E+01 0.  1.
         -5    1    1    2    0  502 -0.66422503833E+00  0.36252345697E+02 -0.61214300271E+01  0.37070684766E+02  0.47000000000E+01 0.  1.
        -11    1    3    3    0    0  0.31676929220E+02  0.52253894022E+02  0.21876008508E+02  0.64903443926E+02  0.00000000000E+00 0.  1.
         11    1    3    3    0    0 -0.65912298518E+01 -0.20638714127E+02  0.51757666476E+02  0.56109329623E+02  0.00000000000E+00 0. -1.
<mgrwt>
<rscale>  0 0.12146956E+03</rscale>
<asrwt>0</asrwt>
<pdfrwt beam="1">  1        1 0.35158216E-01 0.13136643E+03</pdfrwt>
<pdfrwt beam="2">  1       -1 0.87033106E-02 0.13136643E+03</pdfrwt>
<totfact> 0.88303078E+03</totfact>
</mgrwt>
</event>
<event>
 7    1  0.5107591E-006  0.1331643E+03  0.7546771E-02  0.1235732E+00
         -1   -1    0    0    0  501 -0.00000000000E+00  0.00000000000E+00  0.65937530338E+03  0.65937530338E+03  0.00000000000E+00 0.  1.
          1   -1    0    0  501    0  0.00000000000E+00 -0.00000000000E+00 -0.22034684358E+02  0.22034684358E+02  0.00000000000E+00 0. -1.
         23    2    1    2    0    0 -0.21232197492E+02 -0.40708852014E+02  0.20411131018E+03  0.22817674512E+03  0.91077896490E+02 0.  0.
          5    1    1    2  502    0  0.32411331560E+02  0.73898581775E+02  0.17705220097E+03  0.19463059027E+03  0.47000000000E+01 0. -1.
         -5    1    1    2    0  502 -0.11179134068E+02 -0.33189729761E+02  0.25617710788E+03  0.25860265235E+03  0.47000000000E+01 0. -1.
        -11    1    3    3    0    0 -0.26936021435E+02  0.21055342602E+02  0.11220358673E+03  0.11729672450E+03  0.00000000000E+00 0.  1.
         11    1    3    3    0    0  0.57038239432E+01 -0.61764194616E+02  0.91907723448E+02  0.11088002062E+03  0.00000000000E+00 0. -1.
<mgrwt>
<rscale>  0 0.12457669E+03</rscale>
<asrwt>0</asrwt>
<pdfrwt beam="2">  1        1 0.33899519E-02 0.13316433E+03</pdfrwt>
<pdfrwt beam="1">  1       -1 0.10144234E+00 0.13316433E+03</pdfrwt>
<totfact> 0.27003545E+03</totfact>
</mgrwt>
</event>
<event>
 7    1  0.5107591E-006  0.1588823E+03  0.7546771E-02  0.1197917E+00
          2   -1    0    0  501    0  0.00000000000E+00  0.00000000000E+00  0.52317436755E+03  0.52317436755E+03  0.00000000000E+00 0. -1.
         -2   -1    0    0    0  501 -0.00000000000E+00 -0.00000000000E+00 -0.65328051004E+02  0.65328051004E+02  0.00000000000E+00 0.  1.
         23    2    1    2    0    0 -0.36117478780E+02 -0.91193406000E+02  0.39622218026E+03  0.41808789974E+03  0.90469697718E+02 0.  0.
          5    1    1    2  502    0  0.70688022432E+02  0.89339013650E+02  0.19479144797E+02  0.11567101174E+03  0.47000000000E+01 0.  1.
         -5    1    1    2    0  502 -0.34570543652E+02  0.18543923503E+01  0.42144991493E+02  0.54743507080E+02  0.47000000000E+01 0.  1.
        -11    1    3    3    0    0 -0.12452895601E+01 -0.97807894921E+02  0.29862532462E+03  0.31423720270E+03  0.00000000000E+00 0. -1.
         11    1    3    3    0    0 -0.34872189220E+02  0.66144889212E+01  0.97596855641E+02  0.10385069704E+03  0.00000000000E+00 0.  1.
<mgrwt>
<rscale>  0 0.15209879E+03</rscale>
<asrwt>0</asrwt>
<pdfrwt beam="1">  1        2 0.80488361E-01 0.15888226E+03</pdfrwt>
<pdfrwt beam="2">  1       -2 0.10050470E-01 0.15888226E+03</pdfrwt>
<totfact> 0.38008171E+03</totfact>
</mgrwt>
</event>
<event>
 7    1  0.5107591E-006  0.1581674E+03  0.7546771E-02  0.1198481E+00
          3   -1    0    0  501    0  0.00000000000E+00  0.00000000000E+00  0.13323134986E+03  0.13323134986E+03  0.00000000000E+00 0. -1.
         -3   -1    0    0    0  501 -0.00000000000E+00 -0.00000000000E+00 -0.16333896348E+03  0.16333896348E+03  0.00000000000E+00 0.  1.
         23    2    1    2    0    0  0.43799934249E+02 -0.86445083480E+02  0.81181448652E+01  0.13384923178E+03  0.91970244506E+02 0.  0.
          5    1    1    2  502    0  0.38825192119E+00  0.36952201224E+02  0.43550695281E+02  0.57309414360E+02  0.47000000000E+01 0.  1.
         -5    1    1    2    0  502 -0.44188186171E+02  0.49492882256E+02 -0.81776453770E+02  0.10541166720E+03  0.47000000000E+01 0.  1.
        -11    1    3    3    0    0  0.65003190991E+02 -0.32130158500E+02  0.17999331571E+02  0.74711029047E+02  0.00000000000E+00 0. -1.
         11    1    3    3    0    0 -0.21203256741E+02 -0.54314924980E+02 -0.98811867063E+01  0.59138202736E+02  0.00000000000E+00 0.  1.
<mgrwt>
<rscale>  0 0.15163230E+03</rscale>
<asrwt>0</asrwt>
<pdfrwt beam="1">  1        3 0.20497131E-01 0.15816745E+03</pdfrwt>
<pdfrwt beam="2">  1       -3 0.25129071E-01 0.15816745E+03</pdfrwt>
<totfact> 0.75597920E+02</totfact>
</mgrwt>
</event>
<event>
 7    1  0.5107591E-006  0.1894771E+03  0.7546771E-02  0.1163494E+00
          1   -1    0    0  501    0  0.00000000000E+00  0.00000000000E+00  0.63167293338E+03  0.63167293338E+03  0.00000000000E+00 0. -1.
         -1   -1    0    0    0  501 -0.00000000000E+00 -0.00000000000E+00 -0.51455551580E+02  0.51455551580E+02  0.00000000000E+00 0.  1.
         23    2    1    2    0    0  0.23924157568E+02  0.14037191574E+03  0.29547241369E+03  0.34110321290E+03  0.93652627047E+02 0.  0.
          5    1    1    2  502    0 -0.55271906897E+02 -0.68780712003E+02  0.23027621772E+03  0.24664751465E+03  0.47000000000E+01 0. -1.
         -5    1    1    2    0  502  0.31347749328E+02 -0.71591203735E+02  0.54468750390E+02  0.95377757413E+02  0.47000000000E+01 0. -1.
        -11    1    3    3    0    0 -0.13208522544E+02  0.10177362950E+03  0.12134325849E+03  0.15892301001E+03  0.00000000000E+00 0.  1.
         11    1    3    3    0    0  0.37132680113E+02  0.38598286238E+02  0.17412915520E+03  0.18218020289E+03  0.00000000000E+00 0. -1.
<mgrwt>
<rscale>  0 0.18452539E+03</rscale>
<asrwt>0</asrwt>
<pdfrwt beam="1">  1        1 0.97180446E-01 0.18947715E+03</pdfrwt>
<pdfrwt beam="2">  1       -1 0.79162391E-02 0.18947715E+03</pdfrwt>
<totfact> 0.28290375E+03</totfact>
</mgrwt>
</event>
<event>
 7    1  0.5107591E-006  0.1869260E+03  0.7546771E-02  0.1166287E+00
          1   -1    0    0  501    0  0.00000000000E+00  0.00000000000E+00  0.23308598055E+03  0.23308598055E+03  0.00000000000E+00 0.  1.
         -1   -1    0    0    0  501 -0.00000000000E+00 -0.00000000000E+00 -0.16126155809E+03  0.16126155809E+03  0.00000000000E+00 0. -1.
         23    2    1    2    0    0 -0.46759146014E+02 -0.13088268295E+03  0.11525950950E+03  0.20244151288E+03  0.91548441683E+02 0.  0.
          5    1    1    2  502    0  0.50963300862E+02  0.11160689549E+03  0.20812340675E+02  0.12453353235E+03  0.47000000000E+01 0. -1.
         -5    1    1    2    0  502 -0.42041548477E+01  0.19275787459E+02 -0.64247427719E+02  0.67372493413E+02  0.47000000000E+01 0. -1.
        -11    1    3    3    0    0  0.43220048211E+01 -0.10358264161E+03  0.96301138508E+02  0.14149894928E+03  0.00000000000E+00 0.  1.
         11    1    3    3    0    0 -0.51081150835E+02 -0.27300041338E+02  0.18958370996E+02  0.60942563603E+02  0.00000000000E+00 0. -1.
<mgrwt>
<rscale>  0 0.18157577E+03</rscale>
<asrwt>0</asrwt>
<pdfrwt beam="1">  1        1 0.35859382E-01 0.18692596E+03</pdfrwt>
<pdfrwt beam="2">  1       -1 0.24809471E-01 0.18692596E+03</pdfrwt>
<totfact> 0.16848433E+03</totfact>
</mgrwt>
</event>
<event>
 7    1  0.5107591E-006  0.2737391E+03  0.7546771E-02  0.1101174E+00
          1   -1    0    0  501    0  0.00000000000E+00  0.00000000000E+00  0.29231445577E+03  0.29231445577E+03  0.00000000000E+00 0. -1.
         -1   -1    0    0    0  501 -0.00000000000E+00 -0.00000000000E+00 -0.24384837102E+03  0.24384837102E+03  0.00000000000E+00 0.  1.
         23    2    1    2    0    0 -0.23877443850E+03  0.47922154545E+02  0.34367479484E+02  0.26206086875E+03  0.90471044569E+02 0.  0.
          5    1    1    2  502    0  0.23738408165E+03 -0.69798185344E+02  0.25790899011E+02  0.24881770309E+03  0.47000000000E+01 0. -1.
         -5    1    1    2    0  502  0.13903568444E+01  0.21876030799E+02 -0.11692293736E+02  0.25284254952E+02  0.47000000000E+01 0. -1.
        -11    1    3    3    0    0 -0.12556209110E+03 -0.19985345322E+02  0.26037855032E+02  0.12978144183E+03  0.00000000000E+00 0. -1.
         11    1    3    3    0    0 -0.11321234740E+03  0.67907499867E+02  0.83296244518E+01  0.13227942692E+03  0.00000000000E+00 0.  1.
<mgrwt>
<rscale>  0 0.27018512E+03</rscale>
<asrwt>0</asrwt>
<pdfrwt beam="1">  1        1 0.44971455E-01 0.27373913E+03</pdfrwt>
<pdfrwt beam="2">  1       -1 0.37515134E-01 0.27373913E+03</pdfrwt>
<totfact> 0.62897476E+02</totfact>
</mgrwt>
</event>
<event>
 7    1  0.5107591E-006  0.1138047E+03  0.7546771E-02  0.1266774E+00
         -2   -1    0    0    0  501 -0.00000000000E+00  0.00000000000E+00  0.49049415605E+02  0.49049415605E+02  0.00000000000E+00 0.  1.
          2   -1    0    0  501    0  0.00000000000E+00 -0.00000000000E+00 -0.38406659318E+03  0.38406659318E+03  0.00000000000E+00 0. -1.
         23    2    1    2    0    0  0.13674902578E+02 -0.69368250563E+01 -0.30208885029E+03  0.31464333139E+03  0.86646581109E+02 0.  0.
          5    1    1    2  502    0  0.32805661582E+02 -0.26366108565E+02 -0.42852664259E+02  0.60248020272E+02  0.47000000000E+01 0. -1.
         -5    1    1    2    0  502 -0.46480564160E+02  0.33302933621E+02  0.99243369743E+01  0.58224657120E+02  0.47000000000E+01 0.  1.
        -11    1    3    3    0    0  0.36717827494E+02  0.27658334419E+02 -0.17455041270E+03  0.18050215759E+03  0.00000000000E+00 0. -1.
         11    1    3    3    0    0 -0.23042924916E+02 -0.34595159475E+02 -0.12753843758E+03  0.13414117380E+03  0.00000000000E+00 0.  1.
<mgrwt>
<rscale>  0 0.10671659E+03</rscale>
<asrwt>0</asrwt>
<pdfrwt beam="2">  1        2 0.59087170E-01 0.11380466E+03</pdfrwt>
<pdfrwt beam="1">  1       -2 0.75460638E-02 0.11380466E+03</pdfrwt>
<totfact> 0.81371774E+03</totfact>
</mgrwt>
</event>
<event>
 7    1  0.5107591E-006  0.1307173E+03  0.7546771E-02  0.1240330E+00
         -1   -1    0    0    0  501 -0.00000000000E+00  0.00000000000E+00  0.11957802022E+03  0.11957802022E+03  0.00000000000E+00 0.  1.
          1   -1    0    0  501    0  0.00000000000E+00 -0.00000000000E+00 -0.13076974433E+03  0.13076974433E+03  0.00000000000E+00 0. -1.
         23    2    1    2    0    0  0.38254378503E+02  0.64742832283E+00 -0.54927357501E+02  0.11250795689E+03  0.90427922255E+02 0.  0.
          5    1    1    2  502    0  0.29765120799E+02  0.28359410393E+02  0.48302446099E+02  0.63603733170E+02  0.47000000000E+01 0.  1.
         -5    1    1    2    0  502 -0.68019499301E+02 -0.29006838716E+02 -0.45668127142E+01  0.74236074491E+02  0.47000000000E+01 0.  1.
        -11    1    3    3    0    0 -0.71390734581E+01  0.34549898839E+02 -0.41144895869E+02  0.54199301986E+02  0.00000000000E+00 0.  1.
         11    1    3    3    0    0  0.45393451961E+02 -0.33902470516E+02 -0.13782461631E+02  0.58308654903E+02  0.00000000000E+00 0. -1.
<mgrwt>
<rscale>  0 0.12169288E+03</rscale>
<asrwt>0</asrwt>
<pdfrwt beam="2">  1        1 0.20118422E-01 0.13071728E+03</pdfrwt>
<pdfrwt beam="1">  1       -1 0.18396619E-01 0.13071728E+03</pdfrwt>
<totfact> 0.55666092E+03</totfact>
</mgrwt>
</event>
<event>
 7    1  0.5107591E-006  0.1283325E+03  0.7546771E-02  0.1245068E+00
          1   -1    0    0  501    0  0.00000000000E+00  0.00000000000E+00  0.21638228626E+03  0.21638228626E+03  0.00000000000E+00 0. -1.
         -1   -1    0    0    0  501 -0.00000000000E+00 -0.00000000000E+00 -0.19150662753E+03  0.19150662753E+03  0.00000000000E+00 0.  1.
         23    2    1    2    0    0 -0.74278752209E+01 -0.28076336197E+02  0.18202596916E+03  0.20499621854E+03  0.89702520472E+02 0.  0.
          5    1    1    2  502    0  0.18554904906E+02  0.32633750561E+02 -0.17601408981E+03  0.18003415227E+03  0.47000000000E+01 0.  1.
         -5    1    1    2    0  502 -0.11127029685E+02 -0.45574143642E+01  0.18863779374E+02  0.22858542988E+02  0.47000000000E+01 0.  1.
        -11    1    3    3    0    0  0.18601143083E+02  0.15225989138E+02  0.13100721307E+03  0.13319430598E+03  0.00000000000E+00 0. -1.
         11    1    3    3    0    0 -0.26029018303E+02 -0.43302325334E+02  0.51018756097E+02  0.71801912557E+02  0.00000000000E+00 0.  1.
<mgrwt>
<rscale>  0 0.11881332E+03</rscale>
<asrwt>0</asrwt>
<pdfrwt beam="1">  1        1 0.33289583E-01 0.12833248E+03</pdfrwt>
<pdfrwt beam="2">  1       -1 0.29462558E-01 0.12833248E+03</pdfrwt>
<totfact> 0.13745015E+03</totfact>
</mgrwt>
</event>
<event>
 7    1  0.5107591E-006  0.1447314E+03  0.7546771E-02  0.1217383E+00
          1   -1    0    0  501    0  0.00000000000E+00  0.00000000000E+00  0.62812670850E+02  0.62812670850E+02  0.00000000000E+00 0. -1.
         -1   -1    0    0    0  501 -0.00000000000E+00 -0.00000000000E+00 -0.32316856159E+03  0.32316856159E+03  0.00000000000E+00 0.  1.
         23    2    1    2    0    0 -0.41985290265E+02 -0.59664970702E+02 -0.41260980276E+02  0.12339835818E+03  0.90564965527E+02 0.  0.
          5    1    1    2  502    0  0.52332951336E+02  0.93625507621E+02 -0.17982049104E+03  0.20943250099E+03  0.47000000000E+01 0.  1.
         -5    1    1    2    0  502 -0.10347661071E+02 -0.33960536919E+02 -0.39274419420E+02  0.53150373265E+02  0.47000000000E+01 0.  1.
        -11    1    3    3    0    0  0.15868533147E+02 -0.54025478601E+02 -0.93236821997E+01  0.57074457790E+02  0.00000000000E+00 0.  1.
         11    1    3    3    0    0 -0.57853823413E+02 -0.56394921011E+01 -0.31937298076E+02  0.66323900390E+02  0.00000000000E+00 0. -1.
<mgrwt>
<rscale>  0 0.13702917E+03</rscale>
<asrwt>0</asrwt>
<pdfrwt beam="1">  1        1 0.96634879E-02 0.14473143E+03</pdfrwt>
<pdfrwt beam="2">  1       -1 0.49718240E-01 0.14473143E+03</pdfrwt>
<totfact> 0.27049830E+03</totfact>
</mgrwt>
</event>
<event>
 7    1  0.5107591E-006  0.1415962E+03  0.7546771E-02  0.1221568E+00
          2   -1    0    0  501    0  0.00000000000E+00  0.00000000000E+00  0.32256343767E+03  0.32256343767E+03  0.00000000000E+00 0. -1.
         -2   -1    0    0    0  501 -0.00000000000E+00 -0.00000000000E+00 -0.73235460340E+02  0.73235460340E+02  0.00000000000E+00 0.  1.
         23    2    1    2    0    0  0.10034810581E+02  0.65748876092E+02  0.22502008373E+03  0.25213134873E+03  0.92263572427E+02 0.  0.
          5    1    1    2  502    0  0.44403921626E+02  0.11682817239E+02  0.14390045520E+01  0.46177453465E+02  0.47000000000E+01 0. -1.
         -5    1    1    2    0  502 -0.54438732208E+02 -0.77431693331E+02  0.22868889045E+02  0.97490095818E+02  0.47000000000E+01 0. -1.
        -11    1    3    3    0    0 -0.25802769133E+02  0.34630704977E+02  0.33051872313E+02  0.54382854702E+02  0.00000000000E+00 0.  1.
         11    1    3    3    0    0  0.35837579715E+02  0.31118171115E+02  0.19196821142E+03  0.19774849402E+03  0.00000000000E+00 0. -1.
<mgrwt>
<rscale>  0 0.13404929E+03</rscale>
<asrwt>0</asrwt>
<pdfrwt beam="1">  1        2 0.49625144E-01 0.14159623E+03</pdfrwt>
<pdfrwt beam="2">  1       -2 0.11266994E-01 0.14159623E+03</pdfrwt>
<totfact> 0.53154207E+03</totfact>
</mgrwt>
</event>
<event>
 7    1  0.5107591E-006  0.1846421E+03  0.7546771E-02  0.1168817E+00
         -2   -1    0    0    0  501 -0.00000000000E+00  0.00000000000E+00  0.57046235228E+02  0.57046235228E+02  0.00000000000E+00 0.  1.
          2   -1    0    0  501    0  0.00000000000E+00 -0.00000000000E+00 -0.85764359231E+03  0.85764359231E+03  0.00000000000E+00 0. -1.
         23    2    1    2    0    0 -0.58515571527E+02  0.12265229762E+03 -0.66744847099E+03  0.68704685357E+03  0.89879137452E+02 0.  0.
          5    1    1    2  502    0  0.62100789789E+02 -0.10459520316E+03 -0.33582054807E+02  0.12627948773E+03  0.47000000000E+01 0.  1.
         -5    1    1    2    0  502 -0.35852182614E+01 -0.18057094465E+02 -0.99566831282E+02  0.10136348624E+03  0.47000000000E+01 0.  1.
        -11    1    3    3    0    0 -0.74313256352E+02  0.52480276232E+02 -0.37869153744E+03  0.38946619878E+03  0.00000000000E+00 0. -1.
         11    1    3    3    0    0  0.15797684825E+02  0.70172021392E+02 -0.28875693356E+03  0.29758065480E+03  0.00000000000E+00 0.  1.
<mgrwt>
<rscale>  0 0.17895660E+03</rscale>
<asrwt>0</asrwt>
<pdfrwt beam="2">  1        2 0.13194516E+00 0.18464208E+03</pdfrwt>
<pdfrwt beam="1">  1       -2 0.87763445E-02 0.18464208E+03</pdfrwt>
<totfact> 0.26245023E+03</totfact>
</mgrwt>
</event>
<event>
 7    1  0.5107591E-006  0.1387210E+03  0.7546771E-02  0.1226058E+00
         -1   -1    0    0    0  501 -0.00000000000E+00  0.00000000000E+00  0.76005411504E+02  0.76005411504E+02  0.00000000000E+00 0.  1.
          1   -1    0    0  501    0  0.00000000000E+00 -0.00000000000E+00 -0.20397429472E+03  0.20397429472E+03  0.00000000000E+00 0. -1.
         23    2    1    2    0    0 -0.51849639852E+02 -0.30443745848E+02 -0.51630519267E+02  0.12164129504E+03  0.92280481822E+02 0.  0.
          5    1    1    2  502    0  0.35444304315E+02  0.76758007200E+02 -0.27828260378E+02  0.89132443327E+02  0.47000000000E+01 0. -1.
         -5    1    1    2    0  502  0.16405335537E+02 -0.46314261352E+02 -0.48510103574E+02  0.69205967860E+02  0.47000000000E+01 0. -1.
        -11    1    3    3    0    0  0.22184032794E+02 -0.28401169066E+02 -0.15364023937E+02  0.39176663295E+02  0.00000000000E+00 0.  1.
         11    1    3    3    0    0 -0.74033672647E+02 -0.20425767817E+01 -0.36266495330E+02  0.82464631746E+02  0.00000000000E+00 0. -1.
<mgrwt>
<rscale>  0 0.13094629E+03</rscale>
<asrwt>0</asrwt>
<pdfrwt beam="2">  1        1 0.31380660E-01 0.13872097E+03</pdfrwt>
<pdfrwt beam="1">  1       -1 0.11693141E-01 0.13872097E+03</pdfrwt>
<totfact> 0.65012027E+03</totfact>
</mgrwt>
</event>
<event>
 7    1  0.5107591E-006  0.4534941E+03  0.7546771E-02  0.1027245E+00
          1   -1    0    0  501    0  0.00000000000E+00  0.00000000000E+00  0.12912004118E+04  0.12912004118E+04  0.00000000000E+00 0. -1.
         -1   -1    0    0    0  501 -0.00000000000E+00 -0.00000000000E+00 -0.18168337861E+03  0.18168337861E+03  0.00000000000E+00 0.  1.
         23    2    1    2    0    0  0.27213142689E+03 -0.34059458299E+03  0.82414034756E+03  0.93706965007E+03  0.93978897313E+02 0.  0.
          5    1    1    2  502    0 -0.24393553932E+03  0.27798599923E+03  0.18354807303E+03  0.41290767518E+03  0.47000000000E+01 0. -1.
         -5    1    1    2    0  502 -0.28195887567E+02  0.62608583767E+02  0.10182861265E+03  0.12290646521E+03  0.47000000000E+01 0. -1.
        -11    1    3    3    0    0  0.12226376596E+03 -0.20198938230E+03  0.51588323597E+03  0.56734791107E+03  0.00000000000E+00 0. -1.
         11    1    3    3    0    0  0.14986766092E+03 -0.13860520069E+03  0.30825711159E+03  0.36972173900E+03  0.00000000000E+00 0.  1.
<mgrwt>
<rscale>  0 0.45160214E+03</rscale>
<asrwt>0</asrwt>
<pdfrwt beam="1">  1        1 0.19864621E+00 0.45349415E+03</pdfrwt>
<pdfrwt beam="2">  1       -1 0.27951290E-01 0.45349415E+03</pdfrwt>
<totfact> 0.11164484E+02</totfact>
</mgrwt>
</event>
<event>
 7    1  0.5107591E-006  0.1892045E+03  0.7546771E-02  0.1164671E+00
         -1   -1    0    0    0  501 -0.00000000000E+00  0.00000000000E+00  0.19327256030E+03  0.19327256030E+03  0.00000000000E+00 0.  1.
          1   -1    0    0  501    0  0.00000000000E+00 -0.00000000000E+00 -0.16514788373E+03  0.16514788373E+03  0.00000000000E+00 0. -1.
         23    2    1    2    0    0 -0.12012335903E+02 -0.14152349594E+03 -0.33808186361E+01  0.16661084719E+03  0.87031881235E+02 0.  0.
          5    1    1    2  502    0 -0.17439700433E+02  0.20901613748E+02  0.58466280701E+02  0.64663873898E+02  0.47000000000E+01 0. -1.
         -5    1    1    2    0  502  0.29452036336E+02  0.12062188219E+03 -0.26960785498E+02  0.12714572294E+03  0.47000000000E+01 0. -1.
        -11    1    3    3    0    0 -0.42156303606E+02 -0.64545057867E+02 -0.25206036536E+02  0.81108339316E+02  0.00000000000E+00 0. -1.
         11    1    3    3    0    0  0.30143967704E+02 -0.76978438071E+02  0.21825217900E+02  0.85502507877E+02  0.00000000000E+00 0.  1.
<mgrwt>
<rscale>  0 0.18327447E+03</rscale>
<asrwt>0</asrwt>
<pdfrwt beam="2">  1        1 0.25407367E-01 0.18920445E+03</pdfrwt>
<pdfrwt beam="1">  1       -1 0.29734240E-01 0.18920445E+03</pdfrwt>
<totfact> 0.19195358E+03</totfact>
</mgrwt>
</event>
<event>
 7    1  0.5107591E-006  0.1366089E+03  0.7546771E-02  0.1229574E+00
         -1   -1    0    0    0  501 -0.00000000000E+00  0.00000000000E+00  0.23086562244E+03  0.23086562244E+03  0.00000000000E+00 0.  1.
          1   -1    0    0  501    0  0.00000000000E+00 -0.00000000000E+00 -0.64477430652E+02  0.64477430652E+02  0.00000000000E+00 0. -1.
         23    2    1    2    0    0 -0.52913490867E+02 -0.15601992652E+02  0.78809009259E+02  0.13307139240E+03  0.91944960958E+02 0.  0.
          5    1    1    2  502    0  0.71024944067E+02  0.56782701100E+02  0.53197490276E+02  0.10545558684E+03  0.47000000000E+01 0. -1.
         -5    1    1    2    0  502 -0.18111453200E+02 -0.41180708449E+02  0.34381692254E+02  0.56816073849E+02  0.47000000000E+01 0. -1.
        -11    1    3    3    0    0  0.11029854549E+02  0.27813277220E+02  0.22993968398E+02  0.37735376821E+02  0.00000000000E+00 0.  1.
         11    1    3    3    0    0 -0.63943345416E+02 -0.43415269872E+02  0.55815040860E+02  0.95336015583E+02  0.00000000000E+00 0. -1.
<mgrwt>
<rscale>  0 0.12858279E+03</rscale>
<asrwt>0</asrwt>
<pdfrwt beam="2">  1        1 0.99196048E-02 0.13660885E+03</pdfrwt>
<pdfrwt beam="1">  1       -1 0.35517788E-01 0.13660885E+03</pdfrwt>
<totfact> 0.47236119E+03</totfact>
</mgrwt>
</event>
<event>
 7    1  0.5107591E-006  0.2014172E+03  0.7546771E-02  0.1151266E+00
          1   -1    0    0  501    0  0.00000000000E+00  0.00000000000E+00  0.66657360109E+03  0.66657360109E+03  0.00000000000E+00 0. -1.
         -1   -1    0    0    0  501 -0.00000000000E+00 -0.00000000000E+00 -0.62555618227E+02  0.62555618227E+02  0.00000000000E+00 0.  1.
         23    2    1    2    0    0  0.15610964832E+03  0.23623498408E+02  0.40048756551E+03  0.44278414315E+03  0.10363018536E+03 0.  0.
          5    1    1    2  502    0 -0.17451325921E+03 -0.33694702425E+02  0.19297005721E+03  0.26239234667E+03  0.47000000000E+01 0.  1.
         -5    1    1    2    0  502  0.18403610890E+02  0.10071204017E+02  0.10560360147E+02  0.23952729501E+02  0.47000000000E+01 0.  1.
        -11    1    3    3    0    0  0.14316820813E+03  0.56186560567E+02  0.32369480216E+03  0.35837465083E+03  0.00000000000E+00 0. -1.
         11    1    3    3    0    0  0.12941440196E+02 -0.32563062159E+02  0.76792763350E+02  0.84409492325E+02  0.00000000000E+00 0.  1.
<mgrwt>
<rscale>  0 0.19820128E+03</rscale>
<asrwt>0</asrwt>
<pdfrwt beam="1">  1        1 0.10254978E+00 0.20141716E+03</pdfrwt>
<pdfrwt beam="2">  1       -1 0.96239417E-02 0.20141716E+03</pdfrwt>
<totfact> 0.19477892E+03</totfact>
</mgrwt>
</event>
<event>
 7    1  0.5107591E-006  0.1688240E+03  0.7546771E-02  0.1185875E+00
         -4   -1    0    0    0  501 -0.00000000000E+00  0.00000000000E+00  0.20429140905E+03  0.20429140905E+03  0.00000000000E+00 0. -1.
          4   -1    0    0  501    0  0.00000000000E+00 -0.00000000000E+00 -0.12787405944E+03  0.12787405944E+03  0.00000000000E+00 0.  1.
         23    2    1    2    0    0  0.11120375133E+03 -0.22590101534E+02 -0.42380183096E+01  0.14506434078E+03  0.90272449668E+02 0.  0.
          5    1    1    2  502    0 -0.61685693837E+02 -0.10563481116E+02  0.10518621543E+03  0.12248649670E+03  0.47000000000E+01 0. -1.
         -5    1    1    2    0  502 -0.49518057497E+02  0.33153582649E+02 -0.24530847503E+02  0.64614631006E+02  0.47000000000E+01 0. -1.
        -11    1    3    3    0    0  0.48372793790E+02 -0.10865948401E+02 -0.46877614456E+02  0.68231273994E+02  0.00000000000E+00 0.  1.
         11    1    3    3    0    0  0.62830957544E+02 -0.11724153133E+02  0.42639596146E+02  0.76833066788E+02  0.00000000000E+00 0. -1.
<mgrwt>
<rscale>  0 0.16252473E+03</rscale>
<asrwt>0</asrwt>
<pdfrwt beam="2">  1        4 0.19672932E-01 0.16882400E+03</pdfrwt>
<pdfrwt beam="1">  1       -4 0.31429448E-01 0.16882400E+03</pdfrwt>
<totfact> 0.39097731E+02</totfact>
</mgrwt>
</event>
<event>
 7    1  0.5107591E-006  0.1338763E+03  0.7546771E-02  0.1234997E+00
         -2   -1    0    0    0  501 -0.00000000000E+00  0.00000000000E+00  0.18112927437E+03  0.18112927437E+03  0.00000000000E+00 0.  1.
          2   -1    0    0  501    0  0.00000000000E+00 -0.00000000000E+00 -0.77295628533E+02  0.77295628533E+02  0.00000000000E+00 0. -1.
         23    2    1    2    0    0 -0.12588470773E+02 -0.46241394772E+02  0.33948813755E+02  0.10740582213E+03  0.89926372579E+02 0.  0.
          5    1    1    2  502    0  0.50037498906E+02  0.70762586914E+02  0.33102937594E+02  0.92892354265E+02  0.47000000000E+01 0. -1.
         -5    1    1    2    0  502 -0.37449028133E+02 -0.24521192142E+02  0.36781894484E+02  0.58126726503E+02  0.47000000000E+01 0. -1.
        -11    1    3    3    0    0  0.27765386887E+02 -0.71543825873E+01  0.41790526817E+02  0.50680864543E+02  0.00000000000E+00 0.  1.
         11    1    3    3    0    0 -0.40353857659E+02 -0.39087012184E+02 -0.78417130624E+01  0.56724957587E+02  0.00000000000E+00 0. -1.
<mgrwt>
<rscale>  0 0.12504628E+03</rscale>
<asrwt>0</asrwt>
<pdfrwt beam="2">  1        2 0.11891635E-01 0.13387633E+03</pdfrwt>
<pdfrwt beam="1">  1       -2 0.27866042E-01 0.13387633E+03</pdfrwt>
<totfact> 0.57313485E+03</totfact>
</mgrwt>
</event>
<event>
 7    1  0.5107591E-006  0.1637066E+03  0.7546771E-02  0.1191326E+00
          2   -1    0    0  501    0  0.00000000000E+00  0.00000000000E+00  0.32448008065E+02  0.32448008065E+02  0.00000000000E+00 0. -1.
         -2   -1    0    0    0  501 -0.00000000000E+00 -0.00000000000E+00 -0.87829331608E+03  0.87829331608E+03  0.00000000000E+00 0.  1.
         23    2    1    2    0    0  0.61571520054E+02 -0.85932514862E+02 -0.20135104395E+03  0.24578065478E+03  0.93222519670E+02 0.  0.
          5    1    1    2  502    0 -0.77329062274E+02  0.80613198661E+02 -0.30201604480E+03  0.32204666275E+03  0.47000000000E+01 0. -1.
         -5    1    1    2    0  502  0.15757542219E+02  0.53193162010E+01 -0.34247821927E+03  0.34291400662E+03  0.47000000000E+01 0. -1.
        -11    1    3    3    0    0  0.10106590882E+02 -0.11993704194E+02  0.81909642570E+01  0.17694180258E+02  0.00000000000E+00 0. -1.
         11    1    3    3    0    0  0.51464929173E+02 -0.73938810668E+02 -0.20954200821E+03  0.22808647453E+03  0.00000000000E+00 0.  1.
<mgrwt>
<rscale>  0 0.15769323E+03</rscale>
<asrwt>0</asrwt>
<pdfrwt beam="1">  1        2 0.49920011E-02 0.16370655E+03</pdfrwt>
<pdfrwt beam="2">  1       -2 0.13512205E+00 0.16370655E+03</pdfrwt>
<totfact> 0.64157222E+02</totfact>
</mgrwt>
</event>
<event>
 7    1  0.5107591E-006  0.2062337E+03  0.7546771E-02  0.1148434E+00
          2   -1    0    0  501    0  0.00000000000E+00  0.00000000000E+00  0.34050429209E+02  0.34050429209E+02  0.00000000000E+00 0. -1.
         -2   -1    0    0    0  501 -0.00000000000E+00 -0.00000000000E+00 -0.11650432991E+04  0.11650432991E+04  0.00000000000E+00 0.  1.
         23    2    1    2    0    0  0.14027129991E+03 -0.85027580175E+02 -0.45571546611E+03  0.49302579395E+03  0.92152701976E+02 0.  0.
          5    1    1    2  502    0 -0.93501163230E+02 -0.14472561810E+02 -0.27095833880E+03  0.28704082277E+03  0.47000000000E+01 0. -1.
         -5    1    1    2    0  502 -0.46770136676E+02  0.99500141984E+02 -0.40431906502E+03  0.41902711162E+03  0.47000000000E+01 0. -1.
        -11    1    3    3    0    0  0.41001195448E+02  0.55917725252E+01 -0.46231702510E+02  0.62046242957E+02  0.00000000000E+00 0. -1.
         11    1    3    3    0    0  0.99270104458E+02 -0.90619352700E+02 -0.40948376360E+03  0.43097955099E+03  0.00000000000E+00 0.  1.
<mgrwt>
<rscale>  0 0.20155422E+03</rscale>
<asrwt>0</asrwt>
<pdfrwt beam="1">  1        2 0.52385272E-02 0.20623374E+03</pdfrwt>
<pdfrwt beam="2">  1       -2 0.17923744E+00 0.20623374E+03</pdfrwt>
<totfact> 0.28973010E+02</totfact>
</mgrwt>
</event>
<event>
 6    1  0.5107591E-006  0.5741220E+03  0.7546771E-02  0.9960599E-01
          1   -1    0    0  501    0  0.00000000000E+00  0.00000000000E+00  0.28418685630E+03  0.28418685630E+03  0.00000000000E+00 0. -1.
         -1   -1    0    0    0  501 -0.00000000000E+00 -0.00000000000E+00 -0.28996418081E+03  0.28996418081E+03  0.00000000000E+00 0.  1.
          5    1    1    2  502    0  0.10181055015E+02  0.58481783838E+02 -0.31787898318E+02  0.67500617786E+02  0.47000000000E+01 0. -1.
         -5    1    1    2    0  502 -0.11451804421E+03  0.16027678020E+03  0.46582259749E+02  0.20247228364E+03  0.47000000000E+01 0.  1.
        -11    1    1    2    0    0 -0.45394277250E+02 -0.66096703883E+02 -0.39731015249E+02  0.89487251852E+02  0.00000000000E+00 0.  1.
         11    1    1    2    0    0  0.14973126645E+03 -0.15266186015E+03  0.19159329308E+02  0.21469088382E+03  0.00000000000E+00 0. -1.
<mgrwt>
<rscale>  0 0.57412197E+03</rscale>
<asrwt>0</asrwt>
<pdfrwt beam="1">  1        1 0.43721055E-01 0.57412197E+03</pdfrwt>
<pdfrwt beam="2">  1       -1 0.44609874E-01 0.57412197E+03</pdfrwt>
<totfact> 0.47386876E+02</totfact>
</mgrwt>
</event>
<event>
 7    1  0.5107591E-006  0.1187384E+03  0.7546771E-02  0.1255539E+00
          2   -1    0    0  501    0  0.00000000000E+00  0.00000000000E+00  0.41726409524E+03  0.41726409524E+03  0.00000000000E+00 0. -1.
         -2   -1    0    0    0  501 -0.00000000000E+00 -0.00000000000E+00 -0.44113187042E+02  0.44113187042E+02  0.00000000000E+00 0.  1.
         23    2    1    2    0    0 -0.17688886117E+01  0.47737754232E+01  0.31439969187E+03  0.32889895002E+03  0.96443948368E+02 0.  0.
          5    1    1    2  502    0  0.49724345730E+02 -0.35691893185E+02  0.33095021293E+02  0.69740893540E+02  0.47000000000E+01 0. -1.
         -5    1    1    2    0  502 -0.47955457118E+02  0.30918117762E+02  0.25656195027E+02  0.62737438716E+02  0.47000000000E+01 0.  1.
        -11    1    3    3    0    0 -0.12562103341E+02  0.46154625177E+02  0.22182503186E+03  0.22692377712E+03  0.00000000000E+00 0.  1.
         11    1    3    3    0    0  0.10793214729E+02 -0.41380849754E+02  0.92574660017E+02  0.10197517290E+03  0.00000000000E+00 0. -1.
<mgrwt>
<rscale>  0 0.11276210E+03</rscale>
<asrwt>0</asrwt>
<pdfrwt beam="1">  1        2 0.64194473E-01 0.11873838E+03</pdfrwt>
<pdfrwt beam="2">  1       -2 0.67866445E-02 0.11873838E+03</pdfrwt>
<totfact> 0.87869323E+03</totfact>
</mgrwt>
</event>
<event>
 7    1  0.5107591E-006  0.1283168E+03  0.7546771E-02  0.1245239E+00
          2   -1    0    0  501    0  0.00000000000E+00  0.00000000000E+00  0.78906199492E+02  0.78906199492E+02  0.00000000000E+00 0. -1.
         -2   -1    0    0    0  501 -0.00000000000E+00 -0.00000000000E+00 -0.17788725152E+03  0.17788725152E+03  0.00000000000E+00 0.  1.
         23    2    1    2    0    0 -0.28820038600E+02  0.31777399531E+01  0.11939494534E+01  0.94004513800E+02  0.89413256530E+02 0.  0.
          5    1    1    2  502    0 -0.29108928824E+02 -0.27676177954E+02 -0.90309422548E+02  0.98950403558E+02  0.47000000000E+01 0.  1.
         -5    1    1    2    0  502  0.57928967423E+02  0.24498438001E+02 -0.98655789326E+01  0.63838533652E+02  0.47000000000E+01 0.  1.
        -11    1    3    3    0    0  0.13442313006E+02  0.32147783928E+02 -0.18085673341E+02  0.39258978217E+02  0.00000000000E+00 0.  1.
         11    1    3    3    0    0 -0.42262351605E+02 -0.28970043975E+02  0.19279622795E+02  0.54745535583E+02  0.00000000000E+00 0. -1.
<mgrwt>
<rscale>  0 0.11871104E+03</rscale>
<asrwt>0</asrwt>
<pdfrwt beam="1">  1        2 0.12139415E-01 0.12831682E+03</pdfrwt>
<pdfrwt beam="2">  1       -2 0.27367269E-01 0.12831682E+03</pdfrwt>
<totfact> 0.57551676E+03</totfact>
</mgrwt>
</event>
<event>
 7    1  0.5107591E-006  0.1353260E+03  0.7546771E-02  0.1232401E+00
         -4   -1    0    0    0  501 -0.00000000000E+00  0.00000000000E+00  0.57389243649E+02  0.57389243649E+02  0.00000000000E+00 0.  1.
          4   -1    0    0  501    0  0.00000000000E+00 -0.00000000000E+00 -0.29087496249E+03  0.29087496249E+03  0.00000000000E+00 0. -1.
         23    2    1    2    0    0 -0.51300480053E+02 -0.75067597568E+01 -0.16874373179E+03  0.19824866047E+03  0.90221913429E+02 0.  0.
          5    1    1    2  502    0  0.92083700623E+02  0.15049967938E+02 -0.41329508596E+02  0.10215736751E+03  0.47000000000E+01 0.  1.
         -5    1    1    2    0  502 -0.40783220570E+02 -0.75432081815E+01 -0.23412478456E+02  0.47858178164E+02  0.47000000000E+01 0.  1.
        -11    1    3    3    0    0 -0.18884733869E+02 -0.21688278921E+02 -0.15895772082E+03  0.16153814294E+03  0.00000000000E+00 0. -1.
         11    1    3    3    0    0 -0.32415746184E+02  0.14181519165E+02 -0.97860109703E+01  0.36710517528E+02  0.00000000000E+00 0.  1.
<mgrwt>
<rscale>  0 0.12672287E+03</rscale>
<asrwt>0</asrwt>
<pdfrwt beam="2">  1        4 0.44749993E-01 0.13532605E+03</pdfrwt>
<pdfrwt beam="1">  1       -4 0.88291146E-02 0.13532605E+03</pdfrwt>
<totfact> 0.75262073E+02</totfact>
</mgrwt>
</event>
<event>
 7    1  0.5107591E-006  0.2511296E+03  0.7546771E-02  0.1115107E+00
         -2   -1    0    0    0  501 -0.00000000000E+00  0.00000000000E+00  0.77231797506E+02  0.77231797506E+02  0.00000000000E+00 0. -1.
          2   -1    0    0  501    0  0.00000000000E+00 -0.00000000000E+00 -0.79077281995E+03  0.79077281995E+03  0.00000000000E+00 0.  1.
         23    2    1    2    0    0 -0.21717786145E+03 -0.16601972192E+02 -0.42089638761E+03  0.48237923114E+03  0.89967241538E+02 0.  0.
          5    1    1    2  502    0  0.10462296848E+03  0.62693377155E+02 -0.10020061529E+03  0.15791984795E+03  0.47000000000E+01 0.  1.
         -5    1    1    2    0  502  0.11255489297E+03 -0.46091404962E+02 -0.19244401954E+03  0.22770553836E+03  0.47000000000E+01 0.  1.
        -11    1    3    3    0    0 -0.18754148102E+03 -0.27388239508E+02 -0.40479502078E+03  0.44696860249E+03  0.00000000000E+00 0.  1.
         11    1    3    3    0    0 -0.29636380426E+02  0.10786267315E+02 -0.16101366827E+02  0.35410628645E+02  0.00000000000E+00 0. -1.
<mgrwt>
<rscale>  0 0.24716966E+03</rscale>
<asrwt>0</asrwt>
<pdfrwt beam="2">  1        2 0.12165735E+00 0.25112956E+03</pdfrwt>
<pdfrwt beam="1">  1       -2 0.11881815E-01 0.25112956E+03</pdfrwt>
<totfact> 0.18065023E+03</totfact>
</mgrwt>
</event>
<event>
 7    1  0.5107591E-006  0.1334678E+03  0.7546771E-02  0.1222571E+00
         -2   -1    0    0    0  501 -0.00000000000E+00  0.00000000000E+00  0.10783440460E+03  0.10783440460E+03  0.00000000000E+00 0.  1.
          2   -1    0    0  501    0  0.00000000000E+00 -0.00000000000E+00 -0.16560877812E+03  0.16560877812E+03  0.00000000000E+00 0. -1.
         23    2    1    2    0    0  0.32412869888E+02  0.31792739482E+02 -0.39606752574E+02  0.13922048905E+03  0.12550807665E+03 0.  0.
          5    1    1    2  502    0  0.19288602056E+02 -0.52621705153E+02 -0.45145162894E+02  0.72119829140E+02  0.47000000000E+01 0. -1.
         -5    1    1    2    0  502 -0.51701471944E+02  0.20828965671E+02  0.26977541954E+02  0.62102864523E+02  0.47000000000E+01 0. -1.
        -11    1    3    3    0    0  0.80201566296E+02  0.24933811034E+02 -0.16075085358E+02  0.85512540240E+02  0.00000000000E+00 0.  1.
         11    1    3    3    0    0 -0.47788696408E+02  0.68589284473E+01 -0.23531667217E+02  0.53707948814E+02  0.00000000000E+00 0. -1.
<mgrwt>
<rscale>  0 0.13334755E+03</rscale>
<asrwt>0</asrwt>
<pdfrwt beam="2">  1        2 0.25478274E-01 0.13346779E+03</pdfrwt>
<pdfrwt beam="1">  1       -2 0.16589908E-01 0.13346779E+03</pdfrwt>
<totfact> 0.57909165E+03</totfact>
</mgrwt>
</event>
<event>
 7    1  0.5107591E-006  0.1703000E+03  0.7546771E-02  0.1189737E+00
         -1   -1    0    0    0  501 -0.00000000000E+00  0.00000000000E+00  0.11476024310E+03  0.11476024310E+03  0.00000000000E+00 0.  1.
          1   -1    0    0  501    0  0.00000000000E+00 -0.00000000000E+00 -0.36418120576E+03  0.36418120576E+03  0.00000000000E+00 0. -1.
         23    2    1    2    0    0  0.44421310141E+02  0.76380850668E+02 -0.27753846549E+03  0.30633589277E+03  0.94904121254E+02 0.  0.
          5    1    1    2  502    0 -0.34741028853E+02  0.25671494398E+02 -0.31736379177E+02  0.53807550340E+02  0.47000000000E+01 0. -1.
         -5    1    1    2    0  502 -0.96802812875E+01 -0.10205234507E+03  0.59853882007E+02  0.11879800575E+03  0.47000000000E+01 0.  1.
        -11    1    3    3    0    0  0.51187535724E+01  0.84036011567E+02 -0.22530000146E+03  0.24051682589E+03  0.00000000000E+00 0. -1.
         11    1    3    3    0    0  0.39302556568E+02 -0.76551608982E+01 -0.52238464031E+02  0.65819066884E+02  0.00000000000E+00 0.  1.
<mgrwt>
<rscale>  0 0.15908165E+03</rscale>
<asrwt>0</asrwt>
<pdfrwt beam="2">  1        1 0.56027878E-01 0.17029998E+03</pdfrwt>
<pdfrwt beam="1">  1       -1 0.17655422E-01 0.17029998E+03</pdfrwt>
<totfact> 0.16719231E+03</totfact>
</mgrwt>
</event>
<event>
 7    1  0.5107591E-006  0.2252509E+03  0.7546771E-02  0.1133348E+00
          2   -1    0    0  501    0  0.00000000000E+00  0.00000000000E+00  0.12664322831E+04  0.12664322831E+04  0.00000000000E+00 0. -1.
         -2   -1    0    0    0  501 -0.00000000000E+00 -0.00000000000E+00 -0.37247134275E+02  0.37247134275E+02  0.00000000000E+00 0.  1.
         23    2    1    2    0    0  0.18736086871E+03  0.32387840938E+01  0.64319218545E+03  0.67588507347E+03  0.89497822664E+02 0.  0.
          5    1    1    2  502    0 -0.15050854729E+03  0.42478411583E+02  0.49720792634E+03  0.52124375322E+03  0.47000000000E+01 0. -1.
         -5    1    1    2    0  502 -0.36852321425E+02 -0.45717195677E+02  0.88785037048E+02  0.10655059070E+03  0.47000000000E+01 0. -1.
        -11    1    3    3    0    0  0.11710566942E+03  0.10367123308E+02  0.52669802163E+03  0.53965917119E+03  0.00000000000E+00 0. -1.
         11    1    3    3    0    0  0.70255199292E+02 -0.71283392138E+01  0.11649416382E+03  0.13622590228E+03  0.00000000000E+00 0.  1.
<mgrwt>
<rscale>  0 0.22071934E+03</rscale>
<asrwt>0</asrwt>
<pdfrwt beam="1">  1        2 0.19483570E+00 0.22525094E+03</pdfrwt>
<pdfrwt beam="2">  1       -2 0.57303293E-02 0.22525094E+03</pdfrwt>
<totfact> 0.29045558E+03</totfact>
</mgrwt>
</event>
<event>
 7    1  0.5107591E-006  0.1331086E+03  0.7546771E-02  0.1236289E+00
         -2   -1    0    0    0  501 -0.00000000000E+00  0.00000000000E+00  0.66856374215E+02  0.66856374215E+02  0.00000000000E+00 0.  1.
          2   -1    0    0  501    0  0.00000000000E+00 -0.00000000000E+00 -0.20559270245E+03  0.20559270245E+03  0.00000000000E+00 0. -1.
         23    2    1    2    0    0  0.35582787666E+02 -0.28766492722E+02 -0.51978289760E+02  0.11356280822E+03  0.90006238241E+02 0.  0.
          5    1    1    2  502    0  0.23224928073E+02 -0.37447322116E+02 -0.31986003820E+02  0.54652480803E+02  0.47000000000E+01 0.  1.
         -5    1    1    2    0  502 -0.58807715739E+02  0.66213814838E+02 -0.54772034651E+02  0.10423378764E+03  0.47000000000E+01 0.  1.
        -11    1    3    3    0    0  0.41900472906E+02 -0.16493132236E+02 -0.74556234100E+02  0.87099397724E+02  0.00000000000E+00 0. -1.
         11    1    3    3    0    0 -0.63176852396E+01 -0.12273360486E+02  0.22577944339E+02  0.26463410495E+02  0.00000000000E+00 0.  1.
<mgrwt>
<rscale>  0 0.12422290E+03</rscale>
<asrwt>0</asrwt>
<pdfrwt beam="2">  1        2 0.31629646E-01 0.13310856E+03</pdfrwt>
<pdfrwt beam="1">  1       -2 0.10285596E-01 0.13310856E+03</pdfrwt>
<totfact> 0.98818656E+03</totfact>
</mgrwt>
</event>
<event>
 7    1  0.5107591E-006  0.2188185E+03  0.7546771E-02  0.1134767E+00
          1   -1    0    0  501    0  0.00000000000E+00  0.00000000000E+00  0.15636237492E+03  0.15636237492E+03  0.00000000000E+00 0. -1.
         -1   -1    0    0    0  501 -0.00000000000E+00 -0.00000000000E+00 -0.76555424341E+02  0.76555424341E+02  0.00000000000E+00 0.  1.
         23    2    1    2    0    0  0.11374670649E+02 -0.13584045165E+02  0.40634245135E+02  0.10073273690E+03  0.90454590759E+02 0.  0.
          5    1    1    2  502    0  0.34148677479E+02 -0.41916824117E+02  0.18515914920E+02  0.57341794731E+02  0.47000000000E+01 0. -1.
         -5    1    1    2    0  502 -0.45523348129E+02  0.55500869281E+02  0.20656790527E+02  0.74843267638E+02  0.47000000000E+01 0. -1.
        -11    1    3    3    0    0 -0.28505733160E+02 -0.88672659714E+01 -0.13962897030E+02  0.32957058762E+02  0.00000000000E+00 0.  1.
         11    1    3    3    0    0  0.39880403809E+02 -0.47167791932E+01  0.54597142164E+02  0.67775678134E+02  0.00000000000E+00 0. -1.
<mgrwt>
<rscale>  0 0.21881854E+03</rscale>
<asrwt>0</asrwt>
<pdfrwt beam="1">  1        1 0.24055750E-01 0.21881854E+03</pdfrwt>
<pdfrwt beam="2">  1       -1 0.11777758E-01 0.21881854E+03</pdfrwt>
<totfact> 0.92561723E+03</totfact>
</mgrwt>
</event>
<event>
 7    1  0.5107591E-006  0.1754496E+03  0.7546771E-02  0.1178444E+00
         -1   -1    0    0    0  501 -0.00000000000E+00  0.00000000000E+00  0.98902733330E+02  0.98902733330E+02  0.00000000000E+00 0.  1.
          1   -1    0    0  501    0  0.00000000000E+00 -0.00000000000E+00 -0.27281050944E+03  0.27281050944E+03  0.00000000000E+00 0. -1.
         23    2    1    2    0    0 -0.12196491526E+03  0.16843867423E+02 -0.91054724603E+02  0.17768441066E+03  0.90120089287E+02 0.  0.
          5    1    1    2  502    0  0.13956703612E+03 -0.13489602819E+02 -0.97132429141E+02  0.17063916826E+03  0.47000000000E+01 0.  1.
         -5    1    1    2    0  502 -0.17602120856E+02 -0.33542646046E+01  0.14279377632E+02  0.23389663854E+02  0.47000000000E+01 0.  1.
        -11    1    3    3    0    0 -0.90124361272E+02 -0.10072843591E+02 -0.16371717795E+02  0.92151482984E+02  0.00000000000E+00 0.  1.
         11    1    3    3    0    0 -0.31840553989E+02  0.26916711014E+02 -0.74683006808E+02  0.85532927671E+02  0.00000000000E+00 0. -1.
<mgrwt>
<rscale>  0 0.16942948E+03</rscale>
<asrwt>0</asrwt>
<pdfrwt beam="2">  1        1 0.41970848E-01 0.17544959E+03</pdfrwt>
<pdfrwt beam="1">  1       -1 0.15215805E-01 0.17544959E+03</pdfrwt>
<totfact> 0.30413537E+03</totfact>
</mgrwt>
</event>
<event>
 7    1  0.5107591E-006  0.2120073E+03  0.7546771E-02  0.1143684E+00
         -1   -1    0    0    0  501 -0.00000000000E+00  0.00000000000E+00  0.11008633352E+03  0.11008633352E+03  0.00000000000E+00 0.  1.
          1   -1    0    0  501    0  0.00000000000E+00 -0.00000000000E+00 -0.52957661572E+03  0.52957661572E+03  0.00000000000E+00 0. -1.
         23    2    1    2    0    0 -0.11796826060E+03 -0.12412367144E+03 -0.37622551341E+03  0.42328613625E+03  0.91117066901E+02 0.  0.
          5    1    1    2  502    0  0.86429469855E+02  0.14788938620E+03 -0.27280601247E+02  0.17351554689E+03  0.47000000000E+01 0.  1.
         -5    1    1    2    0  502  0.31538790742E+02 -0.23765714754E+02 -0.15984167540E+02  0.42861266094E+02  0.47000000000E+01 0.  1.
        -11    1    3    3    0    0 -0.60909910496E+02 -0.10447040870E+03 -0.17147948517E+03  0.20983159277E+03  0.00000000000E+00 0. -1.
         11    1    3    3    0    0 -0.57058350100E+02 -0.19653262747E+02 -0.20474602824E+03  0.21345454348E+03  0.00000000000E+00 0.  1.
<mgrwt>
<rscale>  0 0.20734730E+03</rscale>
<asrwt>0</asrwt>
<pdfrwt beam="2">  1        1 0.81473328E-01 0.21200728E+03</pdfrwt>
<pdfrwt beam="1">  1       -1 0.16936359E-01 0.21200728E+03</pdfrwt>
<totfact> 0.11045416E+03</totfact>
</mgrwt>
</event>
<event>
 7    1  0.5107591E-006  0.1252618E+03  0.7546771E-02  0.1252176E+00
         -1   -1    0    0    0  501 -0.00000000000E+00  0.00000000000E+00  0.39891699671E+02  0.39891699671E+02  0.00000000000E+00 0.  1.
          1   -1    0    0  501    0  0.00000000000E+00 -0.00000000000E+00 -0.28486782469E+03  0.28486782469E+03  0.00000000000E+00 0. -1.
         23    2    1    2    0    0  0.80298322928E+01  0.85089417430E+00 -0.10153334040E+03  0.13432225047E+03  0.87568519054E+02 0.  0.
          5    1    1    2  502    0  0.31360714204E+02  0.19125210593E+02 -0.14118876612E+03  0.14596446744E+03  0.47000000000E+01 0.  1.
         -5    1    1    2    0  502 -0.39390546497E+02 -0.19976104767E+02 -0.22540184961E+01  0.44472806460E+02  0.47000000000E+01 0.  1.
        -11    1    3    3    0    0  0.15521699183E+02 -0.26850675288E+02 -0.23864281791E+01  0.31105898933E+02  0.00000000000E+00 0.  1.
         11    1    3    3    0    0 -0.74918668901E+01  0.27701569463E+02 -0.99146912225E+02  0.10321635153E+03  0.00000000000E+00 0. -1.
<mgrwt>
<rscale>  0 0.11465967E+03</rscale>
<asrwt>0</asrwt>
<pdfrwt beam="2">  1        1 0.43825818E-01 0.12526182E+03</pdfrwt>
<pdfrwt beam="1">  1       -1 0.61371847E-02 0.12526182E+03</pdfrwt>
<totfact> 0.11319468E+04</totfact>
</mgrwt>
</event>
<event>
 7    1  0.5107591E-006  0.1862924E+03  0.7546771E-02  0.1166877E+00
         -2   -1    0    0    0  501 -0.00000000000E+00  0.00000000000E+00  0.81306153748E+03  0.81306153748E+03  0.00000000000E+00 0.  1.
          2   -1    0    0  501    0  0.00000000000E+00 -0.00000000000E+00 -0.38255935535E+02  0.38255935535E+02  0.00000000000E+00 0. -1.
         23    2    1    2    0    0 -0.13051425934E+03 -0.45232007298E+02  0.38926679806E+03  0.42312939954E+03  0.91814717253E+02 0.  0.
          5    1    1    2  502    0  0.95205626040E+02  0.88589064978E+02  0.27381247925E+03  0.30316249349E+03  0.47000000000E+01 0.  1.
         -5    1    1    2    0  502  0.35308633301E+02 -0.43357057680E+02  0.11172632463E+03  0.12502557999E+03  0.47000000000E+01 0.  1.
        -11    1    3    3    0    0 -0.80284326482E+02 -0.60267466496E+02  0.32520207856E+03  0.34034413833E+03  0.00000000000E+00 0.  1.
         11    1    3    3    0    0 -0.50229932859E+02  0.15035459198E+02  0.64064719506E+02  0.82785261211E+02  0.00000000000E+00 0. -1.
<mgrwt>
<rscale>  0 0.18095991E+03</rscale>
<asrwt>0</asrwt>
<pdfrwt beam="2">  1        2 0.58855292E-02 0.18629240E+03</pdfrwt>
<pdfrwt beam="1">  1       -2 0.12508638E+00 0.18629240E+03</pdfrwt>
<totfact> 0.62838082E+02</totfact>
</mgrwt>
</event>
<event>
 7    1  0.5107591E-006  0.1305804E+03  0.7546771E-02  0.1236309E+00
          2   -1    0    0  501    0  0.00000000000E+00  0.00000000000E+00  0.56555729951E+03  0.56555729951E+03  0.00000000000E+00 0. -1.
         -2   -1    0    0    0  501 -0.00000000000E+00 -0.00000000000E+00 -0.24979154630E+02  0.24979154630E+02  0.00000000000E+00 0.  1.
         23    2    1    2    0    0  0.36343963163E+02 -0.10100020882E+02  0.25636103164E+03  0.27775762228E+03  0.10002711687E+03 0.  0.
          5    1    1    2  502    0  0.44224256941E+02  0.11603489472E+02  0.14197524140E+03  0.14922963862E+03  0.47000000000E+01 0.  1.
         -5    1    1    2    0  502 -0.80568220104E+02 -0.15034685903E+01  0.14224187183E+03  0.16354919325E+03  0.47000000000E+01 0.  1.
        -11    1    3    3    0    0 -0.36094088422E+01 -0.50146824681E+02  0.11607180647E+03  0.12649267218E+03  0.00000000000E+00 0. -1.
         11    1    3    3    0    0  0.39953372006E+02  0.40046803799E+02  0.14028922517E+03  0.15126495009E+03  0.00000000000E+00 0.  1.
<mgrwt>
<rscale>  0 0.12420989E+03</rscale>
<asrwt>0</asrwt>
<pdfrwt beam="1">  1        2 0.87008806E-01 0.13058036E+03</pdfrwt>
<pdfrwt beam="2">  1       -2 0.38429473E-02 0.13058036E+03</pdfrwt>
<totfact> 0.14910208E+04</totfact>
</mgrwt>
</event>
<event>
 7    1  0.5107591E-006  0.1399162E+03  0.7546771E-02  0.1224948E+00
         -1   -1    0    0    0  501 -0.00000000000E+00  0.00000000000E+00  0.46857953451E+03  0.46857953451E+03  0.00000000000E+00 0.  1.
          1   -1    0    0  501    0  0.00000000000E+00 -0.00000000000E+00 -0.39758279745E+02  0.39758279745E+02  0.00000000000E+00 0. -1.
         23    2    1    2    0    0  0.62762275334E+02 -0.34645083243E+01  0.90858175095E+02  0.14255703257E+03  0.90089919137E+02 0.  0.
          5    1    1    2  502    0  0.26168317738E+02 -0.70567148078E+01  0.19562903017E+03  0.19755350040E+03  0.47000000000E+01 0. -1.
         -5    1    1    2    0  502 -0.88930593072E+02  0.10521223132E+02  0.14233404950E+03  0.16822728128E+03  0.47000000000E+01 0. -1.
        -11    1    3    3    0    0  0.22122990533E+02  0.21629635835E+02  0.89585143222E+02  0.94777453767E+02  0.00000000000E+00 0.  1.
         11    1    3    3    0    0  0.40639284802E+02 -0.25094144159E+02  0.12730318731E+01  0.47779578801E+02  0.00000000000E+00 0. -1.
<mgrwt>
<rscale>  0 0.13170498E+03</rscale>
<asrwt>0</asrwt>
<pdfrwt beam="2">  1        1 0.61166587E-02 0.13991618E+03</pdfrwt>
<pdfrwt beam="1">  1       -1 0.72089155E-01 0.13991618E+03</pdfrwt>
<totfact> 0.24634553E+03</totfact>
</mgrwt>
</event>
<event>
 7    1  0.5107591E-006  0.1715155E+03  0.7546771E-02  0.1182618E+00
         -1   -1    0    0    0  501 -0.00000000000E+00  0.00000000000E+00  0.25523513702E+03  0.25523513702E+03  0.00000000000E+00 0.  1.
          1   -1    0    0  501    0  0.00000000000E+00 -0.00000000000E+00 -0.17262164267E+03  0.17262164267E+03  0.00000000000E+00 0. -1.
         23    2    1    2    0    0 -0.62764488432E+02 -0.99266955080E+02 -0.98536184572E+02  0.17839178233E+03  0.91219180852E+02 0.  0.
          5    1    1    2  502    0  0.96492236856E+02  0.56933415119E+02  0.14848954163E+03  0.18607364001E+03  0.47000000000E+01 0.  1.
         -5    1    1    2    0  502 -0.33727748424E+02  0.42333539961E+02  0.32660137286E+02  0.63391357352E+02  0.47000000000E+01 0.  1.
        -11    1    3    3    0    0 -0.24315186299E+02 -0.97055453188E+02 -0.38795437670E+02  0.10731297807E+03  0.00000000000E+00 0.  1.
         11    1    3    3    0    0 -0.38449302133E+02 -0.22115018915E+01 -0.59740746902E+02  0.71078804264E+02  0.00000000000E+00 0. -1.
<mgrwt>
<rscale>  0 0.16550519E+03</rscale>
<asrwt>0</asrwt>
<pdfrwt beam="2">  1        1 0.26557176E-01 0.17151553E+03</pdfrwt>
<pdfrwt beam="1">  1       -1 0.39266944E-01 0.17151553E+03</pdfrwt>
<totfact> 0.11214307E+03</totfact>
</mgrwt>
</event>
<event>
 7    1  0.5107591E-006  0.1374682E+03  0.7546771E-02  0.1228361E+00
         -2   -1    0    0    0  501 -0.00000000000E+00  0.00000000000E+00  0.30046548324E+03  0.30046548324E+03  0.00000000000E+00 0.  1.
          2   -1    0    0  501    0  0.00000000000E+00 -0.00000000000E+00 -0.50151454691E+02  0.50151454691E+02  0.00000000000E+00 0. -1.
         23    2    1    2    0    0  0.23488169028E+02 -0.52109882638E+02  0.10416698171E+03  0.14997676874E+03  0.91515775315E+02 0.  0.
          5    1    1    2  502    0 -0.25838983441E+02  0.29455144993E+02 -0.11643414094E+02  0.41145081402E+02  0.47000000000E+01 0. -1.
         -5    1    1    2    0  502  0.23508144132E+01  0.22654737645E+02  0.15779046094E+03  0.15949508779E+03  0.47000000000E+01 0. -1.
        -11    1    3    3    0    0  0.13998967550E+02 -0.16522501419E+02 -0.14277137265E+02  0.25938403847E+02  0.00000000000E+00 0. -1.
         11    1    3    3    0    0  0.94892014777E+01 -0.35587381219E+02  0.11844411897E+03  0.12403836489E+03  0.00000000000E+00 0.  1.
<mgrwt>
<rscale>  0 0.12939173E+03</rscale>
<asrwt>0</asrwt>
<pdfrwt beam="2">  1        2 0.77156086E-02 0.13746824E+03</pdfrwt>
<pdfrwt beam="1">  1       -2 0.46225458E-01 0.13746824E+03</pdfrwt>
<totfact> 0.38223852E+03</totfact>
</mgrwt>
</event>
<event>
 7    1  0.5107591E-006  0.1306182E+03  0.7546771E-02  0.1241766E+00
         -2   -1    0    0    0  501 -0.00000000000E+00  0.00000000000E+00  0.34438590535E+02  0.34438590535E+02  0.00000000000E+00 0.  1.
          2   -1    0    0  501    0  0.00000000000E+00 -0.00000000000E+00 -0.39315548032E+03  0.39315548032E+03  0.00000000000E+00 0. -1.
         23    2    1    2    0    0  0.32667658256E+02  0.19201472215E+02 -0.20277338266E+03  0.22417456409E+03  0.87757153772E+02 0.  0.
          5    1    1    2  502    0 -0.40117743708E+01  0.14466067168E+02 -0.15812481109E+03  0.15890534074E+03  0.47000000000E+01 0.  1.
         -5    1    1    2    0  502 -0.28655883885E+02 -0.33667539382E+02  0.21813039738E+01  0.44514166019E+02  0.47000000000E+01 0.  1.
        -11    1    3    3    0    0 -0.16517239447E+02  0.21674391970E+02 -0.17308885386E+02  0.32283060257E+02  0.00000000000E+00 0.  1.
         11    1    3    3    0    0  0.49184897704E+02 -0.24729197550E+01 -0.18546449728E+03  0.19189150383E+03  0.00000000000E+00 0. -1.
<mgrwt>
<rscale>  0 0.12081042E+03</rscale>
<asrwt>0</asrwt>
<pdfrwt beam="2">  1        2 0.60485458E-01 0.13061822E+03</pdfrwt>
<pdfrwt beam="1">  1       -2 0.52982448E-02 0.13061822E+03</pdfrwt>
<totfact> 0.13717278E+04</totfact>
</mgrwt>
</event>
<event>
 7    1  0.5107591E-006  0.1431857E+03  0.7546771E-02  0.1218269E+00
         -1   -1    0    0    0  501 -0.00000000000E+00  0.00000000000E+00  0.62463979118E+02  0.62463979118E+02  0.00000000000E+00 0.  1.
          1   -1    0    0  501    0  0.00000000000E+00 -0.00000000000E+00 -0.30505414836E+03  0.30505414836E+03  0.00000000000E+00 0. -1.
         23    2    1    2    0    0 -0.65748657958E+02 -0.23569186432E+02 -0.17029798954E+03  0.20711765852E+03  0.94962764581E+02 0.  0.
          5    1    1    2  502    0  0.11302638562E+02 -0.48509653001E+02 -0.41010457533E+02  0.64690677070E+02  0.47000000000E+01 0.  1.
         -5    1    1    2    0  502  0.54446019395E+02  0.72078839433E+02 -0.31281722173E+02  0.95709791893E+02  0.47000000000E+01 0.  1.
        -11    1    3    3    0    0 -0.24097737060E+02  0.37080743594E+02 -0.67771481647E+02  0.80923767841E+02  0.00000000000E+00 0. -1.
         11    1    3    3    0    0 -0.41650920897E+02 -0.60649930027E+02 -0.10252650789E+03  0.12619389068E+03  0.00000000000E+00 0.  1.
<mgrwt>
<rscale>  0 0.13639149E+03</rscale>
<asrwt>0</asrwt>
<pdfrwt beam="2">  1        1 0.46931408E-01 0.14318572E+03</pdfrwt>
<pdfrwt beam="1">  1       -1 0.96098429E-02 0.14318572E+03</pdfrwt>
<totfact> 0.53442303E+03</totfact>
</mgrwt>
</event>
<event>
 7    1  0.5107591E-006  0.1585400E+03  0.7546771E-02  0.1198636E+00
          2   -1    0    0  501    0  0.00000000000E+00  0.00000000000E+00  0.17036277472E+03  0.17036277472E+03  0.00000000000E+00 0.  1.
         -2   -1    0    0    0  501 -0.00000000000E+00 -0.00000000000E+00 -0.13336285777E+03  0.13336285777E+03  0.00000000000E+00 0. -1.
         23    2    1    2    0    0  0.86782434465E+02 -0.44496247034E+02  0.56897896735E+02  0.14394188575E+03  0.89279274687E+02 0.  0.
          5    1    1    2  502    0 -0.87098248241E+02  0.11816011884E+02  0.35809023789E+02  0.95026833937E+02  0.47000000000E+01 0. -1.
         -5    1    1    2    0  502  0.31581377585E+00  0.32680235150E+02 -0.55707003574E+02  0.64756912797E+02  0.47000000000E+01 0. -1.
        -11    1    3    3    0    0  0.40641250638E+02  0.19559392078E+02 -0.24629618809E+01  0.45170203155E+02  0.00000000000E+00 0. -1.
         11    1    3    3    0    0  0.46141183827E+02 -0.64055639112E+02  0.59360858616E+02  0.98771682595E+02  0.00000000000E+00 0.  1.
<mgrwt>
<rscale>  0 0.15150522E+03</rscale>
<asrwt>0</asrwt>
<pdfrwt beam="1">  1        2 0.26209658E-01 0.15853995E+03</pdfrwt>
<pdfrwt beam="2">  1       -2 0.20517363E-01 0.15853995E+03</pdfrwt>
<totfact> 0.39710210E+03</totfact>
</mgrwt>
</event>
<event>
 7    1  0.5107591E-006  0.1668334E+03  0.7546771E-02  0.1188446E+00
         -2   -1    0    0    0  501 -0.00000000000E+00  0.00000000000E+00  0.57054233369E+02  0.57054233369E+02  0.00000000000E+00 0.  1.
          2   -1    0    0  501    0  0.00000000000E+00 -0.00000000000E+00 -0.43750899582E+03  0.43750899582E+03  0.00000000000E+00 0. -1.
         23    2    1    2    0    0 -0.44677516052E+02  0.10103589290E+03 -0.12313454871E+03  0.18789225925E+03  0.89090133615E+02 0.  0.
          5    1    1    2  502    0  0.49470735701E+01 -0.15453076886E+02 -0.18980024758E+03  0.19055050539E+03  0.47000000000E+01 0. -1.
         -5    1    1    2    0  502  0.39730442482E+02 -0.85582816010E+02 -0.67519966153E+02  0.11612046454E+03  0.47000000000E+01 0. -1.
        -11    1    3    3    0    0 -0.34440684005E+02  0.90603360908E+02 -0.13694949398E+03  0.16778049238E+03  0.00000000000E+00 0. -1.
         11    1    3    3    0    0 -0.10236832047E+02  0.10432531987E+02  0.13814945267E+02  0.20111766873E+02  0.00000000000E+00 0.  1.
<mgrwt>
<rscale>  0 0.16022248E+03</rscale>
<asrwt>0</asrwt>
<pdfrwt beam="2">  1        2 0.67309076E-01 0.16683342E+03</pdfrwt>
<pdfrwt beam="1">  1       -2 0.87775744E-02 0.16683342E+03</pdfrwt>
<totfact> 0.57347392E+03</totfact>
</mgrwt>
</event>
<event>
 7    1  0.5107591E-006  0.1352851E+03  0.7546771E-02  0.1234029E+00
          1   -1    0    0  501    0  0.00000000000E+00  0.00000000000E+00  0.25878486823E+03  0.25878486823E+03  0.00000000000E+00 0. -1.
         -1   -1    0    0    0  501 -0.00000000000E+00 -0.00000000000E+00 -0.57673729278E+02  0.57673729278E+02  0.00000000000E+00 0.  1.
         23    2    1    2    0    0  0.25120649408E+02 -0.34145995889E+02  0.12735333124E+03  0.16237334723E+03  0.91374158545E+02 0.  0.
          5    1    1    2  502    0 -0.24555046817E+02  0.82719919338E+02  0.44822649307E+02  0.97348319299E+02  0.47000000000E+01 0. -1.
         -5    1    1    2    0  502 -0.56560259051E+00 -0.48573923448E+02  0.28935158404E+02  0.56736930982E+02  0.47000000000E+01 0.  1.
        -11    1    3    3    0    0 -0.17120265455E+02 -0.51600331822E+02  0.59891866948E+02  0.80887164989E+02  0.00000000000E+00 0.  1.
         11    1    3    3    0    0  0.42240914863E+02  0.17454335933E+02  0.67461464295E+02  0.81486182241E+02  0.00000000000E+00 0. -1.
<mgrwt>
<rscale>  0 0.12566823E+03</rscale>
<asrwt>0</asrwt>
<pdfrwt beam="1">  1        1 0.39813056E-01 0.13528507E+03</pdfrwt>
<pdfrwt beam="2">  1       -1 0.88728816E-02 0.13528507E+03</pdfrwt>
<totfact> 0.73692557E+03</totfact>
</mgrwt>
</event>
<event>
 7    1  0.5107591E-006  0.2166358E+03  0.7546771E-02  0.1138885E+00
          1   -1    0    0  501    0  0.00000000000E+00  0.00000000000E+00  0.25387067633E+03  0.25387067633E+03  0.00000000000E+00 0. -1.
         -1   -1    0    0    0  501 -0.00000000000E+00 -0.00000000000E+00 -0.21792578782E+03  0.21792578782E+03  0.00000000000E+00 0.  1.
         23    2    1    2    0    0 -0.17448389558E+03  0.55899526076E+02  0.12306832130E+03  0.23829793297E+03  0.89837109910E+02 0.  0.
          5    1    1    2  502    0  0.11824392742E+03 -0.33773029467E+02  0.50641876163E+01  0.12316647225E+03  0.47000000000E+01 0. -1.
         -5    1    1    2    0  502  0.56239968164E+02 -0.22126496609E+02 -0.92187620404E+02  0.11033205893E+03  0.47000000000E+01 0.  1.
        -11    1    3    3    0    0 -0.15269320082E+03  0.76955742201E+02  0.11754949740E+03  0.20749767269E+03  0.00000000000E+00 0.  1.
         11    1    3    3    0    0 -0.21790694764E+02 -0.21056216125E+02  0.55188238958E+01  0.30800260275E+02  0.00000000000E+00 0. -1.
<mgrwt>
<rscale>  0 0.21342075E+03</rscale>
<asrwt>0</asrwt>
<pdfrwt beam="1">  1        1 0.39057027E-01 0.21663580E+03</pdfrwt>
<pdfrwt beam="2">  1       -1 0.33527044E-01 0.21663580E+03</pdfrwt>
<totfact> 0.91297849E+02</totfact>
</mgrwt>
</event>
<event>
 7    1  0.5107591E-006  0.1438428E+03  0.7546771E-02  0.1215238E+00
         -1   -1    0    0    0  501 -0.00000000000E+00  0.00000000000E+00  0.21022149436E+03  0.21022149436E+03  0.00000000000E+00 0.  1.
          1   -1    0    0  501    0  0.00000000000E+00 -0.00000000000E+00 -0.85484889509E+02  0.85484889509E+02  0.00000000000E+00 0. -1.
         23    2    1    2    0    0 -0.52497325145E+02  0.48049704614E+02  0.50645144936E+02  0.13390314825E+03  0.10149078355E+03 0.  0.
          5    1    1    2  502    0  0.60613875412E+01 -0.62643796195E+02 -0.10611487041E+02  0.63997494309E+02  0.47000000000E+01 0. -1.
         -5    1    1    2    0  502  0.46435937604E+02  0.14594091581E+02  0.84702946955E+02  0.97805741310E+02  0.47000000000E+01 0. -1.
        -11    1    3    3    0    0 -0.46938197756E+01 -0.29952804847E+02  0.23848809109E+02  0.38574190312E+02  0.00000000000E+00 0. -1.
         11    1    3    3    0    0 -0.47803505370E+02  0.78002509461E+02  0.26796335828E+02  0.95328957939E+02  0.00000000000E+00 0.  1.
<mgrwt>
<rscale>  0 0.13859036E+03</rscale>
<asrwt>0</asrwt>
<pdfrwt beam="2">  1        1 0.13151522E-01 0.14384277E+03</pdfrwt>
<pdfrwt beam="1">  1       -1 0.32341768E-01 0.14384277E+03</pdfrwt>
<totfact> 0.38356317E+03</totfact>
</mgrwt>
</event>
<event>
 7    1  0.5107591E-006  0.1329821E+03  0.7546771E-02  0.1236372E+00
         -2   -1    0    0    0  501 -0.00000000000E+00  0.00000000000E+00  0.62219409300E+02  0.62219409300E+02  0.00000000000E+00 0.  1.
          2   -1    0    0  501    0  0.00000000000E+00 -0.00000000000E+00 -0.23396125458E+03  0.23396125458E+03  0.00000000000E+00 0. -1.
         23    2    1    2    0    0 -0.12587875674E+02 -0.43613977867E+02 -0.11054204569E+03  0.14979195952E+03  0.90318622621E+02 0.  0.
          5    1    1    2  502    0  0.18371165567E+02 -0.28082045633E+02 -0.65954510936E+02  0.74149770897E+02  0.47000000000E+01 0.  1.
         -5    1    1    2    0  502 -0.57832898930E+01  0.71696023500E+02  0.47547113467E+01  0.72238933462E+02  0.47000000000E+01 0.  1.
        -11    1    3    3    0    0 -0.33987550082E+02 -0.60409613682E+02 -0.97489761862E+02  0.11961909820E+03  0.00000000000E+00 0. -1.
         11    1    3    3    0    0  0.21399674408E+02  0.16795635816E+02 -0.13052283827E+02  0.30172861321E+02  0.00000000000E+00 0.  1.
<mgrwt>
<rscale>  0 0.12416983E+03</rscale>
<asrwt>0</asrwt>
<pdfrwt beam="2">  1        2 0.35994039E-01 0.13298209E+03</pdfrwt>
<pdfrwt beam="1">  1       -2 0.95722168E-02 0.13298209E+03</pdfrwt>
<totfact> 0.96286666E+03</totfact>
</mgrwt>
</event>
<event>
 7    1  0.5107591E-006  0.1261639E+03  0.7546771E-02  0.1249022E+00
          1   -1    0    0  501    0  0.00000000000E+00  0.00000000000E+00  0.10805387142E+03  0.10805387142E+03  0.00000000000E+00 0. -1.
         -1   -1    0    0    0  501 -0.00000000000E+00 -0.00000000000E+00 -0.13721185353E+03  0.13721185353E+03  0.00000000000E+00 0.  1.
         23    2    1    2    0    0  0.70997645969E+01 -0.15525941848E+02  0.41550880463E+02  0.10063838798E+03  0.90056359795E+02 0.  0.
          5    1    1    2  502    0 -0.39094435959E+02  0.11703864530E+02 -0.95329947782E+02  0.10380387426E+03  0.47000000000E+01 0.  1.
         -5    1    1    2    0  502  0.31994671362E+02  0.38220773184E+01  0.24621085210E+02  0.40823462708E+02  0.47000000000E+01 0.  1.
        -11    1    3    3    0    0  0.12606214612E+02 -0.52632243635E+02  0.23342859248E+02  0.58940298564E+02  0.00000000000E+00 0.  1.
         11    1    3    3    0    0 -0.55064500146E+01  0.37106301787E+02  0.18208021215E+02  0.41698089412E+02  0.00000000000E+00 0. -1.
<mgrwt>
<rscale>  0 0.11647872E+03</rscale>
<asrwt>0</asrwt>
<pdfrwt beam="1">  1        1 0.16623673E-01 0.12616387E+03</pdfrwt>
<pdfrwt beam="2">  1       -1 0.21109516E-01 0.12616387E+03</pdfrwt>
<totfact> 0.56837813E+03</totfact>
</mgrwt>
</event>
<event>
 7    1  0.5107591E-006  0.2137335E+03  0.7546771E-02  0.1142071E+00
         -1   -1    0    0    0  501 -0.00000000000E+00  0.00000000000E+00  0.47228650357E+02  0.47228650357E+02  0.00000000000E+00 0.  1.
          1   -1    0    0  501    0  0.00000000000E+00 -0.00000000000E+00 -0.96529254488E+03  0.96529254488E+03  0.00000000000E+00 0. -1.
         23    2    1    2    0    0  0.15813888709E+03 -0.71067421965E+02 -0.58084040092E+03  0.61326980037E+03  0.93090228402E+02 0.  0.
          5    1    1    2  502    0 -0.15819032928E+03  0.89692953234E+02 -0.24557361374E+03  0.30561003894E+03  0.47000000000E+01 0. -1.
         -5    1    1    2    0  502  0.51442185143E-01 -0.18625531269E+02 -0.91649879865E+02  0.93641355931E+02  0.47000000000E+01 0. -1.
        -11    1    3    3    0    0  0.10800429988E+03 -0.84232034323E+02 -0.33301815246E+03  0.36008478761E+03  0.00000000000E+00 0.  1.
         11    1    3    3    0    0  0.50134587215E+02  0.13164612358E+02 -0.24782224846E+03  0.25318501276E+03  0.00000000000E+00 0. -1.
<mgrwt>
<rscale>  0 0.20936414E+03</rscale>
<asrwt>0</asrwt>
<pdfrwt beam="2">  1        1 0.14850655E+00 0.21373346E+03</pdfrwt>
<pdfrwt beam="1">  1       -1 0.72659460E-02 0.21373346E+03</pdfrwt>
<totfact> 0.16935668E+03</totfact>
</mgrwt>
</event>
<event>
 7    1  0.5107591E-006  0.1303607E+03  0.7546771E-02  0.1239561E+00
         -2   -1    0    0    0  501 -0.00000000000E+00  0.00000000000E+00  0.33903122258E+02  0.33903122258E+02  0.00000000000E+00 0. -1.
          2   -1    0    0  501    0  0.00000000000E+00 -0.00000000000E+00 -0.43438599933E+03  0.43438599933E+03  0.00000000000E+00 0.  1.
         23    2    1    2    0    0  0.10529648775E+02  0.35450720697E+02 -0.24839973229E+03  0.26798134159E+03  0.93509065528E+02 0.  0.
          5    1    1    2  502    0  0.10091181777E+02 -0.37642474439E+02 -0.16877247651E+03  0.17327731144E+03  0.47000000000E+01 0.  1.
         -5    1    1    2    0  502 -0.20620830551E+02  0.21917537425E+01  0.16689331730E+02  0.27030468562E+02  0.47000000000E+01 0.  1.
        -11    1    3    3    0    0 -0.20311012868E+02  0.56855831820E+02 -0.12195490645E+03  0.13608130681E+03  0.00000000000E+00 0. -1.
         11    1    3    3    0    0  0.30840661643E+02 -0.21405111124E+02 -0.12644482583E+03  0.13190003477E+03  0.00000000000E+00 0.  1.
<mgrwt>
<rscale>  0 0.12216941E+03</rscale>
<asrwt>0</asrwt>
<pdfrwt beam="2">  1        2 0.66828612E-01 0.13036074E+03</pdfrwt>
<pdfrwt beam="1">  1       -2 0.52158652E-02 0.13036074E+03</pdfrwt>
<totfact> 0.12620322E+04</totfact>
</mgrwt>
</event>
<event>
 7    1  0.5107591E-006  0.1282123E+03  0.7546771E-02  0.1239975E+00
          2   -1    0    0  501    0  0.00000000000E+00  0.00000000000E+00  0.10047164937E+03  0.10047164937E+03  0.00000000000E+00 0. -1.
         -2   -1    0    0    0  501 -0.00000000000E+00 -0.00000000000E+00 -0.13644958311E+03  0.13644958311E+03  0.00000000000E+00 0.  1.
         23    2    1    2    0    0 -0.27803338127E+02  0.40132012559E+02 -0.45298000579E+01  0.10490848170E+03  0.92745169155E+02 0.  0.
          5    1    1    2  502    0 -0.16047248720E+02  0.36110092552E+02 -0.14268190253E+02  0.42274392115E+02  0.47000000000E+01 0. -1.
         -5    1    1    2    0  502  0.43850586847E+02 -0.76242105112E+02 -0.17179943434E+02  0.89738358661E+02  0.47000000000E+01 0.  1.
        -11    1    3    3    0    0 -0.98068647672E+01 -0.19561524965E+02 -0.30358520260E+02  0.37422822020E+02  0.00000000000E+00 0.  1.
         11    1    3    3    0    0 -0.17996473359E+02  0.59693537525E+02  0.25828720202E+02  0.67485659683E+02  0.00000000000E+00 0. -1.
<mgrwt>
<rscale>  0 0.12191257E+03</rscale>
<asrwt>0</asrwt>
<pdfrwt beam="1">  1        2 0.15457177E-01 0.12821225E+03</pdfrwt>
<pdfrwt beam="2">  1       -2 0.20992244E-01 0.12821225E+03</pdfrwt>
<totfact> 0.68506965E+03</totfact>
</mgrwt>
</event>
<event>
 7    1  0.5107591E-006  0.1355806E+03  0.7546771E-02  0.1232471E+00
         -1   -1    0    0    0  501 -0.00000000000E+00  0.00000000000E+00  0.78711331291E+03  0.78711331291E+03  0.00000000000E+00 0.  1.
          1   -1    0    0  501    0  0.00000000000E+00 -0.00000000000E+00 -0.25098032762E+02  0.25098032762E+02  0.00000000000E+00 0. -1.
         23    2    1    2    0    0  0.34168456485E+02 -0.39905524983E+02  0.13125724967E+03  0.16704641479E+03  0.88972494408E+02 0.  0.
          5    1    1    2  502    0 -0.18315199257E+02  0.12513741530E+02  0.60113228072E+03  0.60155976359E+03  0.47000000000E+01 0. -1.
         -5    1    1    2    0  502 -0.15853257228E+02  0.27391783453E+02  0.29625749763E+02  0.43605167291E+02  0.47000000000E+01 0. -1.
        -11    1    3    3    0    0 -0.22253854218E+02 -0.29244762030E+02  0.19984178510E+02  0.41831298383E+02  0.00000000000E+00 0. -1.
         11    1    3    3    0    0  0.56422310703E+02 -0.10660762953E+02  0.11127307116E+03  0.12521511641E+03  0.00000000000E+00 0.  1.
<mgrwt>
<rscale>  0 0.12667747E+03</rscale>
<asrwt>0</asrwt>
<pdfrwt beam="2">  1        1 0.38612364E-02 0.13558058E+03</pdfrwt>
<pdfrwt beam="1">  1       -1 0.12109434E+00 0.13558058E+03</pdfrwt>
<totfact> 0.15080367E+03</totfact>
</mgrwt>
</event>
<event>
 7    1  0.5107591E-006  0.1330411E+03  0.7546771E-02  0.1235666E+00
          3   -1    0    0  501    0  0.00000000000E+00  0.00000000000E+00  0.25234619496E+03  0.25234619496E+03  0.00000000000E+00 0. -1.
         -3   -1    0    0    0  501 -0.00000000000E+00 -0.00000000000E+00 -0.56242894943E+02  0.56242894943E+02  0.00000000000E+00 0.  1.
         23    2    1    2    0    0 -0.41505486304E+02 -0.18784906609E+02  0.10901116587E+03  0.14957660207E+03  0.91728662321E+02 0.  0.
          5    1    1    2  502    0  0.73330989665E+02  0.46080134027E+02  0.39182889168E+02  0.95174584847E+02  0.47000000000E+01 0. -1.
         -5    1    1    2    0  502 -0.31825503362E+02 -0.27295227418E+02  0.47909244979E+02  0.63837902992E+02  0.47000000000E+01 0. -1.
        -11    1    3    3    0    0  0.22190267284E+02  0.15519679358E+02  0.47222988103E+02  0.54436008440E+02  0.00000000000E+00 0. -1.
         11    1    3    3    0    0 -0.63695753587E+02 -0.34304585967E+02  0.61788177769E+02  0.95140593626E+02  0.00000000000E+00 0.  1.
<mgrwt>
<rscale>  0 0.12461917E+03</rscale>
<asrwt>0</asrwt>
<pdfrwt beam="1">  1        3 0.38822491E-01 0.13304109E+03</pdfrwt>
<pdfrwt beam="2">  1       -3 0.86527532E-02 0.13304109E+03</pdfrwt>
<totfact> 0.14147955E+03</totfact>
</mgrwt>
</event>
<event>
 7    1  0.5107591E-006  0.1795456E+03  0.7546771E-02  0.1173807E+00
         -2   -1    0    0    0  501 -0.00000000000E+00  0.00000000000E+00  0.32464113064E+02  0.32464113064E+02  0.00000000000E+00 0.  1.
          2   -1    0    0  501    0  0.00000000000E+00 -0.00000000000E+00 -0.88479862526E+03  0.88479862526E+03  0.00000000000E+00 0. -1.
         23    2    1    2    0    0 -0.82607258722E+02  0.98936115760E+02 -0.35941274763E+03  0.39265958014E+03  0.91606269012E+02 0.  0.
          5    1    1    2  502    0  0.80891155705E+02 -0.12710840367E+03 -0.40498009644E+03  0.43212370204E+03  0.47000000000E+01 0.  1.
         -5    1    1    2    0  502  0.17161030164E+01  0.28172287905E+02 -0.87941668131E+02  0.92479456146E+02  0.47000000000E+01 0.  1.
        -11    1    3    3    0    0 -0.49293390637E+02 -0.12298866261E+01 -0.80043927379E+02  0.94012665593E+02  0.00000000000E+00 0.  1.
         11    1    3    3    0    0 -0.33313868085E+02  0.10016600239E+03 -0.27936882025E+03  0.29864691454E+03  0.00000000000E+00 0. -1.
<mgrwt>
<rscale>  0 0.17393310E+03</rscale>
<asrwt>0</asrwt>
<pdfrwt beam="2">  1        2 0.13612285E+00 0.17954556E+03</pdfrwt>
<pdfrwt beam="1">  1       -2 0.49944796E-02 0.17954556E+03</pdfrwt>
<totfact> 0.59886648E+03</totfact>
</mgrwt>
</event>
<event>
 7    1  0.5107591E-006  0.1691601E+03  0.7546771E-02  0.1187483E+00
         -2   -1    0    0    0  501 -0.00000000000E+00  0.00000000000E+00  0.79311502000E+02  0.79311502000E+02  0.00000000000E+00 0.  1.
          2   -1    0    0  501    0  0.00000000000E+00 -0.00000000000E+00 -0.31102062998E+03  0.31102062998E+03  0.00000000000E+00 0. -1.
         23    2    1    2    0    0  0.10530038087E+03  0.43607388891E+02 -0.14236920434E+03  0.19902931206E+03  0.79711367673E+02 0.  0.
          5    1    1    2  502    0  0.12906710550E+02 -0.48810105029E+02 -0.28682930578E+02  0.58256416270E+02  0.47000000000E+01 0. -1.
         -5    1    1    2    0  502 -0.11820709142E+03  0.52027161378E+01 -0.60656993062E+02  0.13304640365E+03  0.47000000000E+01 0. -1.
        -11    1    3    3    0    0  0.10944828415E+03  0.16132290916E+02 -0.12118664445E+03  0.16408955027E+03  0.00000000000E+00 0. -1.
         11    1    3    3    0    0 -0.41479032819E+01  0.27475097975E+02 -0.21182559883E+02  0.34939761785E+02  0.00000000000E+00 0.  1.
<mgrwt>
<rscale>  0 0.16107972E+03</rscale>
<asrwt>0</asrwt>
<pdfrwt beam="2">  1        2 0.47849327E-01 0.16916012E+03</pdfrwt>
<pdfrwt beam="1">  1       -2 0.12201770E-01 0.16916012E+03</pdfrwt>
<totfact> 0.49122777E+03</totfact>
</mgrwt>
</event>
<event>
 7    1  0.5107591E-006  0.1770642E+03  0.7546771E-02  0.1176624E+00
         -2   -1    0    0    0  501 -0.00000000000E+00  0.00000000000E+00  0.40723388734E+02  0.40723388734E+02  0.00000000000E+00 0.  1.
          2   -1    0    0  501    0  0.00000000000E+00 -0.00000000000E+00 -0.68449843778E+03  0.68449843778E+03  0.00000000000E+00 0. -1.
         23    2    1    2    0    0  0.54495320597E+02 -0.11291118552E+03 -0.25914037342E+03  0.30178875776E+03  0.90576185557E+02 0.  0.
          5    1    1    2  502    0  0.39154764463E+02  0.44615672582E+02 -0.15771554478E+03  0.16858213691E+03  0.47000000000E+01 0. -1.
         -5    1    1    2    0  502 -0.93650085060E+02  0.68295512937E+02 -0.22691913085E+03  0.25485093185E+03  0.47000000000E+01 0. -1.
        -11    1    3    3    0    0 -0.25559332000E+02 -0.24879603705E+02 -0.58187980251E+02  0.68250385922E+02  0.00000000000E+00 0.  1.
         11    1    3    3    0    0  0.80054652597E+02 -0.88031581814E+02 -0.20095239317E+03  0.23353837183E+03  0.00000000000E+00 0. -1.
<mgrwt>
<rscale>  0 0.17117857E+03</rscale>
<asrwt>0</asrwt>
<pdfrwt beam="2">  1        2 0.10530744E+00 0.17706420E+03</pdfrwt>
<pdfrwt beam="1">  1       -2 0.62651375E-02 0.17706420E+03</pdfrwt>
<totfact> 0.58401226E+03</totfact>
</mgrwt>
</event>
<event>
 7    1  0.5107591E-006  0.1385236E+03  0.7546771E-02  0.1227143E+00
          2   -1    0    0  501    0  0.00000000000E+00  0.00000000000E+00  0.41250772095E+03  0.41250772095E+03  0.00000000000E+00 0. -1.
         -2   -1    0    0    0  501 -0.00000000000E+00 -0.00000000000E+00 -0.37847957614E+02  0.37847957614E+02  0.00000000000E+00 0.  1.
         23    2    1    2    0    0 -0.28606099445E+02  0.52135762039E+02  0.20066283439E+03  0.22795126322E+03  0.90331382634E+02 0.  0.
          5    1    1    2  502    0  0.65323296599E+01 -0.60347899220E+02  0.16488230181E+02  0.63075288391E+02  0.47000000000E+01 0.  1.
         -5    1    1    2    0  502  0.22073769785E+02  0.82121371814E+01  0.15750869876E+03  0.15932912695E+03  0.47000000000E+01 0.  1.
        -11    1    3    3    0    0 -0.92334199100E+01  0.57693788578E+02  0.19937046661E+03  0.20775565514E+03  0.00000000000E+00 0. -1.
         11    1    3    3    0    0 -0.19372679535E+02 -0.55580265392E+01  0.12923677785E+01  0.20195608083E+02  0.00000000000E+00 0.  1.
<mgrwt>
<rscale>  0 0.13021125E+03</rscale>
<asrwt>0</asrwt>
<pdfrwt beam="1">  1        2 0.63462723E-01 0.13852362E+03</pdfrwt>
<pdfrwt beam="2">  1       -2 0.58227630E-02 0.13852362E+03</pdfrwt>
<totfact> 0.11351236E+04</totfact>
</mgrwt>
</event>
<event>
 7    1  0.5107591E-006  0.2906010E+03  0.7546771E-02  0.1091841E+00
         -2   -1    0    0    0  501 -0.00000000000E+00  0.00000000000E+00  0.45625639024E+02  0.45625639024E+02  0.00000000000E+00 0. -1.
          2   -1    0    0  501    0  0.00000000000E+00 -0.00000000000E+00 -0.17940924032E+04  0.17940924032E+04  0.00000000000E+00 0.  1.
         23    2    1    2    0    0  0.20784229886E+02 -0.26150592052E+03 -0.96922240573E+03  0.10080506149E+04  0.89199998140E+02 0.  0.
          5    1    1    2  502    0  0.48035217874E+02  0.59535172175E+02 -0.18433104978E+03  0.19962926838E+03  0.47000000000E+01 0. -1.
         -5    1    1    2    0  502 -0.68819447760E+02  0.20197074835E+03 -0.59491330863E+03  0.63203815894E+03  0.47000000000E+01 0. -1.
        -11    1    3    3    0    0  0.32809717135E+02 -0.33159625511E+02 -0.21119479632E+03  0.21628518279E+03  0.00000000000E+00 0.  1.
         11    1    3    3    0    0 -0.12025487249E+02 -0.22834629501E+03 -0.75802760941E+03  0.79176543207E+03  0.00000000000E+00 0. -1.
<mgrwt>
<rscale>  0 0.28716042E+03</rscale>
<asrwt>0</asrwt>
<pdfrwt beam="2">  1        2 0.27601422E+00 0.29060100E+03</pdfrwt>
<pdfrwt beam="1">  1       -2 0.70193290E-02 0.29060100E+03</pdfrwt>
<totfact> 0.11046110E+03</totfact>
</mgrwt>
</event>
<event>
 7    1  0.5107591E-006  0.1317769E+03  0.7546771E-02  0.1238757E+00
          1   -1    0    0  501    0  0.00000000000E+00  0.00000000000E+00  0.27228910739E+03  0.27228910739E+03  0.00000000000E+00 0. -1.
         -1   -1    0    0    0  501 -0.00000000000E+00 -0.00000000000E+00 -0.49501057943E+02  0.49501057943E+02  0.00000000000E+00 0.  1.
         23    2    1    2    0    0  0.40291357496E+02  0.10926413658E+02  0.11361438759E+03  0.15066432786E+03  0.89714717959E+02 0.  0.
          5    1    1    2  502    0 -0.63300060928E+02  0.82277583456E+01  0.68053788394E+01  0.64366116102E+02  0.47000000000E+01 0. -1.
         -5    1    1    2    0  502  0.23008703432E+02 -0.19154172003E+02  0.10236828302E+03  0.10675972137E+03  0.47000000000E+01 0. -1.
        -11    1    3    3    0    0  0.46459743817E+02 -0.17753613813E+02  0.21848866417E+02  0.54323766095E+02  0.00000000000E+00 0.  1.
         11    1    3    3    0    0 -0.61683863215E+01  0.28680027470E+02  0.91765521175E+02  0.96340561770E+02  0.00000000000E+00 0. -1.
<mgrwt>
<rscale>  0 0.12266927E+03</rscale>
<asrwt>0</asrwt>
<pdfrwt beam="1">  1        1 0.41890631E-01 0.13177695E+03</pdfrwt>
<pdfrwt beam="2">  1       -1 0.76155476E-02 0.13177695E+03</pdfrwt>
<totfact> 0.87006442E+03</totfact>
</mgrwt>
</event>
<event>
 7    1  0.5107591E-006  0.1681517E+03  0.7546771E-02  0.1186464E+00
          2   -1    0    0  501    0  0.00000000000E+00  0.00000000000E+00  0.65700201259E+03  0.65700201259E+03  0.00000000000E+00 0.  1.
         -2   -1    0    0    0  501 -0.00000000000E+00 -0.00000000000E+00 -0.48535722060E+02  0.48535722060E+02  0.00000000000E+00 0. -1.
         23    2    1    2    0    0  0.10136682583E+03  0.48746593902E+02  0.45637360422E+03  0.47880618922E+03  0.91252596725E+02 0.  0.
          5    1    1    2  502    0 -0.46168245863E+02 -0.56470071262E+02  0.96826183566E+01  0.73730719328E+02  0.47000000000E+01 0. -1.
         -5    1    1    2    0  502 -0.55198579971E+02  0.77234773603E+01  0.14241006795E+03  0.15300082610E+03  0.47000000000E+01 0. -1.
        -11    1    3    3    0    0  0.21878218068E+02 -0.74400179425E+01  0.16765107174E+02  0.28549590388E+02  0.00000000000E+00 0. -1.
         11    1    3    3    0    0  0.79488607767E+02  0.56186611844E+02  0.43960849705E+03  0.45025659883E+03  0.00000000000E+00 0.  1.
<mgrwt>
<rscale>  0 0.16199359E+03</rscale>
<asrwt>0</asrwt>
<pdfrwt beam="1">  1        2 0.10107723E+00 0.16815174E+03</pdfrwt>
<pdfrwt beam="2">  1       -2 0.74670346E-02 0.16815174E+03</pdfrwt>
<totfact> 0.46704796E+03</totfact>
</mgrwt>
</event>
<event>
 7    1  0.5107591E-006  0.1250741E+03  0.7546771E-02  0.1250566E+00
         -1   -1    0    0    0  501 -0.00000000000E+00  0.00000000000E+00  0.20549246955E+02  0.20549246955E+02  0.00000000000E+00 0.  1.
          1   -1    0    0  501    0  0.00000000000E+00 -0.00000000000E+00 -0.64949027287E+03  0.64949027287E+03  0.00000000000E+00 0. -1.
         23    2    1    2    0    0  0.31118914271E+01  0.28097829467E+01 -0.38789198375E+03  0.39847335674E+03  0.91122150054E+02 0.  0.
          5    1    1    2  502    0 -0.27307841037E+02 -0.42192150020E+02 -0.20928417726E+03  0.21528551404E+03  0.47000000000E+01 0. -1.
         -5    1    1    2    0  502  0.24195949610E+02  0.39382367073E+02 -0.31764864914E+02  0.56280649044E+02  0.47000000000E+01 0. -1.
        -11    1    3    3    0    0  0.41352479532E+02  0.23276475088E+02 -0.18414997643E+03  0.19016581100E+03  0.00000000000E+00 0.  1.
         11    1    3    3    0    0 -0.38240588105E+02 -0.20466692141E+02 -0.20374200732E+03  0.20830754574E+03  0.00000000000E+00 0. -1.
<mgrwt>
<rscale>  0 0.11558366E+03</rscale>
<asrwt>0</asrwt>
<pdfrwt beam="2">  1        1 0.99921589E-01 0.12507414E+03</pdfrwt>
<pdfrwt beam="1">  1       -1 0.31614223E-02 0.12507414E+03</pdfrwt>
<totfact> 0.10427640E+04</totfact>
</mgrwt>
</event>
<event>
 7    1  0.5107591E-006  0.1201627E+03  0.7546771E-02  0.1255670E+00
          1   -1    0    0  501    0  0.00000000000E+00  0.00000000000E+00  0.96167131235E+02  0.96167131235E+02  0.00000000000E+00 0. -1.
         -1   -1    0    0    0  501 -0.00000000000E+00 -0.00000000000E+00 -0.14373231320E+03  0.14373231320E+03  0.00000000000E+00 0.  1.
         23    2    1    2    0    0  0.22234955799E+02  0.10175744030E+02  0.29065313372E+02  0.97381703245E+02  0.89668638105E+02 0.  0.
          5    1    1    2  502    0  0.34096874514E+02 -0.24056039531E+02 -0.72977116914E+02  0.84196433907E+02  0.47000000000E+01 0. -1.
         -5    1    1    2    0  502 -0.56331830313E+02  0.13880295501E+02 -0.36533784262E+01  0.58321307286E+02  0.47000000000E+01 0.  1.
        -11    1    3    3    0    0  0.12880135144E+01 -0.37571580357E+02  0.24865097931E+02  0.45072782525E+02  0.00000000000E+00 0.  1.
         11    1    3    3    0    0  0.20946942285E+02  0.47747324387E+02  0.42002154404E+01  0.52308920721E+02  0.00000000000E+00 0. -1.
<mgrwt>
<rscale>  0 0.11268898E+03</rscale>
<asrwt>0</asrwt>
<pdfrwt beam="1">  1        1 0.14794943E-01 0.12016270E+03</pdfrwt>
<pdfrwt beam="2">  1       -1 0.22112663E-01 0.12016270E+03</pdfrwt>
<totfact> 0.61058615E+03</totfact>
</mgrwt>
</event>
<event>
 7    1  0.5107591E-006  0.1254585E+03  0.7546771E-02  0.1249966E+00
          1   -1    0    0  501    0  0.00000000000E+00  0.00000000000E+00  0.47195638212E+02  0.47195638212E+02  0.00000000000E+00 0. -1.
         -1   -1    0    0    0  501 -0.00000000000E+00 -0.00000000000E+00 -0.30010998070E+03  0.30010998070E+03  0.00000000000E+00 0.  1.
         23    2    1    2    0    0 -0.42931755281E+01 -0.98287452555E+01 -0.39261413741E+02  0.99540789251E+02  0.90839828965E+02 0.  0.
          5    1    1    2  502    0  0.24377624136E+02 -0.38306756303E+02 -0.17957088626E+03  0.18528213441E+03  0.47000000000E+01 0.  1.
         -5    1    1    2    0  502 -0.20084448608E+02  0.48135501559E+02 -0.34082042483E+02  0.62482695252E+02  0.47000000000E+01 0.  1.
        -11    1    3    3    0    0 -0.44057407434E+02 -0.18848794740E+01 -0.39182919966E+02  0.58990754678E+02  0.00000000000E+00 0. -1.
         11    1    3    3    0    0  0.39764231906E+02 -0.79438657815E+01 -0.78493774449E-01  0.40550034573E+02  0.00000000000E+00 0.  1.
<mgrwt>
<rscale>  0 0.11592997E+03</rscale>
<asrwt>0</asrwt>
<pdfrwt beam="1">  1        1 0.72608675E-02 0.12545851E+03</pdfrwt>
<pdfrwt beam="2">  1       -1 0.46170766E-01 0.12545851E+03</pdfrwt>
<totfact> 0.44960581E+03</totfact>
</mgrwt>
</event>
<event>
 7    1  0.5107591E-006  0.1422241E+03  0.7546771E-02  0.1220862E+00
         -1   -1    0    0    0  501 -0.00000000000E+00  0.00000000000E+00  0.19388571178E+03  0.19388571178E+03  0.00000000000E+00 0.  1.
          1   -1    0    0  501    0  0.00000000000E+00 -0.00000000000E+00 -0.90592934199E+02  0.90592934199E+02  0.00000000000E+00 0. -1.
         23    2    1    2    0    0 -0.64316255212E+02 -0.21621042013E+02  0.99194813098E+01  0.11434259002E+03  0.91497440620E+02 0.  0.
          5    1    1    2  502    0  0.80669881639E+02 -0.29105324615E+02  0.40659341295E+02  0.95026426636E+02  0.47000000000E+01 0. -1.
         -5    1    1    2    0  502 -0.16353626427E+02  0.50726366628E+02  0.52713954980E+02  0.75109629331E+02  0.47000000000E+01 0. -1.
        -11    1    3    3    0    0 -0.27106147284E+02 -0.47785949695E+02 -0.21566822013E+02  0.59020064559E+02  0.00000000000E+00 0. -1.
         11    1    3    3    0    0 -0.37210107929E+02  0.26164907681E+02  0.31486303323E+02  0.55322525457E+02  0.00000000000E+00 0.  1.
<mgrwt>
<rscale>  0 0.13454634E+03</rscale>
<asrwt>0</asrwt>
<pdfrwt beam="2">  1        1 0.13937375E-01 0.14222414E+03</pdfrwt>
<pdfrwt beam="1">  1       -1 0.29828571E-01 0.14222414E+03</pdfrwt>
<totfact> 0.40742088E+03</totfact>
</mgrwt>
</event>
<event>
 6    1  0.5107591E-006  0.1167284E+03  0.7546771E-02  0.1299602E+00
          2   -1    0    0  501    0  0.00000000000E+00  0.00000000000E+00  0.43677855924E+02  0.43677855924E+02  0.00000000000E+00 0. -1.
         -2   -1    0    0    0  501 -0.00000000000E+00 -0.00000000000E+00 -0.20075058399E+03  0.20075058399E+03  0.00000000000E+00 0.  1.
          5    1    1    2  502    0 -0.27972052826E+02  0.42431272871E+02 -0.29253465928E+02  0.58827747922E+02  0.47000000000E+01 0. -1.
         -5    1    1    2    0  502  0.12267663763E+02 -0.44900886980E+02 -0.13348184957E+03  0.14144284850E+03  0.47000000000E+01 0.  1.
        -11    1    1    2    0    0  0.27428184891E+02  0.10727205957E+02  0.36104537753E+01  0.29671765208E+02  0.00000000000E+00 0. -1.
         11    1    1    2    0    0 -0.11723795828E+02 -0.82575918475E+01  0.20521336540E+01  0.14486078292E+02  0.00000000000E+00 0.  1.
<mgrwt>
<rscale>  0 0.91355427E+02</rscale>
<asrwt>0</asrwt>
<pdfrwt beam="1">  1        2 0.67196702E-02 0.11672844E+03</pdfrwt>
<pdfrwt beam="2">  1       -2 0.30884705E-01 0.11672844E+03</pdfrwt>
<totfact> 0.95559712E+03</totfact>
</mgrwt>
</event>
<event>
 7    1  0.5107591E-006  0.1284968E+03  0.7546771E-02  0.1243599E+00
          2   -1    0    0  501    0  0.00000000000E+00  0.00000000000E+00  0.14837360467E+03  0.14837360467E+03  0.00000000000E+00 0. -1.
         -2   -1    0    0    0  501 -0.00000000000E+00 -0.00000000000E+00 -0.90317696084E+02  0.90317696084E+02  0.00000000000E+00 0.  1.
         23    2    1    2    0    0  0.27285053448E+01 -0.29648259535E+02  0.52497609594E+02  0.11007429589E+03  0.92053721101E+02 0.  0.
          5    1    1    2  502    0  0.45094958079E+02 -0.26930294525E+02  0.12078740901E+02  0.54099741119E+02  0.47000000000E+01 0. -1.
         -5    1    1    2    0  502 -0.47823463424E+02  0.56578554059E+02 -0.65204419058E+01  0.74517263744E+02  0.47000000000E+01 0. -1.
        -11    1    3    3    0    0  0.39003919979E+02 -0.94994306472E+01  0.55470052845E+02  0.68472415752E+02  0.00000000000E+00 0. -1.
         11    1    3    3    0    0 -0.36275414634E+02 -0.20148828887E+02 -0.29724432513E+01  0.41601880141E+02  0.00000000000E+00 0.  1.
<mgrwt>
<rscale>  0 0.11969634E+03</rscale>
<asrwt>0</asrwt>
<pdfrwt beam="1">  1        2 0.22826708E-01 0.12849685E+03</pdfrwt>
<pdfrwt beam="2">  1       -2 0.13895030E-01 0.12849685E+03</pdfrwt>
<totfact> 0.87135019E+03</totfact>
</mgrwt>
</event>
<event>
 7    1  0.5107591E-006  0.1406652E+03  0.7546771E-02  0.1221405E+00
          2   -1    0    0  501    0  0.00000000000E+00  0.00000000000E+00  0.88033056320E+03  0.88033056320E+03  0.00000000000E+00 0. -1.
         -2   -1    0    0    0  501 -0.00000000000E+00 -0.00000000000E+00 -0.19306444608E+02  0.19306444608E+02  0.00000000000E+00 0.  1.
         23    2    1    2    0    0 -0.56924598681E+02  0.30319198044E+02  0.46586173763E+03  0.48018496830E+03  0.96906044622E+02 0.  0.
          5    1    1    2  502    0  0.68841234271E+02  0.19016549139E+02  0.12093688924E+03  0.14052959068E+03  0.47000000000E+01 0.  1.
         -5    1    1    2    0  502 -0.11916635590E+02 -0.49335747183E+02  0.27422549171E+03  0.27892244882E+03  0.47000000000E+01 0.  1.
        -11    1    3    3    0    0  0.23698918760E+02  0.22887020312E+02  0.93865336619E+02  0.99479424344E+02  0.00000000000E+00 0.  1.
         11    1    3    3    0    0 -0.80623517441E+02  0.74321777320E+01  0.37199640102E+03  0.38070554396E+03  0.00000000000E+00 0. -1.
<mgrwt>
<rscale>  0 0.13416346E+03</rscale>
<asrwt>0</asrwt>
<pdfrwt beam="1">  1        2 0.13543544E+00 0.14066523E+03</pdfrwt>
<pdfrwt beam="2">  1       -2 0.29702229E-02 0.14066523E+03</pdfrwt>
<totfact> 0.12913763E+04</totfact>
</mgrwt>
</event>
<event>
 7    1  0.5107591E-006  0.1355592E+03  0.7546771E-02  0.1232116E+00
          2   -1    0    0  501    0  0.00000000000E+00  0.00000000000E+00  0.11838993849E+04  0.11838993849E+04  0.00000000000E+00 0. -1.
         -2   -1    0    0    0  501 -0.00000000000E+00 -0.00000000000E+00 -0.12694660336E+02  0.12694660336E+02  0.00000000000E+00 0.  1.
         23    2    1    2    0    0  0.35426356700E+02 -0.38678983190E+02  0.38728375880E+03  0.40103865644E+03  0.89956676457E+02 0.  0.
          5    1    1    2  502    0 -0.23327348426E+02 -0.30636725764E+02  0.54669048627E+03  0.54806509826E+03  0.47000000000E+01 0. -1.
         -5    1    1    2    0  502 -0.12099008274E+02  0.69315708953E+02  0.23723047946E+03  0.24749029051E+03  0.47000000000E+01 0. -1.
        -11    1    3    3    0    0 -0.26942069147E+02 -0.29509125753E+02  0.12241123988E+03  0.12876791232E+03  0.00000000000E+00 0. -1.
         11    1    3    3    0    0  0.62368425847E+02 -0.91698574366E+01  0.26487251892E+03  0.27227074412E+03  0.00000000000E+00 0.  1.
<mgrwt>
<rscale>  0 0.12690885E+03</rscale>
<asrwt>0</asrwt>
<pdfrwt beam="1">  1        2 0.18213828E+00 0.13555920E+03</pdfrwt>
<pdfrwt beam="2">  1       -2 0.19530256E-02 0.13555920E+03</pdfrwt>
<totfact> 0.15713224E+04</totfact>
</mgrwt>
</event>
<event>
 7    1  0.5107591E-006  0.2007287E+03  0.7546771E-02  0.1153461E+00
         -2   -1    0    0    0  501 -0.00000000000E+00  0.00000000000E+00  0.29560311571E+02  0.29560311571E+02  0.00000000000E+00 0.  1.
          2   -1    0    0  501    0  0.00000000000E+00 -0.00000000000E+00 -0.12716362424E+04  0.12716362424E+04  0.00000000000E+00 0. -1.
         23    2    1    2    0    0  0.12021092185E+03 -0.10105268469E+03 -0.47768243197E+03  0.51088685840E+03  0.90346917282E+02 0.  0.
          5    1    1    2  502    0 -0.14275660011E+03  0.81925759954E+02 -0.55904460483E+03  0.58279004556E+03  0.47000000000E+01 0. -1.
         -5    1    1    2    0  502  0.22545678254E+02  0.19126924740E+02 -0.20534889402E+03  0.20751965000E+03  0.47000000000E+01 0. -1.
        -11    1    3    3    0    0  0.18558357335E+02 -0.34815368031E+01 -0.79685600820E+01  0.20494674314E+02  0.00000000000E+00 0.  1.
         11    1    3    3    0    0  0.10165256452E+03 -0.97571147890E+02 -0.46971387189E+03  0.49039218409E+03  0.00000000000E+00 0. -1.
<mgrwt>
<rscale>  0 0.19565116E+03</rscale>
<asrwt>0</asrwt>
<pdfrwt beam="2">  1        2 0.19563637E+00 0.20072866E+03</pdfrwt>
<pdfrwt beam="1">  1       -2 0.45477395E-02 0.20072866E+03</pdfrwt>
<totfact> 0.40929621E+03</totfact>
</mgrwt>
</event>
<event>
 7    1  0.5107591E-006  0.1409778E+03  0.7546771E-02  0.1221392E+00
          1   -1    0    0  501    0  0.00000000000E+00  0.00000000000E+00  0.86168620473E+02  0.86168620473E+02  0.00000000000E+00 0.  1.
         -1   -1    0    0    0  501 -0.00000000000E+00 -0.00000000000E+00 -0.22794247838E+03  0.22794247838E+03  0.00000000000E+00 0. -1.
         23    2    1    2    0    0  0.64331112675E+02  0.10575188088E+02 -0.21385122488E+01  0.11568537165E+03  0.95541641805E+02 0.  0.
          5    1    1    2  502    0 -0.25013747078E+02  0.56059454012E+02 -0.78153236687E+02  0.99490543931E+02  0.47000000000E+01 0. -1.
         -5    1    1    2    0  502 -0.39317365596E+02 -0.66634642101E+02 -0.61482108974E+02  0.98935183273E+02  0.47000000000E+01 0. -1.
        -11    1    3    3    0    0  0.17376957536E+02  0.39478230689E+01 -0.47088129329E+02  0.50347153682E+02  0.00000000000E+00 0. -1.
         11    1    3    3    0    0  0.46954155139E+02  0.66273650195E+01  0.44949617080E+02  0.65338217970E+02  0.00000000000E+00 0.  1.
<mgrwt>
<rscale>  0 0.13417268E+03</rscale>
<asrwt>0</asrwt>
<pdfrwt beam="1">  1        1 0.13256711E-01 0.14097780E+03</pdfrwt>
<pdfrwt beam="2">  1       -1 0.35068074E-01 0.14097780E+03</pdfrwt>
<totfact> 0.33021085E+03</totfact>
</mgrwt>
</event>
<event>
 7    1  0.5107591E-006  0.1706141E+03  0.7546771E-02  0.1202768E+00
         -4   -1    0    0    0  501 -0.00000000000E+00  0.00000000000E+00  0.38526936520E+03  0.38526936520E+03  0.00000000000E+00 0.  1.
          4   -1    0    0  501    0  0.00000000000E+00 -0.00000000000E+00 -0.66875926732E+02  0.66875926732E+02  0.00000000000E+00 0. -1.
         23    2    1    2    0    0  0.26213579088E+02 -0.21986475686E+02  0.72088950401E+01  0.97257990931E+02  0.90755670845E+02 0.  0.
          5    1    1    2  502    0 -0.18686826007E+02 -0.27286083133E+02 -0.58601466740E+01  0.33913995901E+02  0.47000000000E+01 0. -1.
         -5    1    1    2    0  502 -0.75267530806E+01  0.49272558819E+02  0.31704469011E+03  0.32097330510E+03  0.47000000000E+01 0.  1.
        -11    1    3    3    0    0 -0.25195180258E+01 -0.52489403625E+02 -0.69904575399E+01  0.53012752811E+02  0.00000000000E+00 0.  1.
         11    1    3    3    0    0  0.28733097114E+02  0.30502927939E+02  0.14199352580E+02  0.44245238120E+02  0.00000000000E+00 0. -1.
<mgrwt>
<rscale>  0 0.14814721E+03</rscale>
<asrwt>0</asrwt>
<pdfrwt beam="2">  1        4 0.10288604E-01 0.17061412E+03</pdfrwt>
<pdfrwt beam="1">  1       -4 0.59272209E-01 0.17061412E+03</pdfrwt>
<totfact> 0.34119533E+02</totfact>
</mgrwt>
</event>
<event>
 7    1  0.5107591E-006  0.1307412E+03  0.7546771E-02  0.1239026E+00
          1   -1    0    0  501    0  0.00000000000E+00  0.00000000000E+00  0.43688188084E+03  0.43688188084E+03  0.00000000000E+00 0. -1.
         -1   -1    0    0    0  501 -0.00000000000E+00 -0.00000000000E+00 -0.92376856936E+02  0.92376856936E+02  0.00000000000E+00 0.  1.
         23    2    1    2    0    0 -0.43451570730E+02 -0.88055503557E+00  0.38052879754E+03  0.39364544916E+03  0.90916222482E+02 0.  0.
          5    1    1    2  502    0  0.58000266586E+02 -0.10699023218E+02  0.30369840901E+02  0.66505016791E+02  0.47000000000E+01 0. -1.
         -5    1    1    2    0  502 -0.14548695857E+02  0.11579578254E+02 -0.66393614537E+02  0.69108271827E+02  0.47000000000E+01 0.  1.
        -11    1    3    3    0    0  0.13460613881E+02  0.31175061679E+02  0.16401782298E+03  0.16749602637E+03  0.00000000000E+00 0.  1.
         11    1    3    3    0    0 -0.56912184611E+02 -0.32055616714E+02  0.21651097457E+03  0.22614942279E+03  0.00000000000E+00 0. -1.
<mgrwt>
<rscale>  0 0.12250166E+03</rscale>
<asrwt>0</asrwt>
<pdfrwt beam="1">  1        1 0.67212596E-01 0.13074116E+03</pdfrwt>
<pdfrwt beam="2">  1       -1 0.14211824E-01 0.13074116E+03</pdfrwt>
<totfact> 0.18571753E+03</totfact>
</mgrwt>
</event>
<event>
 7    1  0.5107591E-006  0.1255432E+03  0.7546771E-02  0.1270953E+00
         -1   -1    0    0    0  501 -0.00000000000E+00  0.00000000000E+00  0.75636049230E+03  0.75636049230E+03  0.00000000000E+00 0.  1.
          1   -1    0    0  501    0  0.00000000000E+00 -0.00000000000E+00 -0.12147771975E+02  0.12147771975E+02  0.00000000000E+00 0. -1.
         23    2    1    2    0    0  0.56099682046E+01 -0.10049774987E+02  0.16191391401E+03  0.17282965846E+03  0.59342274768E+02 0.  0.
          5    1    1    2  502    0 -0.54411768800E+02  0.15219287252E+02  0.46496225115E+03  0.46840607627E+03  0.47000000000E+01 0. -1.
         -5    1    1    2    0  502  0.48801800595E+02 -0.51695122651E+01  0.11733655517E+03  0.12727252955E+03  0.47000000000E+01 0. -1.
        -11    1    3    3    0    0  0.25303069082E+02  0.11687269871E+02  0.51182332786E+02  0.58279231047E+02  0.00000000000E+00 0. -1.
         11    1    3    3    0    0 -0.19693100878E+02 -0.21737044858E+02  0.11073158122E+03  0.11455042741E+03  0.00000000000E+00 0.  1.
<mgrwt>
<rscale>  0 0.10457808E+03</rscale>
<asrwt>0</asrwt>
<pdfrwt beam="2">  1        1 0.18688886E-02 0.12554323E+03</pdfrwt>
<pdfrwt beam="1">  1       -1 0.11636312E+00 0.12554323E+03</pdfrwt>
<totfact> 0.45056668E+03</totfact>
</mgrwt>
</event>
<event>
 7    1  0.5107591E-006  0.1911745E+03  0.7546771E-02  0.1161018E+00
          1   -1    0    0  501    0  0.00000000000E+00  0.00000000000E+00  0.36446391812E+03  0.36446391812E+03  0.00000000000E+00 0. -1.
         -1   -1    0    0    0  501 -0.00000000000E+00 -0.00000000000E+00 -0.94274764001E+02  0.94274764001E+02  0.00000000000E+00 0.  1.
         23    2    1    2    0    0  0.14504439728E+00 -0.15225826774E+03  0.16231582598E+03  0.23922936604E+03  0.87759108240E+02 0.  0.
          5    1    1    2  502    0  0.28102623839E+02 -0.33973939522E+01  0.35031466490E+02  0.45283478187E+02  0.47000000000E+01 0. -1.
         -5    1    1    2    0  502 -0.28247668236E+02  0.15565566170E+03  0.72841861643E+02  0.17422583789E+03  0.47000000000E+01 0.  1.
        -11    1    3    3    0    0  0.35270365569E+02 -0.12867873427E+03  0.12423691057E+03  0.18231024460E+03  0.00000000000E+00 0. -1.
         11    1    3    3    0    0 -0.35125321172E+02 -0.23579533479E+02  0.38078915411E+02  0.56919121439E+02  0.00000000000E+00 0.  1.
<mgrwt>
<rscale>  0 0.18719300E+03</rscale>
<asrwt>0</asrwt>
<pdfrwt beam="1">  1        1 0.56071371E-01 0.19117449E+03</pdfrwt>
<pdfrwt beam="2">  1       -1 0.14503810E-01 0.19117449E+03</pdfrwt>
<totfact> 0.22887927E+03</totfact>
</mgrwt>
</event>
<event>
 7    1  0.5107591E-006  0.1273725E+03  0.7546771E-02  0.1243660E+00
         -2   -1    0    0    0  501 -0.00000000000E+00  0.00000000000E+00  0.47418872338E+03  0.47418872338E+03  0.00000000000E+00 0.  1.
          2   -1    0    0  501    0  0.00000000000E+00 -0.00000000000E+00 -0.60494505540E+02  0.60494505540E+02  0.00000000000E+00 0. -1.
         23    2    1    2    0    0 -0.36027340050E+02 -0.57640300635E+01 -0.26964603934E+01  0.99246716391E+02  0.92257501278E+02 0.  0.
          5    1    1    2  502    0  0.38311994788E+02  0.57110541560E+02  0.30466774693E+03  0.31236829051E+03  0.47000000000E+01 0. -1.
         -5    1    1    2    0  502 -0.22846547382E+01 -0.51346511496E+02  0.11172293131E+03  0.12306822202E+03  0.47000000000E+01 0.  1.
        -11    1    3    3    0    0 -0.21265038918E+02  0.26816331698E+02  0.33830590295E+02  0.48123033629E+02  0.00000000000E+00 0.  1.
         11    1    3    3    0    0 -0.14762301132E+02 -0.32580361761E+02 -0.36527050688E+02  0.51123682762E+02  0.00000000000E+00 0. -1.
<mgrwt>
<rscale>  0 0.11965911E+03</rscale>
<asrwt>0</asrwt>
<pdfrwt beam="2">  1        2 0.93068473E-02 0.12737252E+03</pdfrwt>
<pdfrwt beam="1">  1       -2 0.72952109E-01 0.12737252E+03</pdfrwt>
<totfact> 0.11873156E+03</totfact>
</mgrwt>
</event>
<event>
 7    1  0.5107591E-006  0.2419429E+03  0.7546771E-02  0.1121223E+00
         -2   -1    0    0    0  501 -0.00000000000E+00  0.00000000000E+00  0.15019677075E+03  0.15019677075E+03  0.00000000000E+00 0.  1.
          2   -1    0    0  501    0  0.00000000000E+00 -0.00000000000E+00 -0.74022019444E+03  0.74022019444E+03  0.00000000000E+00 0. -1.
         23    2    1    2    0    0  0.18514762659E+03  0.92752733590E+02 -0.60715565712E+03  0.64786822985E+03  0.90623054782E+02 0.  0.
          5    1    1    2  502    0 -0.63015484202E+02 -0.98349445097E+02 -0.96612130055E+01  0.11729873672E+03  0.47000000000E+01 0. -1.
         -5    1    1    2    0  502 -0.12213214239E+03  0.55967115070E+01  0.26793446434E+02  0.12524999862E+03  0.47000000000E+01 0. -1.
        -11    1    3    3    0    0  0.37203796955E+01  0.33412916512E+02 -0.12090478739E+03  0.12549195922E+03  0.00000000000E+00 0. -1.
         11    1    3    3    0    0  0.18142724689E+03  0.59339817078E+02 -0.48625086973E+03  0.52237627063E+03  0.00000000000E+00 0.  1.
<mgrwt>
<rscale>  0 0.23786594E+03</rscale>
<asrwt>0</asrwt>
<pdfrwt beam="2">  1        2 0.11388003E+00 0.24194292E+03</pdfrwt>
<pdfrwt beam="1">  1       -2 0.23107196E-01 0.24194292E+03</pdfrwt>
<totfact> 0.64313726E+02</totfact>
</mgrwt>
</event>
<event>
 7    1  0.5107591E-006  0.2201617E+03  0.7546771E-02  0.1137257E+00
         -2   -1    0    0    0  501 -0.00000000000E+00  0.00000000000E+00  0.25436357299E+03  0.25436357299E+03  0.00000000000E+00 0.  1.
          2   -1    0    0  501    0  0.00000000000E+00 -0.00000000000E+00 -0.19579046823E+03  0.19579046823E+03  0.00000000000E+00 0. -1.
         23    2    1    2    0    0  0.44566166264E+02  0.17568969281E+03 -0.44490420664E+02  0.20706299823E+03  0.89680969940E+02 0.  0.
          5    1    1    2  502    0 -0.84819415272E+01 -0.48474520166E+02 -0.28030700035E+02  0.56828976604E+02  0.47000000000E+01 0.  1.
         -5    1    1    2    0  502 -0.36084224737E+02 -0.12721517264E+03  0.13109422546E+03  0.18626206638E+03  0.47000000000E+01 0.  1.
        -11    1    3    3    0    0  0.24270936714E+02  0.40140879540E+01  0.88588948624E+01  0.26147108622E+02  0.00000000000E+00 0.  1.
         11    1    3    3    0    0  0.20295229549E+02  0.17167560486E+03 -0.53349315526E+02  0.18091588961E+03  0.00000000000E+00 0. -1.
<mgrwt>
<rscale>  0 0.21553410E+03</rscale>
<asrwt>0</asrwt>
<pdfrwt beam="2">  1        2 0.30121611E-01 0.22016168E+03</pdfrwt>
<pdfrwt beam="1">  1       -2 0.39132857E-01 0.22016168E+03</pdfrwt>
<totfact> 0.10810872E+03</totfact>
</mgrwt>
</event>
<event>
 7    1  0.5107591E-006  0.1390332E+03  0.7546771E-02  0.1227340E+00
         -2   -1    0    0    0  501 -0.00000000000E+00  0.00000000000E+00  0.54988138208E+02  0.54988138208E+02  0.00000000000E+00 0.  1.
          2   -1    0    0  501    0  0.00000000000E+00 -0.00000000000E+00 -0.27432297386E+03  0.27432297386E+03  0.00000000000E+00 0. -1.
         23    2    1    2    0    0 -0.53249804572E+02 -0.29451932838E+02 -0.91076349605E+02  0.14015388183E+03  0.87437126552E+02 0.  0.
          5    1    1    2  502    0 -0.23973740615E+01 -0.13619620056E+02 -0.11679660769E+03  0.11770632532E+03  0.47000000000E+01 0.  1.
         -5    1    1    2    0  502  0.55647178633E+02  0.43071552894E+02 -0.11461878362E+02  0.71450904922E+02  0.47000000000E+01 0.  1.
        -11    1    3    3    0    0 -0.67744092454E+02 -0.28867183687E+02 -0.99187305313E+02  0.12353419726E+03  0.00000000000E+00 0. -1.
         11    1    3    3    0    0  0.14494287882E+02 -0.58474915017E+00  0.81109557087E+01  0.16619684573E+02  0.00000000000E+00 0.  1.
<mgrwt>
<rscale>  0 0.13007826E+03</rscale>
<asrwt>0</asrwt>
<pdfrwt beam="2">  1        2 0.42203535E-01 0.13903316E+03</pdfrwt>
<pdfrwt beam="1">  1       -2 0.84597135E-02 0.13903316E+03</pdfrwt>
<totfact> 0.98855940E+03</totfact>
</mgrwt>
</event>
<event>
 7    1  0.5107591E-006  0.3883047E+03  0.7546771E-02  0.1048740E+00
          1   -1    0    0  501    0  0.00000000000E+00  0.00000000000E+00  0.16513625056E+03  0.16513625056E+03  0.00000000000E+00 0. -1.
         -1   -1    0    0    0  501 -0.00000000000E+00 -0.00000000000E+00 -0.89645917722E+03  0.89645917722E+03  0.00000000000E+00 0.  1.
         23    2    1    2    0    0  0.32654024829E+03  0.16890323760E+03 -0.40014198294E+03  0.55124128530E+03  0.92717369888E+02 0.  0.
          5    1    1    2  502    0 -0.25821553158E+03 -0.12415160428E+03 -0.17982186998E+03  0.33829998007E+03  0.47000000000E+01 0. -1.
         -5    1    1    2    0  502 -0.68324716706E+02 -0.44751633324E+02 -0.15135907375E+03  0.17205416241E+03  0.47000000000E+01 0. -1.
        -11    1    3    3    0    0  0.16602642486E+03  0.60369773462E+02 -0.13253086418E+03  0.22084771509E+03  0.00000000000E+00 0. -1.
         11    1    3    3    0    0  0.16051382342E+03  0.10853346414E+03 -0.26761111876E+03  0.33039357020E+03  0.00000000000E+00 0.  1.
<mgrwt>
<rscale>  0 0.38599504E+03</rscale>
<asrwt>0</asrwt>
<pdfrwt beam="1">  1        1 0.25405577E-01 0.38830469E+03</pdfrwt>
<pdfrwt beam="2">  1       -1 0.13791680E+00 0.38830469E+03</pdfrwt>
<totfact> 0.87260426E+01</totfact>
</mgrwt>
</event>
<event>
 7    1  0.5107591E-006  0.1352770E+03  0.7546771E-02  0.1232010E+00
          1   -1    0    0  501    0  0.00000000000E+00  0.00000000000E+00  0.77726109260E+03  0.77726109260E+03  0.00000000000E+00 0. -1.
         -1   -1    0    0    0  501 -0.00000000000E+00 -0.00000000000E+00 -0.20912379744E+02  0.20912379744E+02  0.00000000000E+00 0.  1.
         23    2    1    2    0    0 -0.44856424227E+01  0.51528203685E+02  0.46845667428E+03  0.48008279422E+03  0.91392323888E+02 0.  0.
          5    1    1    2  502    0  0.25924174845E+02  0.31207461536E+01  0.24194605802E+03  0.24339635759E+03  0.47000000000E+01 0. -1.
         -5    1    1    2    0  502 -0.21438532422E+02 -0.54648949838E+02  0.45945980562E+02  0.74694320538E+02  0.47000000000E+01 0. -1.
        -11    1    3    3    0    0 -0.39027264381E+02 -0.15941397156E+01  0.23288571307E+03  0.23613856949E+03  0.00000000000E+00 0. -1.
         11    1    3    3    0    0  0.34541621959E+02  0.53122343400E+02  0.23557096121E+03  0.24394422473E+03  0.00000000000E+00 0.  1.
<mgrwt>
<rscale>  0 0.12697819E+03</rscale>
<asrwt>0</asrwt>
<pdfrwt beam="1">  1        1 0.11957861E+00 0.13527695E+03</pdfrwt>
<pdfrwt beam="2">  1       -1 0.32172898E-02 0.13527695E+03</pdfrwt>
<totfact> 0.78935666E+03</totfact>
</mgrwt>
</event>
<event>
 7    1  0.5107591E-006  0.3455964E+03  0.7546771E-02  0.1104993E+00
         -2   -1    0    0    0  501 -0.00000000000E+00  0.00000000000E+00  0.61114700748E+02  0.61114700748E+02  0.00000000000E+00 0.  1.
          2   -1    0    0  501    0  0.00000000000E+00 -0.00000000000E+00 -0.95344455217E+03  0.95344455217E+03  0.00000000000E+00 0. -1.
         23    2    1    2    0    0 -0.58774977766E+02  0.38671182799E+02 -0.37161073225E+03  0.38959104342E+03  0.93470243391E+02 0.  0.
          5    1    1    2  502    0  0.33691967925E+02 -0.27729958559E+02 -0.56823879691E+03  0.56993115341E+03  0.47000000000E+01 0. -1.
         -5    1    1    2    0  502  0.25083009841E+02 -0.10941224240E+02  0.47519677742E+02  0.55037056092E+02  0.47000000000E+01 0.  1.
        -11    1    3    3    0    0 -0.75642581214E+02  0.37682202105E+01 -0.28119018579E+03  0.29121112644E+03  0.00000000000E+00 0.  1.
         11    1    3    3    0    0  0.16867603448E+02  0.34902962589E+02 -0.90420546466E+02  0.98379916989E+02  0.00000000000E+00 0. -1.
<mgrwt>
<rscale>  0 0.26361130E+03</rscale>
<asrwt>0</asrwt>
<pdfrwt beam="2">  1        2 0.14668376E+00 0.34559639E+03</pdfrwt>
<pdfrwt beam="1">  1       -2 0.94022629E-02 0.34559639E+03</pdfrwt>
<totfact> 0.20565908E+03</totfact>
</mgrwt>
</event>
<event>
 7    1  0.5107591E-006  0.2167452E+03  0.7546771E-02  0.1139869E+00
          2   -1    0    0  501    0  0.00000000000E+00  0.00000000000E+00  0.79582351401E+03  0.79582351401E+03  0.00000000000E+00 0. -1.
         -2   -1    0    0    0  501 -0.00000000000E+00 -0.00000000000E+00 -0.54776041545E+02  0.54776041545E+02  0.00000000000E+00 0.  1.
         23    2    1    2    0    0  0.14864648120E+03  0.96223116365E+02  0.31472924365E+03  0.37234678715E+03  0.90735707408E+02 0.  0.
          5    1    1    2  502    0 -0.13494491630E+03 -0.28573802357E+02  0.34442280168E+03  0.37104682849E+03  0.47000000000E+01 0. -1.
         -5    1    1    2    0  502 -0.13701564901E+02 -0.67649314008E+02  0.81895427128E+02  0.10720593990E+03  0.47000000000E+01 0. -1.
        -11    1    3    3    0    0  0.13201625544E+03  0.42808062605E+02  0.25624187117E+03  0.29141159631E+03  0.00000000000E+00 0. -1.
         11    1    3    3    0    0  0.16630225757E+02  0.53415053760E+02  0.58487372487E+02  0.80935190846E+02  0.00000000000E+00 0.  1.
<mgrwt>
<rscale>  0 0.21215684E+03</rscale>
<asrwt>0</asrwt>
<pdfrwt beam="1">  1        2 0.12243438E+00 0.21674519E+03</pdfrwt>
<pdfrwt beam="2">  1       -2 0.84270839E-02 0.21674519E+03</pdfrwt>
<totfact> 0.30887504E+03</totfact>
</mgrwt>
</event>
<event>
 7    1  0.5107591E-006  0.1629944E+03  0.7546771E-02  0.1194276E+00
         -1   -1    0    0    0  501 -0.00000000000E+00  0.00000000000E+00  0.16488529367E+03  0.16488529367E+03  0.00000000000E+00 0.  1.
          1   -1    0    0  501    0  0.00000000000E+00 -0.00000000000E+00 -0.13370437824E+03  0.13370437824E+03  0.00000000000E+00 0. -1.
         23    2    1    2    0    0  0.70666357397E+01  0.10435996118E+03  0.96734999542E+01  0.13418239284E+03  0.83488916077E+02 0.  0.
          5    1    1    2  502    0  0.28891563801E+01 -0.11870350165E+03  0.51399815137E+02  0.12947161668E+03  0.47000000000E+01 0.  1.
         -5    1    1    2    0  502 -0.99557921198E+01  0.14343540472E+02 -0.29892399660E+02  0.34935662402E+02  0.47000000000E+01 0.  1.
        -11    1    3    3    0    0  0.24177582551E+02  0.84463840773E+02 -0.24393834678E+02  0.91179795275E+02  0.00000000000E+00 0. -1.
         11    1    3    3    0    0 -0.17110946812E+02  0.19896120407E+02  0.34067334632E+02  0.43002597561E+02  0.00000000000E+00 0.  1.
<mgrwt>
<rscale>  0 0.15515672E+03</rscale>
<asrwt>0</asrwt>
<pdfrwt beam="2">  1        1 0.20569904E-01 0.16299443E+03</pdfrwt>
<pdfrwt beam="1">  1       -1 0.25366968E-01 0.16299443E+03</pdfrwt>
<totfact> 0.32550580E+03</totfact>
</mgrwt>
</event>
<event>
 7    1  0.5107591E-006  0.1349683E+03  0.7546771E-02  0.1232934E+00
         -3   -1    0    0    0  501 -0.00000000000E+00  0.00000000000E+00  0.15679890006E+03  0.15679890006E+03  0.00000000000E+00 0.  1.
          3   -1    0    0  501    0  0.00000000000E+00 -0.00000000000E+00 -0.93411857721E+02  0.93411857721E+02  0.00000000000E+00 0. -1.
         23    2    1    2    0    0  0.10306666742E+02 -0.49835068344E+02  0.71396530288E+01  0.10399102106E+03  0.90406838240E+02 0.  0.
          5    1    1    2  502    0  0.48546320372E+02  0.13184786210E+02 -0.85065610747E+01  0.51235099204E+02  0.47000000000E+01 0.  1.
         -5    1    1    2    0  502 -0.58852987114E+02  0.36650282134E+02  0.64753950381E+02  0.94984637509E+02  0.47000000000E+01 0.  1.
        -11    1    3    3    0    0 -0.39275923764E+02 -0.18228752796E+02 -0.60770862108E+01  0.43724324956E+02  0.00000000000E+00 0. -1.
         11    1    3    3    0    0  0.49582590506E+02 -0.31606315548E+02  0.13216739240E+02  0.60266696109E+02  0.00000000000E+00 0.  1.
<mgrwt>
<rscale>  0 0.12637649E+03</rscale>
<asrwt>0</asrwt>
<pdfrwt beam="2">  1        3 0.14371055E-01 0.13496830E+03</pdfrwt>
<pdfrwt beam="1">  1       -3 0.24122908E-01 0.13496830E+03</pdfrwt>
<totfact> 0.14709946E+03</totfact>
</mgrwt>
</event>
<event>
 7    1  0.5107591E-006  0.2337382E+03  0.7546771E-02  0.1142764E+00
         -1   -1    0    0    0  501 -0.00000000000E+00  0.00000000000E+00  0.27559185029E+03  0.27559185029E+03  0.00000000000E+00 0.  1.
          1   -1    0    0  501    0  0.00000000000E+00 -0.00000000000E+00 -0.25683470695E+03  0.25683470695E+03  0.00000000000E+00 0. -1.
         23    2    1    2    0    0  0.11613369099E+03  0.21668851495E+01 -0.17474864333E+03  0.22898295913E+03  0.91675392857E+02 0.  0.
          5    1    1    2  502    0  0.19997382483E+02  0.64501903921E+02  0.11305688240E+03  0.13177381976E+03  0.47000000000E+01 0. -1.
         -5    1    1    2    0  502 -0.13613107347E+03 -0.66668789070E+02  0.80448904264E+02  0.17166977835E+03  0.47000000000E+01 0.  1.
        -11    1    3    3    0    0  0.66634730437E+02  0.45540863641E+02 -0.11198765147E+03  0.13804126790E+03  0.00000000000E+00 0. -1.
         11    1    3    3    0    0  0.49498960548E+02 -0.43373978492E+02 -0.62760991862E+02  0.90941691237E+02  0.00000000000E+00 0.  1.
<mgrwt>
<rscale>  0 0.20849377E+03</rscale>
<asrwt>0</asrwt>
<pdfrwt beam="2">  1        1 0.39513032E-01 0.23373816E+03</pdfrwt>
<pdfrwt beam="1">  1       -1 0.42398746E-01 0.23373816E+03</pdfrwt>
<totfact> 0.59573597E+02</totfact>
</mgrwt>
</event>
<event>
 7    1  0.5107591E-006  0.1302672E+03  0.7546771E-02  0.1241113E+00
         -1   -1    0    0    0  501 -0.00000000000E+00  0.00000000000E+00  0.50093193030E+03  0.50093193030E+03  0.00000000000E+00 0.  1.
          1   -1    0    0  501    0  0.00000000000E+00 -0.00000000000E+00 -0.27585272670E+02  0.27585272670E+02  0.00000000000E+00 0. -1.
         23    2    1    2    0    0  0.33883491918E+02  0.14035949192E+02  0.14062061709E+03  0.17119918305E+03  0.90498085241E+02 0.  0.
          5    1    1    2  502    0  0.44108956196E+02 -0.41631597425E+01  0.18060673335E+03  0.18602100431E+03  0.47000000000E+01 0. -1.
         -5    1    1    2    0  502 -0.77992448114E+02 -0.98727894494E+01  0.15211930719E+03  0.17129701561E+03  0.47000000000E+01 0. -1.
        -11    1    3    3    0    0 -0.22746607965E+02 -0.17760776918E+02  0.67440401889E+02  0.73355716734E+02  0.00000000000E+00 0.  1.
         11    1    3    3    0    0  0.56630099883E+02  0.31796726109E+02  0.73180215205E+02  0.97843466320E+02  0.00000000000E+00 0. -1.
<mgrwt>
<rscale>  0 0.12121084E+03</rscale>
<asrwt>0</asrwt>
<pdfrwt beam="2">  1        1 0.42438885E-02 0.13026722E+03</pdfrwt>
<pdfrwt beam="1">  1       -1 0.77066444E-01 0.13026722E+03</pdfrwt>
<totfact> 0.35353201E+03</totfact>
</mgrwt>
</event>
<event>
 7    1  0.5107591E-006  0.1742875E+03  0.7546771E-02  0.1179714E+00
          2   -1    0    0  501    0  0.00000000000E+00  0.00000000000E+00  0.54285674148E+02  0.54285674148E+02  0.00000000000E+00 0.  1.
         -2   -1    0    0    0  501 -0.00000000000E+00 -0.00000000000E+00 -0.50631085118E+03  0.50631085118E+03  0.00000000000E+00 0. -1.
         23    2    1    2    0    0 -0.75033380496E+02 -0.95502687707E+02 -0.26365807967E+03  0.30396778362E+03  0.90166839562E+02 0.  0.
          5    1    1    2  502    0  0.89111235955E+02  0.87112375687E+02 -0.20020868251E+03  0.23587069534E+03  0.47000000000E+01 0. -1.
         -5    1    1    2    0  502 -0.14077855460E+02  0.83903120204E+01  0.11841585143E+02  0.20758046364E+02  0.47000000000E+01 0. -1.
        -11    1    3    3    0    0 -0.44416306087E+02 -0.11928063182E+02 -0.32636915203E+02  0.56393751176E+02  0.00000000000E+00 0.  1.
         11    1    3    3    0    0 -0.30617074408E+02 -0.83574624526E+02 -0.23102116447E+03  0.24757403244E+03  0.00000000000E+00 0. -1.
<mgrwt>
<rscale>  0 0.16822236E+03</rscale>
<asrwt>0</asrwt>
<pdfrwt beam="1">  1        2 0.83516423E-02 0.17428754E+03</pdfrwt>
<pdfrwt beam="2">  1       -2 0.77893976E-01 0.17428754E+03</pdfrwt>
<totfact> 0.11950068E+03</totfact>
</mgrwt>
</event>
<event>
 7    1  0.5107591E-006  0.1331460E+03  0.7546771E-02  0.1237136E+00
          1   -1    0    0  501    0  0.00000000000E+00  0.00000000000E+00  0.39443413975E+02  0.39443413975E+02  0.00000000000E+00 0. -1.
         -1   -1    0    0    0  501 -0.00000000000E+00 -0.00000000000E+00 -0.34203469957E+03  0.34203469957E+03  0.00000000000E+00 0.  1.
         23    2    1    2    0    0 -0.45837283722E+02  0.10981580738E+01 -0.12834786085E+03  0.16218690994E+03  0.87915629106E+02 0.  0.
          5    1    1    2  502    0  0.73981281660E+01 -0.47072543990E+02 -0.16767321722E+02  0.50732531731E+02  0.47000000000E+01 0. -1.
         -5    1    1    2    0  502  0.38439155556E+02  0.45974385916E+02 -0.15747610302E+03  0.16855867187E+03  0.47000000000E+01 0. -1.
        -11    1    3    3    0    0 -0.44109316850E+01  0.37965338148E+02 -0.79809896716E+02  0.88489789427E+02  0.00000000000E+00 0.  1.
         11    1    3    3    0    0 -0.41426352037E+02 -0.36867180074E+02 -0.48537964137E+02  0.73697120516E+02  0.00000000000E+00 0. -1.
<mgrwt>
<rscale>  0 0.12368674E+03</rscale>
<asrwt>0</asrwt>
<pdfrwt beam="1">  1        1 0.60682176E-02 0.13314601E+03</pdfrwt>
<pdfrwt beam="2">  1       -1 0.52620722E-01 0.13314601E+03</pdfrwt>
<totfact> 0.45346812E+03</totfact>
</mgrwt>
</event>
<event>
 7    1  0.5107591E-006  0.1396148E+03  0.7546771E-02  0.1226200E+00
          2   -1    0    0  501    0  0.00000000000E+00  0.00000000000E+00  0.31379966888E+03  0.31379966888E+03  0.00000000000E+00 0. -1.
         -2   -1    0    0    0  501 -0.00000000000E+00 -0.00000000000E+00 -0.48747911380E+02  0.48747911380E+02  0.00000000000E+00 0.  1.
         23    2    1    2    0    0 -0.30370733424E+02 -0.54270206297E+02  0.11808616621E+03  0.15983799447E+03  0.87955699563E+02 0.  0.
          5    1    1    2  502    0  0.12930749165E+02 -0.33559451863E+01  0.14135095635E+03  0.14205861292E+03  0.47000000000E+01 0. -1.
         -5    1    1    2    0  502  0.17439984259E+02  0.57626151483E+02  0.56146349454E+01  0.60650972880E+02  0.47000000000E+01 0. -1.
        -11    1    3    3    0    0 -0.24682352683E+01 -0.28763681262E+02 -0.65428937405E+01  0.29601537183E+02  0.00000000000E+00 0.  1.
         11    1    3    3    0    0 -0.27902498156E+02 -0.25506525035E+02  0.12462905995E+03  0.13023645728E+03  0.00000000000E+00 0. -1.
<mgrwt>
<rscale>  0 0.13085002E+03</rscale>
<asrwt>0</asrwt>
<pdfrwt beam="1">  1        2 0.48276871E-01 0.13961480E+03</pdfrwt>
<pdfrwt beam="2">  1       -2 0.74996789E-02 0.13961480E+03</pdfrwt>
<totfact> 0.10328223E+04</totfact>
</mgrwt>
</event>
<event>
 7    1  0.5107591E-006  0.1590680E+03  0.7546771E-02  0.1211739E+00
          1   -1    0    0  501    0  0.00000000000E+00  0.00000000000E+00  0.47393862469E+03  0.47393862469E+03  0.00000000000E+00 0. -1.
         -1   -1    0    0    0  501 -0.00000000000E+00 -0.00000000000E+00 -0.35973800738E+02  0.35973800738E+02  0.00000000000E+00 0.  1.
         23    2    1    2    0    0  0.25463426676E+02 -0.25059832100E+02  0.20863970872E+03  0.23081990920E+03  0.92037607230E+02 0.  0.
          5    1    1    2  502    0 -0.41569821643E+02  0.58923068093E+02  0.23021486611E+03  0.24129018340E+03  0.47000000000E+01 0. -1.
         -5    1    1    2    0  502  0.16106394967E+02 -0.33863235993E+02 -0.88975088205E+00  0.37802332830E+02  0.47000000000E+01 0.  1.
        -11    1    3    3    0    0 -0.20341817847E+02 -0.25419568388E+02  0.23641661200E+02  0.40235210384E+02  0.00000000000E+00 0. -1.
         11    1    3    3    0    0  0.45805244522E+02  0.35973628823E+00  0.18499804752E+03  0.19058469882E+03  0.00000000000E+00 0.  1.
<mgrwt>
<rscale>  0 0.14118795E+03</rscale>
<asrwt>0</asrwt>
<pdfrwt beam="1">  1        1 0.72913630E-01 0.15906799E+03</pdfrwt>
<pdfrwt beam="2">  1       -1 0.55344312E-02 0.15906799E+03</pdfrwt>
<totfact> 0.70796263E+03</totfact>
</mgrwt>
</event>
<event>
 7    1  0.5107591E-006  0.5138786E+03  0.7546771E-02  0.1010673E+00
         -2   -1    0    0    0  501 -0.00000000000E+00  0.00000000000E+00  0.10784105534E+04  0.10784105534E+04  0.00000000000E+00 0.  1.
          2   -1    0    0  501    0  0.00000000000E+00 -0.00000000000E+00 -0.31146979374E+03  0.31146979374E+03  0.00000000000E+00 0. -1.
         23    2    1    2    0    0 -0.36550331666E+03 -0.33889958854E+03  0.51957821092E+02  0.50938515113E+03  0.91257938942E+02 0.  0.
          5    1    1    2  502    0  0.35364317185E+03  0.34919173577E+03  0.68483492731E+03  0.84617925346E+03  0.47000000000E+01 0.  1.
         -5    1    1    2    0  502  0.11860144806E+02 -0.10292147229E+02  0.30148011316E+02  0.34315942588E+02  0.47000000000E+01 0. -1.
        -11    1    3    3    0    0 -0.52921957978E+01 -0.29900413236E+02  0.13536512770E+02  0.33245739968E+02  0.00000000000E+00 0. -1.
         11    1    3    3    0    0 -0.36021112086E+03 -0.30899917531E+03  0.38421308322E+02  0.47613941117E+03  0.00000000000E+00 0.  1.
<mgrwt>
<rscale>  0 0.51208161E+03</rscale>
<asrwt>0</asrwt>
<pdfrwt beam="2">  1        2 0.47918430E-01 0.51387857E+03</pdfrwt>
<pdfrwt beam="1">  1       -2 0.16590931E+00 0.51387857E+03</pdfrwt>
<totfact> 0.24857897E+01</totfact>
</mgrwt>
</event>
<event>
 7    1  0.5107591E-006  0.1263048E+03  0.7546771E-02  0.1255310E+00
          1   -1    0    0  501    0  0.00000000000E+00  0.00000000000E+00  0.37170566010E+03  0.37170566010E+03  0.00000000000E+00 0. -1.
         -1   -1    0    0    0  501 -0.00000000000E+00 -0.00000000000E+00 -0.29048434578E+02  0.29048434578E+02  0.00000000000E+00 0.  1.
         23    2    1    2    0    0  0.63214680894E+01  0.16897563398E+02  0.15211867878E+03  0.17215437738E+03  0.78559204480E+02 0.  0.
          5    1    1    2  502    0 -0.25464191686E+02  0.41927423782E+02  0.33059897925E+02  0.59341223227E+02  0.47000000000E+01 0.  1.
         -5    1    1    2    0  502  0.19142723597E+02 -0.58824987179E+02  0.15747864881E+03  0.16925849407E+03  0.47000000000E+01 0.  1.
        -11    1    3    3    0    0  0.25241546267E+02  0.19104563501E+02  0.14963249947E+03  0.15294445038E+03  0.00000000000E+00 0. -1.
         11    1    3    3    0    0 -0.18920078178E+02 -0.22070001036E+01  0.24861793130E+01  0.19209926999E+02  0.00000000000E+00 0.  1.
<mgrwt>
<rscale>  0 0.11288967E+03</rscale>
<asrwt>0</asrwt>
<pdfrwt beam="1">  1        1 0.57185483E-01 0.12630476E+03</pdfrwt>
<pdfrwt beam="2">  1       -1 0.44689902E-02 0.12630476E+03</pdfrwt>
<totfact> 0.13019923E+04</totfact>
</mgrwt>
</event>
<event>
 7    1  0.5107591E-006  0.1285213E+03  0.7546771E-02  0.1244192E+00
         -4   -1    0    0    0  501 -0.00000000000E+00  0.00000000000E+00  0.59937798318E+03  0.59937798318E+03  0.00000000000E+00 0.  1.
          4   -1    0    0  501    0  0.00000000000E+00 -0.00000000000E+00 -0.20967770398E+02  0.20967770398E+02  0.00000000000E+00 0. -1.
         23    2    1    2    0    0 -0.25709490085E+02 -0.15240521374E+02  0.23557759701E+03  0.25421472304E+03  0.90747285484E+02 0.  0.
          5    1    1    2  502    0  0.54021493997E+02 -0.22617271417E+02  0.81236683470E+02  0.10025642883E+03  0.47000000000E+01 0. -1.
         -5    1    1    2    0  502 -0.28312003912E+02  0.37857792792E+02  0.26159593230E+03  0.26587460172E+03  0.47000000000E+01 0. -1.
        -11    1    3    3    0    0 -0.54110436655E+02  0.10313990644E+02  0.11110314333E+03  0.12400897635E+03  0.00000000000E+00 0. -1.
         11    1    3    3    0    0  0.28400946570E+02 -0.25554512018E+02  0.12447445368E+03  0.13020574669E+03  0.00000000000E+00 0.  1.
<mgrwt>
<rscale>  0 0.11933841E+03</rscale>
<asrwt>0</asrwt>
<pdfrwt beam="2">  1        4 0.32258113E-02 0.12852132E+03</pdfrwt>
<pdfrwt beam="1">  1       -4 0.92211984E-01 0.12852132E+03</pdfrwt>
<totfact> 0.81313831E+02</totfact>
</mgrwt>
</event>
<event>
 7    1  0.5107591E-006  0.1583357E+03  0.7546771E-02  0.1198335E+00
         -1   -1    0    0    0  501 -0.00000000000E+00  0.00000000000E+00  0.16823023722E+02  0.16823023722E+02  0.00000000000E+00 0.  1.
          1   -1    0    0  501    0  0.00000000000E+00 -0.00000000000E+00 -0.12705221464E+04  0.12705221464E+04  0.00000000000E+00 0. -1.
         23    2    1    2    0    0  0.63646095737E+02 -0.73425096219E+02 -0.53798060809E+03  0.55432185965E+03  0.91692525034E+02 0.  0.
          5    1    1    2  502    0 -0.49898827481E+02 -0.12629374172E+01 -0.52938056426E+03  0.53174933926E+03  0.47000000000E+01 0. -1.
         -5    1    1    2    0  502 -0.13747268256E+02  0.74688033637E+02 -0.18633795036E+03  0.20127397124E+03  0.47000000000E+01 0. -1.
        -11    1    3    3    0    0 -0.20898952058E+02 -0.94540200212E+00 -0.11732401745E+03  0.11917459903E+03  0.00000000000E+00 0.  1.
         11    1    3    3    0    0  0.84545047795E+02 -0.72479694217E+02 -0.42065659063E+03  0.43514726062E+03  0.00000000000E+00 0. -1.
<mgrwt>
<rscale>  0 0.15175310E+03</rscale>
<asrwt>0</asrwt>
<pdfrwt beam="2">  1        1 0.19546496E+00 0.15833566E+03</pdfrwt>
<pdfrwt beam="1">  1       -1 0.25881573E-02 0.15833566E+03</pdfrwt>
<totfact> 0.47324684E+03</totfact>
</mgrwt>
</event>
<event>
 7    1  0.5107591E-006  0.1698925E+03  0.7546771E-02  0.1183715E+00
          2   -1    0    0  501    0  0.00000000000E+00  0.00000000000E+00  0.31004861441E+03  0.31004861441E+03  0.00000000000E+00 0.  1.
         -2   -1    0    0    0  501 -0.00000000000E+00 -0.00000000000E+00 -0.10004581064E+03  0.10004581064E+03  0.00000000000E+00 0. -1.
         23    2    1    2    0    0 -0.31404018096E+02 -0.11069103549E+03  0.18600330161E+03  0.23851516764E+03  0.95150088266E+02 0.  0.
          5    1    1    2  502    0 -0.16764263116E+00  0.98205048854E+02  0.65210579729E+02  0.11797783450E+03  0.47000000000E+01 0.  1.
         -5    1    1    2    0  502  0.31571660727E+02  0.12485986631E+02 -0.41211077572E+02  0.53601422909E+02  0.47000000000E+01 0.  1.
        -11    1    3    3    0    0 -0.40374507999E+02 -0.48548832746E+02  0.15725809027E+03  0.16946149124E+03  0.00000000000E+00 0.  1.
         11    1    3    3    0    0  0.89704899037E+01 -0.62142202739E+02  0.28745211341E+02  0.69053676408E+02  0.00000000000E+00 0. -1.
<mgrwt>
<rscale>  0 0.16449395E+03</rscale>
<asrwt>0</asrwt>
<pdfrwt beam="1">  1        2 0.47699786E-01 0.16989251E+03</pdfrwt>
<pdfrwt beam="2">  1       -2 0.15391663E-01 0.16989251E+03</pdfrwt>
<totfact> 0.33785645E+03</totfact>
</mgrwt>
</event>
<event>
 7    1  0.5107591E-006  0.1687804E+03  0.7546771E-02  0.1190621E+00
          2   -1    0    0  501    0  0.00000000000E+00  0.00000000000E+00  0.44206363231E+02  0.44206363231E+02  0.00000000000E+00 0. -1.
         -2   -1    0    0    0  501 -0.00000000000E+00 -0.00000000000E+00 -0.69536225246E+03  0.69536225246E+03  0.00000000000E+00 0.  1.
         23    2    1    2    0    0  0.46808016063E+02 -0.84020947282E+02 -0.10399805216E+03  0.16697058086E+03  0.88391572385E+02 0.  0.
          5    1    1    2  502    0 -0.41056458119E+02  0.80405723261E+02 -0.14849258186E+03  0.17384720289E+03  0.47000000000E+01 0. -1.
         -5    1    1    2    0  502 -0.57515579442E+01  0.36152240209E+01 -0.39866525521E+03  0.39875083194E+03  0.47000000000E+01 0.  1.
        -11    1    3    3    0    0  0.71416631012E+02 -0.64112179623E+02 -0.92502031375E+02  0.13329415805E+03  0.00000000000E+00 0.  1.
         11    1    3    3    0    0 -0.24608614949E+02 -0.19908767658E+02 -0.11496020787E+02  0.33676422811E+02  0.00000000000E+00 0. -1.
<mgrwt>
<rscale>  0 0.15830703E+03</rscale>
<asrwt>0</asrwt>
<pdfrwt beam="1">  1        2 0.68009796E-02 0.16878036E+03</pdfrwt>
<pdfrwt beam="2">  1       -2 0.10697880E+00 0.16878036E+03</pdfrwt>
<totfact> 0.75547820E+02</totfact>
</mgrwt>
</event>
<event>
 7    1  0.5107591E-006  0.2222832E+03  0.7546771E-02  0.1146960E+00
          1   -1    0    0  501    0  0.00000000000E+00  0.00000000000E+00  0.36764368272E+03  0.36764368272E+03  0.00000000000E+00 0. -1.
         -1   -1    0    0    0  501 -0.00000000000E+00 -0.00000000000E+00 -0.34236912967E+03  0.34236912967E+03  0.00000000000E+00 0.  1.
         23    2    1    2    0    0  0.59216701579E+02  0.10995631053E+03  0.31114373041E+03  0.34789264098E+03  0.92853975165E+02 0.  0.
          5    1    1    2  502    0  0.48684048268E+02 -0.22422384155E+02 -0.12209289135E+02  0.55172969905E+02  0.47000000000E+01 0. -1.
         -5    1    1    2    0  502 -0.10790074985E+03 -0.87533926373E+02 -0.27365988823E+03  0.30694720150E+03  0.47000000000E+01 0.  1.
        -11    1    3    3    0    0  0.72666081564E+02  0.11675868307E+03  0.25452813512E+03  0.28930523855E+03  0.00000000000E+00 0. -1.
         11    1    3    3    0    0 -0.13449379984E+02 -0.68023725399E+01  0.56615595291E+02  0.58587402437E+02  0.00000000000E+00 0.  1.
<mgrwt>
<rscale>  0 0.20332896E+03</rscale>
<asrwt>0</asrwt>
<pdfrwt beam="1">  1        1 0.56560567E-01 0.22228322E+03</pdfrwt>
<pdfrwt beam="2">  1       -1 0.52672173E-01 0.22228322E+03</pdfrwt>
<totfact> 0.25506021E+02</totfact>
</mgrwt>
</event>
<event>
 7    1  0.5107591E-006  0.1486166E+03  0.7546771E-02  0.1211583E+00
          2   -1    0    0  501    0  0.00000000000E+00  0.00000000000E+00  0.12347129789E+03  0.12347129789E+03  0.00000000000E+00 0. -1.
         -2   -1    0    0    0  501 -0.00000000000E+00 -0.00000000000E+00 -0.29293134170E+03  0.29293134170E+03  0.00000000000E+00 0.  1.
         23    2    1    2    0    0 -0.64970765092E+02  0.47335785958E+02  0.65795786850E+02  0.13813624575E+03  0.91053060762E+02 0.  0.
          5    1    1    2  502    0  0.62843194470E+02  0.30125522949E+02 -0.12864915453E+03  0.14638821395E+03  0.47000000000E+01 0. -1.
         -5    1    1    2    0  502  0.21275706217E+01 -0.77461308907E+02 -0.10660667614E+03  0.13187817989E+03  0.47000000000E+01 0. -1.
        -11    1    3    3    0    0 -0.32044411417E+02 -0.25301163802E+02  0.30292859385E+02  0.50839458322E+02  0.00000000000E+00 0.  1.
         11    1    3    3    0    0 -0.32926353675E+02  0.72636949760E+02  0.35502927466E+02  0.87296787429E+02  0.00000000000E+00 0. -1.
<mgrwt>
<rscale>  0 0.14130539E+03</rscale>
<asrwt>0</asrwt>
<pdfrwt beam="1">  1        2 0.18995584E-01 0.14861655E+03</pdfrwt>
<pdfrwt beam="2">  1       -2 0.45066360E-01 0.14861655E+03</pdfrwt>
<totfact> 0.13652845E+03</totfact>
</mgrwt>
</event>
<event>
 7    1  0.5107591E-006  0.2426024E+03  0.7546771E-02  0.1120616E+00
          2   -1    0    0  501    0  0.00000000000E+00  0.00000000000E+00  0.97538961326E+02  0.97538961326E+02  0.00000000000E+00 0.  1.
         -2   -1    0    0    0  501 -0.00000000000E+00 -0.00000000000E+00 -0.11301775582E+04  0.11301775582E+04  0.00000000000E+00 0. -1.
         23    2    1    2    0    0  0.76899348112E+02  0.19317807031E+03 -0.74755487852E+02  0.23958900257E+03  0.92645726290E+02 0.  0.
          5    1    1    2  502    0 -0.10206606255E+03 -0.19052299500E+03 -0.83111949642E+03  0.85877715391E+03  0.47000000000E+01 0.  1.
         -5    1    1    2    0  502  0.25166714434E+02 -0.26550753076E+01 -0.12676361264E+03  0.12935036308E+03  0.47000000000E+01 0.  1.
        -11    1    3    3    0    0 -0.30898416015E+00  0.11500589799E+03 -0.19653939615E+02  0.11667360193E+03  0.00000000000E+00 0.  1.
         11    1    3    3    0    0  0.77208332272E+02  0.78172172317E+02 -0.55101548237E+02  0.12291540064E+03  0.00000000000E+00 0. -1.
<mgrwt>
<rscale>  0 0.23876891E+03</rscale>
<asrwt>0</asrwt>
<pdfrwt beam="1">  1        2 0.15005994E-01 0.24260243E+03</pdfrwt>
<pdfrwt beam="2">  1       -2 0.17387347E+00 0.24260243E+03</pdfrwt>
<totfact> 0.83798614E+01</totfact>
</mgrwt>
</event>
<event>
 7    1  0.5107591E-006  0.1480475E+03  0.7546771E-02  0.1213058E+00
         -3   -1    0    0    0  501 -0.00000000000E+00  0.00000000000E+00  0.18060417971E+03  0.18060417971E+03  0.00000000000E+00 0.  1.
          3   -1    0    0  501    0  0.00000000000E+00 -0.00000000000E+00 -0.15933684919E+03  0.15933684919E+03  0.00000000000E+00 0. -1.
         23    2    1    2    0    0  0.44846850541E+01  0.79199077373E+02 -0.94492870967E+02  0.15200887214E+03  0.88798582693E+02 0.  0.
          5    1    1    2  502    0  0.35731794970E+02 -0.85190021362E+02  0.37888596491E+02  0.99958674738E+02  0.47000000000E+01 0. -1.
         -5    1    1    2    0  502 -0.40216480024E+02  0.59909439886E+01  0.77871604997E+02  0.87973482028E+02  0.47000000000E+01 0. -1.
        -11    1    3    3    0    0 -0.14414986301E+02  0.15086031382E+02  0.13609101162E+02  0.24911599855E+02  0.00000000000E+00 0.  1.
         11    1    3    3    0    0  0.18899671355E+02  0.64113045991E+02 -0.10810197213E+03  0.12709727228E+03  0.00000000000E+00 0. -1.
<mgrwt>
<rscale>  0 0.14020127E+03</rscale>
<asrwt>0</asrwt>
<pdfrwt beam="2">  1        3 0.24513361E-01 0.14804753E+03</pdfrwt>
<pdfrwt beam="1">  1       -3 0.27785258E-01 0.14804753E+03</pdfrwt>
<totfact> 0.45281346E+02</totfact>
</mgrwt>
</event>
<event>
 7    1  0.5107591E-006  0.2404104E+03  0.7546771E-02  0.1155570E+00
          1   -1    0    0  501    0  0.00000000000E+00  0.00000000000E+00  0.66761290196E+03  0.66761290196E+03  0.00000000000E+00 0. -1.
         -1   -1    0    0    0  501 -0.00000000000E+00 -0.00000000000E+00 -0.43609992321E+02  0.43609992321E+02  0.00000000000E+00 0.  1.
         23    2    1    2    0    0 -0.25400762153E+02 -0.41652946845E+02  0.16669942659E+03  0.19457636186E+03  0.87698888663E+02 0.  0.
          5    1    1    2  502    0 -0.85052507859E+02 -0.94833582273E+01  0.32796794610E+03  0.33898219252E+03  0.47000000000E+01 0. -1.
         -5    1    1    2    0  502  0.11045327001E+03  0.51136305072E+02  0.12933553695E+03  0.17766433990E+03  0.47000000000E+01 0.  1.
        -11    1    3    3    0    0 -0.35201193997E+02 -0.25652531629E+02  0.17002951462E+03  0.17551983443E+03  0.00000000000E+00 0. -1.
         11    1    3    3    0    0  0.98004318442E+01 -0.16000415215E+02 -0.33300880323E+01  0.19056527430E+02  0.00000000000E+00 0.  1.
<mgrwt>
<rscale>  0 0.19324151E+03</rscale>
<asrwt>0</asrwt>
<pdfrwt beam="1">  1        1 0.10270967E+00 0.24041041E+03</pdfrwt>
<pdfrwt beam="2">  1       -1 0.67092301E-02 0.24041041E+03</pdfrwt>
<totfact> 0.33850862E+03</totfact>
</mgrwt>
</event>
<event>
 7    1  0.5107591E-006  0.1261182E+03  0.7546771E-02  0.1248910E+00
         -1   -1    0    0    0  501 -0.00000000000E+00  0.00000000000E+00  0.18322805644E+02  0.18322805644E+02  0.00000000000E+00 0.  1.
          1   -1    0    0  501    0  0.00000000000E+00 -0.00000000000E+00 -0.64904280191E+03  0.64904280191E+03  0.00000000000E+00 0. -1.
         23    2    1    2    0    0  0.63476472696E+01 -0.15499038207E+02 -0.27048513369E+03  0.28569171089E+03  0.90426950159E+02 0.  0.
          5    1    1    2  502    0 -0.33577045485E+02 -0.10186132292E+02 -0.22737312884E+02  0.42074346956E+02  0.47000000000E+01 0.  1.
         -5    1    1    2    0  502  0.27229398216E+02  0.25685170499E+02 -0.33749754969E+03  0.33959954971E+03  0.47000000000E+01 0.  1.
        -11    1    3    3    0    0  0.44305135164E+02  0.80559296741E+01 -0.10427737667E+03  0.11358527321E+03  0.00000000000E+00 0.  1.
         11    1    3    3    0    0 -0.37957487894E+02 -0.23554967881E+02 -0.16620775701E+03  0.17210643768E+03  0.00000000000E+00 0. -1.
<mgrwt>
<rscale>  0 0.11654374E+03</rscale>
<asrwt>0</asrwt>
<pdfrwt beam="2">  1        1 0.99852752E-01 0.12611823E+03</pdfrwt>
<pdfrwt beam="1">  1       -1 0.28188928E-02 0.12611823E+03</pdfrwt>
<totfact> 0.12337542E+04</totfact>
</mgrwt>
</event>
<event>
 7    1  0.5107591E-006  0.1318261E+03  0.7546771E-02  0.1237528E+00
          1   -1    0    0  501    0  0.00000000000E+00  0.00000000000E+00  0.82293502902E+02  0.82293502902E+02  0.00000000000E+00 0. -1.
         -1   -1    0    0    0  501 -0.00000000000E+00 -0.00000000000E+00 -0.19014688511E+03  0.19014688511E+03  0.00000000000E+00 0.  1.
         23    2    1    2    0    0 -0.40698368084E+02  0.10557162717E+02  0.11981213023E+01  0.10135461976E+03  0.92214492373E+02 0.  0.
          5    1    1    2  502    0  0.12642991619E+01 -0.33674969072E+02  0.16190013879E+02  0.37680346917E+02  0.47000000000E+01 0.  1.
         -5    1    1    2    0  502  0.39434068922E+02  0.23117806355E+02 -0.12524151738E+03  0.13340542133E+03  0.47000000000E+01 0.  1.
        -11    1    3    3    0    0  0.27226816151E+02 -0.11283329207E+02 -0.43392287570E+01  0.29789963778E+02  0.00000000000E+00 0.  1.
         11    1    3    3    0    0 -0.67925184235E+02  0.21840491924E+02  0.55373500593E+01  0.71564655986E+02  0.00000000000E+00 0. -1.
<mgrwt>
<rscale>  0 0.12343953E+03</rscale>
<asrwt>0</asrwt>
<pdfrwt beam="1">  1        1 0.12660539E-01 0.13182606E+03</pdfrwt>
<pdfrwt beam="2">  1       -1 0.29253366E-01 0.13182606E+03</pdfrwt>
<totfact> 0.47497943E+03</totfact>
</mgrwt>
</event>
<event>
 7    1  0.5107591E-006  0.1325145E+03  0.7546771E-02  0.1237196E+00
          2   -1    0    0  501    0  0.00000000000E+00  0.00000000000E+00  0.19024965193E+03  0.19024965193E+03  0.00000000000E+00 0. -1.
         -2   -1    0    0    0  501 -0.00000000000E+00 -0.00000000000E+00 -0.71378673382E+02  0.71378673382E+02  0.00000000000E+00 0.  1.
         23    2    1    2    0    0 -0.30201945118E+02  0.32001487478E+02  0.54974236275E+02  0.11451311904E+03  0.90304125534E+02 0.  0.
          5    1    1    2  502    0  0.52678274221E+02 -0.69894352576E+02  0.35979523721E+02  0.94746172609E+02  0.47000000000E+01 0.  1.
         -5    1    1    2    0  502 -0.22476329103E+02  0.37892865099E+02  0.27917218557E+02  0.52369033667E+02  0.47000000000E+01 0.  1.
        -11    1    3    3    0    0 -0.51005460961E+02 -0.28703403534E+01  0.68447530872E+01  0.51542667242E+02  0.00000000000E+00 0.  1.
         11    1    3    3    0    0  0.20803515843E+02  0.34871827831E+02  0.48129483188E+02  0.62970451798E+02  0.00000000000E+00 0. -1.
<mgrwt>
<rscale>  0 0.12364876E+03</rscale>
<asrwt>0</asrwt>
<pdfrwt beam="1">  1        2 0.29269177E-01 0.13251449E+03</pdfrwt>
<pdfrwt beam="2">  1       -2 0.10981334E-01 0.13251449E+03</pdfrwt>
<totfact> 0.96880500E+03</totfact>
</mgrwt>
</event>
<event>
 7    1  0.5107591E-006  0.1412816E+03  0.7546771E-02  0.1222826E+00
          2   -1    0    0  501    0  0.00000000000E+00  0.00000000000E+00  0.73521646149E+03  0.73521646149E+03  0.00000000000E+00 0. -1.
         -2   -1    0    0    0  501 -0.00000000000E+00 -0.00000000000E+00 -0.22198695601E+02  0.22198695601E+02  0.00000000000E+00 0.  1.
         23    2    1    2    0    0  0.47159206276E+02 -0.45940961293E+02  0.36995901265E+03  0.38640331401E+03  0.90018261339E+02 0.  0.
          5    1    1    2  502    0 -0.31871662470E+02 -0.35592326268E+02  0.19900825243E+03  0.20471685591E+03  0.47000000000E+01 0.  1.
         -5    1    1    2    0  502 -0.15287543806E+02  0.81533287560E+02  0.14405050081E+03  0.16629498718E+03  0.47000000000E+01 0.  1.
        -11    1    3    3    0    0 -0.33182141162E+01 -0.54972460950E+02  0.13285137502E+03  0.14381401133E+03  0.00000000000E+00 0.  1.
         11    1    3    3    0    0  0.50477420393E+02  0.90314996568E+01  0.23710763762E+03  0.24258930268E+03  0.00000000000E+00 0. -1.
<mgrwt>
<rscale>  0 0.13317027E+03</rscale>
<asrwt>0</asrwt>
<pdfrwt beam="1">  1        2 0.11311021E+00 0.14128156E+03</pdfrwt>
<pdfrwt beam="2">  1       -2 0.34151845E-02 0.14128156E+03</pdfrwt>
<totfact> 0.13168987E+04</totfact>
</mgrwt>
</event>
<event>
 7    1  0.5107591E-006  0.3859061E+03  0.7546771E-02  0.1095645E+00
         -2   -1    0    0    0  501 -0.00000000000E+00  0.00000000000E+00  0.24629909494E+03  0.24629909494E+03  0.00000000000E+00 0.  1.
          2   -1    0    0  501    0  0.00000000000E+00 -0.00000000000E+00 -0.26037911458E+03  0.26037911458E+03  0.00000000000E+00 0. -1.
         23    2    1    2    0    0  0.57475836183E+02 -0.20638978138E+01 -0.51777604959E+02  0.11893521482E+03  0.90315743532E+02 0.  0.
          5    1    1    2  502    0  0.74466235972E+01  0.47387793929E+02 -0.16403911145E+03  0.17097360995E+03  0.47000000000E+01 0. -1.
         -5    1    1    2    0  502 -0.64922459780E+02 -0.45323896115E+02  0.20173669676E+03  0.21676938475E+03  0.47000000000E+01 0.  1.
        -11    1    3    3    0    0  0.65469363365E+02  0.17337774359E+02 -0.65212785706E+02  0.94018845870E+02  0.00000000000E+00 0.  1.
         11    1    3    3    0    0 -0.79935271821E+01 -0.19401672173E+02  0.13435180747E+02  0.24916368949E+02  0.00000000000E+00 0. -1.
<mgrwt>
<rscale>  0 0.28007956E+03</rscale>
<asrwt>0</asrwt>
<pdfrwt beam="2">  1        2 0.40058325E-01 0.38590611E+03</pdfrwt>
<pdfrwt beam="1">  1       -2 0.37892169E-01 0.38590611E+03</pdfrwt>
<totfact> 0.84703802E+02</totfact>
</mgrwt>
</event>
<event>
 7    1  0.5107591E-006  0.1443365E+03  0.7546771E-02  0.1211026E+00
         -1   -1    0    0    0  501 -0.00000000000E+00  0.00000000000E+00  0.23592207775E+02  0.23592207775E+02  0.00000000000E+00 0.  1.
          1   -1    0    0  501    0  0.00000000000E+00 -0.00000000000E+00 -0.89377709035E+03  0.89377709035E+03  0.00000000000E+00 0. -1.
         23    2    1    2    0    0 -0.67841439049E+02 -0.33024119041E+02 -0.57964246309E+03  0.59734278279E+03  0.12304455227E+03 0.  0.
          5    1    1    2  502    0  0.37730035764E+02 -0.29590788237E+02 -0.20044497335E+03  0.20615394172E+03  0.47000000000E+01 0. -1.
         -5    1    1    2    0  502  0.30111403285E+02  0.62614907278E+02 -0.90097446146E+02  0.11387257362E+03  0.47000000000E+01 0.  1.
        -11    1    3    3    0    0 -0.41019572786E+02 -0.76683674319E+02 -0.44195110898E+03  0.45042621369E+03  0.00000000000E+00 0. -1.
         11    1    3    3    0    0 -0.26821866264E+02  0.43659555278E+02 -0.13769135411E+03  0.14691656909E+03  0.00000000000E+00 0.  1.
<mgrwt>
<rscale>  0 0.14172529E+03</rscale>
<asrwt>0</asrwt>
<pdfrwt beam="2">  1        1 0.13750414E+00 0.14433647E+03</pdfrwt>
<pdfrwt beam="1">  1       -1 0.36295711E-02 0.14433647E+03</pdfrwt>
<totfact> 0.53558008E+03</totfact>
</mgrwt>
</event>
<event>
 7    1  0.5107591E-006  0.1352304E+03  0.7546771E-02  0.1232223E+00
          1   -1    0    0  501    0  0.00000000000E+00  0.00000000000E+00  0.21022296385E+03  0.21022296385E+03  0.00000000000E+00 0. -1.
         -1   -1    0    0    0  501 -0.00000000000E+00 -0.00000000000E+00 -0.68757954540E+02  0.68757954540E+02  0.00000000000E+00 0.  1.
         23    2    1    2    0    0 -0.15839203286E+02 -0.49109444904E+02  0.52313325711E+02  0.11700779355E+03  0.91057793547E+02 0.  0.
          5    1    1    2  502    0 -0.51631891574E+02  0.28065357479E+02  0.63476136830E+02  0.86630401504E+02  0.47000000000E+01 0. -1.
         -5    1    1    2    0  502  0.67471094859E+02  0.21044087426E+02  0.25675546766E+02  0.75342723330E+02  0.47000000000E+01 0. -1.
        -11    1    3    3    0    0 -0.44717516290E+02 -0.57431613888E+02  0.46569071696E+02  0.86410213375E+02  0.00000000000E+00 0. -1.
         11    1    3    3    0    0  0.28878313004E+02  0.83221689838E+01  0.57442540153E+01  0.30597580178E+02  0.00000000000E+00 0.  1.
<mgrwt>
<rscale>  0 0.12683909E+03</rscale>
<asrwt>0</asrwt>
<pdfrwt beam="1">  1        1 0.32341994E-01 0.13523043E+03</pdfrwt>
<pdfrwt beam="2">  1       -1 0.10578147E-01 0.13523043E+03</pdfrwt>
<totfact> 0.72917718E+03</totfact>
</mgrwt>
</event>
<event>
 7    1  0.5107591E-006  0.1263734E+03  0.7546771E-02  0.1248979E+00
          4   -1    0    0  501    0  0.00000000000E+00  0.00000000000E+00  0.80878223729E+02  0.80878223729E+02  0.00000000000E+00 0. -1.
         -4   -1    0    0    0  501 -0.00000000000E+00 -0.00000000000E+00 -0.14821437030E+03  0.14821437030E+03  0.00000000000E+00 0.  1.
         23    2    1    2    0    0 -0.17038336353E+02  0.74469329136E+01 -0.15922054778E+02  0.92660776938E+02  0.89368596492E+02 0.  0.
          5    1    1    2  502    0  0.35608516445E+02 -0.35565205441E+02  0.22298259927E+02  0.55246291073E+02  0.47000000000E+01 0.  1.
         -5    1    1    2    0  502 -0.18570180092E+02  0.28118272527E+02 -0.73712351723E+02  0.81185526020E+02  0.47000000000E+01 0.  1.
        -11    1    3    3    0    0 -0.50543737031E+01 -0.40673468327E+02 -0.12942140407E+02  0.42981120478E+02  0.00000000000E+00 0.  1.
         11    1    3    3    0    0 -0.11983962650E+02  0.48120401240E+02 -0.29799143715E+01  0.49679656460E+02  0.00000000000E+00 0. -1.
<mgrwt>
<rscale>  0 0.11650342E+03</rscale>
<asrwt>0</asrwt>
<pdfrwt beam="1">  1        4 0.12442804E-01 0.12637338E+03</pdfrwt>
<pdfrwt beam="2">  1       -4 0.22802211E-01 0.12637338E+03</pdfrwt>
<totfact> 0.15020963E+03</totfact>
</mgrwt>
</event>
<event>
 7    1  0.5107591E-006  0.1273400E+03  0.7546771E-02  0.1244259E+00
          2   -1    0    0  501    0  0.00000000000E+00  0.00000000000E+00  0.29326795624E+03  0.29326795624E+03  0.00000000000E+00 0. -1.
         -2   -1    0    0    0  501 -0.00000000000E+00 -0.00000000000E+00 -0.75319974630E+02  0.75319974630E+02  0.00000000000E+00 0.  1.
         23    2    1    2    0    0  0.28492187572E+02  0.24219289562E+02  0.22037902075E+03  0.24122477283E+03  0.90686821005E+02 0.  0.
          5    1    1    2  502    0 -0.21726859720E+02 -0.75309225005E+01  0.58829235555E+02  0.63338299495E+02  0.47000000000E+01 0. -1.
         -5    1    1    2    0  502 -0.67653278518E+01 -0.16688367062E+02 -0.61260274691E+02  0.64024858542E+02  0.47000000000E+01 0.  1.
        -11    1    3    3    0    0 -0.13371711574E+02  0.16506808135E+02  0.51931574005E+01  0.21868842425E+02  0.00000000000E+00 0. -1.
         11    1    3    3    0    0  0.41863899145E+02  0.77124814265E+01  0.21518586335E+03  0.21935593041E+03  0.00000000000E+00 0.  1.
<mgrwt>
<rscale>  0 0.11929834E+03</rscale>
<asrwt>0</asrwt>
<pdfrwt beam="1">  1        2 0.45118147E-01 0.12733995E+03</pdfrwt>
<pdfrwt beam="2">  1       -2 0.11587689E-01 0.12733995E+03</pdfrwt>
<totfact> 0.55875802E+03</totfact>
</mgrwt>
</event>
<event>
 7    1  0.5107591E-006  0.1250554E+03  0.7546771E-02  0.1249283E+00
         -2   -1    0    0    0  501 -0.00000000000E+00  0.00000000000E+00  0.22922783725E+02  0.22922783725E+02  0.00000000000E+00 0.  1.
          2   -1    0    0  501    0  0.00000000000E+00 -0.00000000000E+00 -0.57375136935E+03  0.57375136935E+03  0.00000000000E+00 0. -1.
         23    2    1    2    0    0  0.18884269346E+01 -0.32412645599E+01 -0.32856457421E+03  0.34164446270E+03  0.93553126702E+02 0.  0.
          5    1    1    2  502    0  0.39944153726E+02 -0.96505959884E+00 -0.14131283278E+02  0.42640941875E+02  0.47000000000E+01 0.  1.
         -5    1    1    2    0  502 -0.41832580661E+02  0.42063241587E+01 -0.20813272813E+03  0.21238874850E+03  0.47000000000E+01 0.  1.
        -11    1    3    3    0    0 -0.43384113882E+02  0.11748946815E+02 -0.18430702778E+03  0.18970845942E+03  0.00000000000E+00 0.  1.
         11    1    3    3    0    0  0.45272540817E+02 -0.14990211375E+02 -0.14425754643E+03  0.15193600328E+03  0.00000000000E+00 0. -1.
<mgrwt>
<rscale>  0 0.11632649E+03</rscale>
<asrwt>0</asrwt>
<pdfrwt beam="2">  1        2 0.88269441E-01 0.12505540E+03</pdfrwt>
<pdfrwt beam="1">  1       -2 0.35265821E-02 0.12505540E+03</pdfrwt>
<totfact> 0.16600616E+04</totfact>
</mgrwt>
</event>
<event>
 7    1  0.5107591E-006  0.1257629E+03  0.7546771E-02  0.1250245E+00
         -2   -1    0    0    0  501 -0.00000000000E+00  0.00000000000E+00  0.53901803894E+02  0.53901803894E+02  0.00000000000E+00 0.  1.
          2   -1    0    0  501    0  0.00000000000E+00 -0.00000000000E+00 -0.21701883078E+03  0.21701883078E+03  0.00000000000E+00 0. -1.
         23    2    1    2    0    0  0.10383059919E+02  0.86110127090E+01 -0.74546042170E+02  0.11709889437E+03  0.89292111551E+02 0.  0.
          5    1    1    2  502    0 -0.51510305064E+02 -0.32186669356E+02 -0.86935039562E+02  0.10615594338E+03  0.47000000000E+01 0.  1.
         -5    1    1    2    0  502  0.41127245145E+02  0.23575656647E+02 -0.16359451493E+01  0.47665796921E+02  0.47000000000E+01 0.  1.
        -11    1    3    3    0    0 -0.63758770349E+01  0.47215960614E+02 -0.46137344636E+02  0.66322344008E+02  0.00000000000E+00 0.  1.
         11    1    3    3    0    0  0.16758936954E+02 -0.38604947905E+02 -0.28408697534E+02  0.50776550357E+02  0.00000000000E+00 0. -1.
<mgrwt>
<rscale>  0 0.11576910E+03</rscale>
<asrwt>0</asrwt>
<pdfrwt beam="2">  1        2 0.33387513E-01 0.12576291E+03</pdfrwt>
<pdfrwt beam="1">  1       -2 0.82925850E-02 0.12576291E+03</pdfrwt>
<totfact> 0.12984209E+04</totfact>
</mgrwt>
</event>
<event>
 7    1  0.5107591E-006  0.1534184E+03  0.7546771E-02  0.1204776E+00
          2   -1    0    0  501    0  0.00000000000E+00  0.00000000000E+00  0.40486887563E+02  0.40486887563E+02  0.00000000000E+00 0. -1.
         -2   -1    0    0    0  501 -0.00000000000E+00 -0.00000000000E+00 -0.65212242033E+03  0.65212242033E+03  0.00000000000E+00 0.  1.
         23    2    1    2    0    0  0.88217545129E+02  0.11414428397E+02 -0.11178787083E+03  0.16974708892E+03  0.91678359970E+02 0.  0.
          5    1    1    2  502    0 -0.86771797323E+02  0.27170785589E+02 -0.19117986533E+03  0.21175322266E+03  0.47000000000E+01 0. -1.
         -5    1    1    2    0  502 -0.14457478061E+01 -0.38585213986E+02 -0.30866779660E+03  0.31110899631E+03  0.47000000000E+01 0. -1.
        -11    1    3    3    0    0  0.32370690920E+02  0.36815276476E+02 -0.87071364731E+01  0.49789963228E+02  0.00000000000E+00 0. -1.
         11    1    3    3    0    0  0.55846854209E+02 -0.25400848078E+02 -0.10308073436E+03  0.11995712569E+03  0.00000000000E+00 0.  1.
<mgrwt>
<rscale>  0 0.14655141E+03</rscale>
<asrwt>0</asrwt>
<pdfrwt beam="1">  1        2 0.62287518E-02 0.15341843E+03</pdfrwt>
<pdfrwt beam="2">  1       -2 0.10032653E+00 0.15341843E+03</pdfrwt>
<totfact> 0.97882671E+02</totfact>
</mgrwt>
</event>
<event>
 7    1  0.5107591E-006  0.2111529E+03  0.7546771E-02  0.1143926E+00
         -2   -1    0    0    0  501 -0.00000000000E+00  0.00000000000E+00  0.13618637394E+03  0.13618637394E+03  0.00000000000E+00 0.  1.
          2   -1    0    0  501    0  0.00000000000E+00 -0.00000000000E+00 -0.30604449620E+03  0.30604449620E+03  0.00000000000E+00 0. -1.
         23    2    1    2    0    0 -0.13172774246E+03  0.10775660462E+03 -0.60033905685E+02  0.20422480429E+03  0.95603435534E+02 0.  0.
          5    1    1    2  502    0  0.10271771007E+03 -0.28533404306E+02 -0.11034906287E+03  0.15350598945E+03  0.47000000000E+01 0.  1.
         -5    1    1    2    0  502  0.29010032390E+02 -0.79223200309E+02  0.52484629002E+00  0.84500076391E+02  0.47000000000E+01 0.  1.
        -11    1    3    3    0    0 -0.24233945672E+02  0.55783070557E+02  0.15724262929E+02  0.62819483667E+02  0.00000000000E+00 0.  1.
         11    1    3    3    0    0 -0.10749379678E+03  0.51973534058E+02 -0.75758168613E+02  0.14140532063E+03  0.00000000000E+00 0. -1.
<mgrwt>
<rscale>  0 0.20704684E+03</rscale>
<asrwt>0</asrwt>
<pdfrwt beam="2">  1        2 0.47083768E-01 0.21115286E+03</pdfrwt>
<pdfrwt beam="1">  1       -2 0.20951750E-01 0.21115286E+03</pdfrwt>
<totfact> 0.20555407E+03</totfact>
</mgrwt>
</event>
<event>
 7    1  0.5107591E-006  0.2174562E+03  0.7546771E-02  0.1139346E+00
         -1   -1    0    0    0  501 -0.00000000000E+00  0.00000000000E+00  0.50418028179E+02  0.50418028179E+02  0.00000000000E+00 0.  1.
          1   -1    0    0  501    0  0.00000000000E+00 -0.00000000000E+00 -0.87700068750E+03  0.87700068750E+03  0.00000000000E+00 0. -1.
         23    2    1    2    0    0  0.41539201415E+02  0.17302267295E+03 -0.45609863943E+03  0.49783102073E+03  0.90262980757E+02 0.  0.
          5    1    1    2  502    0 -0.45449389438E+02 -0.18373872155E+03 -0.27840192883E+03  0.33668277172E+03  0.47000000000E+01 0.  1.
         -5    1    1    2    0  502  0.39101880224E+01  0.10716048592E+02 -0.92082091053E+02  0.92904923230E+02  0.47000000000E+01 0.  1.
        -11    1    3    3    0    0 -0.28339134825E+02  0.58560170195E+02 -0.16329383671E+03  0.17577621342E+03  0.00000000000E+00 0.  1.
         11    1    3    3    0    0  0.69878336240E+02  0.11446250276E+03 -0.29280480272E+03  0.32205480731E+03  0.00000000000E+00 0. -1.
<mgrwt>
<rscale>  0 0.21282736E+03</rscale>
<asrwt>0</asrwt>
<pdfrwt beam="2">  1        1 0.13492316E+00 0.21745615E+03</pdfrwt>
<pdfrwt beam="1">  1       -1 0.77566208E-02 0.21745615E+03</pdfrwt>
<totfact> 0.17946245E+03</totfact>
</mgrwt>
</event>
<event>
 7    1  0.5107591E-006  0.1458203E+03  0.7546771E-02  0.1215706E+00
         -2   -1    0    0    0  501 -0.00000000000E+00  0.00000000000E+00  0.29403857652E+02  0.29403857652E+02  0.00000000000E+00 0.  1.
          2   -1    0    0  501    0  0.00000000000E+00 -0.00000000000E+00 -0.59221471726E+03  0.59221471726E+03  0.00000000000E+00 0. -1.
         23    2    1    2    0    0 -0.10935282019E+00  0.75085515700E+02 -0.23711552769E+03  0.26476985891E+03  0.90782476780E+02 0.  0.
          5    1    1    2  502    0 -0.26232868706E+02  0.21133712158E+02 -0.15840012227E+03  0.16201075868E+03  0.47000000000E+01 0.  1.
         -5    1    1    2    0  502  0.26342221526E+02 -0.96219227858E+02 -0.16729520964E+03  0.19483795732E+03  0.47000000000E+01 0.  1.
        -11    1    3    3    0    0 -0.17736850192E+02 -0.35259184493E+01 -0.45529311095E+01  0.18648247567E+02  0.00000000000E+00 0.  1.
         11    1    3    3    0    0  0.17627497371E+02  0.78611434149E+02 -0.23256259658E+03  0.24612161135E+03  0.00000000000E+00 0. -1.
<mgrwt>
<rscale>  0 0.13824818E+03</rscale>
<asrwt>0</asrwt>
<pdfrwt beam="2">  1        2 0.91109950E-01 0.14582029E+03</pdfrwt>
<pdfrwt beam="1">  1       -2 0.45236708E-02 0.14582029E+03</pdfrwt>
<totfact> 0.11191153E+04</totfact>
</mgrwt>
</event>
<event>
 7    1  0.5107591E-006  0.1433303E+03  0.7546771E-02  0.1215015E+00
         -1   -1    0    0    0  501 -0.00000000000E+00  0.00000000000E+00  0.29512950081E+03  0.29512950081E+03  0.00000000000E+00 0.  1.
          1   -1    0    0  501    0  0.00000000000E+00 -0.00000000000E+00 -0.61435528089E+02  0.61435528089E+02  0.00000000000E+00 0. -1.
         23    2    1    2    0    0 -0.43308742294E+02  0.67101977798E+02  0.11391206441E+03  0.16977297382E+03  0.97306637182E+02 0.  0.
          5    1    1    2  502    0 -0.14243233890E+02 -0.46955044090E+02 -0.32487840500E+01  0.49399296300E+02  0.47000000000E+01 0. -1.
         -5    1    1    2    0  502  0.57551976184E+02 -0.20146933708E+02  0.12303069236E+03  0.13739275877E+03  0.47000000000E+01 0.  1.
        -11    1    3    3    0    0 -0.32464171087E+02 -0.12397097895E+02  0.59429841835E+01  0.35255205312E+02  0.00000000000E+00 0.  1.
         11    1    3    3    0    0 -0.10844571208E+02  0.79499075693E+02  0.10796908023E+03  0.13451776851E+03  0.00000000000E+00 0. -1.
<mgrwt>
<rscale>  0 0.13875431E+03</rscale>
<asrwt>0</asrwt>
<pdfrwt beam="2">  1        1 0.94516199E-02 0.14333027E+03</pdfrwt>
<pdfrwt beam="1">  1       -1 0.45404538E-01 0.14333027E+03</pdfrwt>
<totfact> 0.32818316E+03</totfact>
</mgrwt>
</event>
<event>
 7    1  0.5107591E-006  0.1343110E+03  0.7546771E-02  0.1233646E+00
          4   -1    0    0  501    0  0.00000000000E+00  0.00000000000E+00  0.13791392896E+03  0.13791392896E+03  0.00000000000E+00 0.  1.
         -4   -1    0    0    0  501 -0.00000000000E+00 -0.00000000000E+00 -0.11802663133E+03  0.11802663133E+03  0.00000000000E+00 0. -1.
         23    2    1    2    0    0  0.42797701410E+02  0.24075511734E+02  0.54569639608E+02  0.11722389069E+03  0.91391036044E+02 0.  0.
          5    1    1    2  502    0 -0.77729828264E+02 -0.34624324350E+02 -0.50063512478E+02  0.98839340954E+02  0.47000000000E+01 0.  1.
         -5    1    1    2    0  502  0.34932126854E+02  0.10548812616E+02  0.15381170495E+02  0.39877328646E+02  0.47000000000E+01 0.  1.
        -11    1    3    3    0    0 -0.17620804408E+02  0.31663178916E+02  0.12046370316E+01  0.36256044978E+02  0.00000000000E+00 0. -1.
         11    1    3    3    0    0  0.60418505819E+02 -0.75876671815E+01  0.53365002577E+02  0.80967845708E+02  0.00000000000E+00 0.  1.
<mgrwt>
<rscale>  0 0.12591527E+03</rscale>
<asrwt>0</asrwt>
<pdfrwt beam="1">  1        4 0.21217527E-01 0.13431102E+03</pdfrwt>
<pdfrwt beam="2">  1       -4 0.18157943E-01 0.13431102E+03</pdfrwt>
<totfact> 0.89702233E+02</totfact>
</mgrwt>
</event>
<event>
 7    1  0.5107591E-006  0.1302972E+03  0.7546771E-02  0.1240642E+00
         -1   -1    0    0    0  501 -0.00000000000E+00  0.00000000000E+00  0.17013150550E+03  0.17013150550E+03  0.00000000000E+00 0.  1.
          1   -1    0    0  501    0  0.00000000000E+00 -0.00000000000E+00 -0.78195321361E+02  0.78195321361E+02  0.00000000000E+00 0. -1.
         23    2    1    2    0    0 -0.35833305022E+02  0.82271307835E+01  0.24071129825E+02  0.10141521294E+03  0.91399752155E+02 0.  0.
          5    1    1    2  502    0  0.42954814109E+01 -0.54118038587E+02  0.72662669003E+02  0.90824923494E+02  0.47000000000E+01 0. -1.
         -5    1    1    2    0  502  0.31537823611E+02  0.45890907803E+02 -0.47976146872E+01  0.56086690434E+02  0.47000000000E+01 0. -1.
        -11    1    3    3    0    0  0.27432303800E+02  0.25591298664E+01  0.25978329853E+02  0.37867585867E+02  0.00000000000E+00 0.  1.
         11    1    3    3    0    0 -0.63265608822E+02  0.56680009171E+01 -0.19072000282E+01  0.63547627068E+02  0.00000000000E+00 0. -1.
<mgrwt>
<rscale>  0 0.12150082E+03</rscale>
<asrwt>0</asrwt>
<pdfrwt beam="2">  1        1 0.12030049E-01 0.13029719E+03</pdfrwt>
<pdfrwt beam="1">  1       -1 0.26174078E-01 0.13029719E+03</pdfrwt>
<totfact> 0.61038073E+03</totfact>
</mgrwt>
</event>
<event>
 7    1  0.5107591E-006  0.2600748E+03  0.7546771E-02  0.1108664E+00
          1   -1    0    0  501    0  0.00000000000E+00  0.00000000000E+00  0.22157794139E+03  0.22157794139E+03  0.00000000000E+00 0. -1.
         -1   -1    0    0    0  501 -0.00000000000E+00 -0.00000000000E+00 -0.29362444899E+03  0.29362444899E+03  0.00000000000E+00 0.  1.
         23    2    1    2    0    0  0.18840208506E+03 -0.13779649760E+03 -0.28113180231E+02  0.25144297118E+03  0.89162752572E+02 0.  0.
          5    1    1    2  502    0 -0.12683490583E+03  0.11881928993E+03  0.17343178729E+02  0.17472261687E+03  0.47000000000E+01 0. -1.
         -5    1    1    2    0  502 -0.61567179229E+02  0.18977207668E+02 -0.61276506102E+02  0.89036802331E+02  0.47000000000E+01 0.  1.
        -11    1    3    3    0    0  0.87734908367E+02 -0.96827832464E+02 -0.51193837424E+02  0.14033478641E+03  0.00000000000E+00 0.  1.
         11    1    3    3    0    0  0.10066717670E+03 -0.40968665135E+02  0.23080657193E+02  0.11110818477E+03  0.00000000000E+00 0. -1.
<mgrwt>
<rscale>  0 0.25748424E+03</rscale>
<asrwt>0</asrwt>
<pdfrwt beam="1">  1        1 0.34088914E-01 0.26007479E+03</pdfrwt>
<pdfrwt beam="2">  1       -1 0.45172992E-01 0.26007479E+03</pdfrwt>
<totfact> 0.63978034E+02</totfact>
</mgrwt>
</event>
<event>
 7    1  0.5107591E-006  0.1251067E+03  0.7546771E-02  0.1250429E+00
          1   -1    0    0  501    0  0.00000000000E+00  0.00000000000E+00  0.31739797769E+02  0.31739797769E+02  0.00000000000E+00 0. -1.
         -1   -1    0    0    0  501 -0.00000000000E+00 -0.00000000000E+00 -0.45001546515E+03  0.45001546515E+03  0.00000000000E+00 0.  1.
         23    2    1    2    0    0  0.40570926123E+01  0.33323318361E+01 -0.81368216352E+02  0.12236922838E+03  0.91246243679E+02 0.  0.
          5    1    1    2  502    0 -0.43055351155E+02 -0.44583504965E+02 -0.12023614007E+03  0.13535239768E+03  0.47000000000E+01 0. -1.
         -5    1    1    2    0  502  0.38998258543E+02  0.41251173129E+02 -0.21667131095E+03  0.22403363686E+03  0.47000000000E+01 0. -1.
        -11    1    3    3    0    0 -0.12264508405E+02 -0.37895002176E+02 -0.15019553040E+02  0.42568020037E+02  0.00000000000E+00 0.  1.
         11    1    3    3    0    0  0.16321601018E+02  0.41227334012E+02 -0.66348663312E+02  0.79801208342E+02  0.00000000000E+00 0. -1.
<mgrwt>
<rscale>  0 0.11566279E+03</rscale>
<asrwt>0</asrwt>
<pdfrwt beam="1">  1        1 0.48830459E-02 0.12510672E+03</pdfrwt>
<pdfrwt beam="2">  1       -1 0.69233148E-01 0.12510672E+03</pdfrwt>
<totfact> 0.36031582E+03</totfact>
</mgrwt>
</event>
<event>
 7    1  0.5107591E-006  0.1806207E+03  0.7546771E-02  0.1172471E+00
         -1   -1    0    0    0  501 -0.00000000000E+00  0.00000000000E+00  0.13037475756E+03  0.13037475756E+03  0.00000000000E+00 0.  1.
          1   -1    0    0  501    0  0.00000000000E+00 -0.00000000000E+00 -0.22764708566E+03  0.22764708566E+03  0.00000000000E+00 0. -1.
         23    2    1    2    0    0  0.99720003365E+02  0.83991180598E+02 -0.72304258296E+02  0.17568358757E+03  0.92942023237E+02 0.  0.
          5    1    1    2  502    0 -0.90585435326E+02 -0.11566449517E+03 -0.16027813776E+02  0.14786134502E+03  0.47000000000E+01 0.  1.
         -5    1    1    2    0  502 -0.91345680393E+01  0.31673314576E+02 -0.89402560277E+01  0.34476910641E+02  0.47000000000E+01 0.  1.
        -11    1    3    3    0    0  0.61723198781E+02  0.70263464222E+02 -0.91601935869E+02  0.13091074183E+03  0.00000000000E+00 0. -1.
         11    1    3    3    0    0  0.37996804584E+02  0.13727716377E+02  0.19297677573E+02  0.44772845735E+02  0.00000000000E+00 0.  1.
<mgrwt>
<rscale>  0 0.17526034E+03</rscale>
<asrwt>0</asrwt>
<pdfrwt beam="2">  1        1 0.35022629E-01 0.18062069E+03</pdfrwt>
<pdfrwt beam="1">  1       -1 0.20057655E-01 0.18062069E+03</pdfrwt>
<totfact> 0.24541498E+03</totfact>
</mgrwt>
</event>
<event>
 7    1  0.5107591E-006  0.4596096E+03  0.7546771E-02  0.1046630E+00
         -1   -1    0    0    0  501 -0.00000000000E+00  0.00000000000E+00  0.11016004341E+03  0.11016004341E+03  0.00000000000E+00 0.  1.
          1   -1    0    0  501    0  0.00000000000E+00 -0.00000000000E+00 -0.12063701784E+04  0.12063701784E+04  0.00000000000E+00 0. -1.
         23    2    1    2    0    0  0.14541406007E+03 -0.17186992884E+03 -0.55930881680E+03  0.60977422533E+03  0.91179668939E+02 0.  0.
          5    1    1    2  502    0  0.35563080710E+02  0.22804529251E+03 -0.43275131748E+03  0.49047444472E+03  0.47000000000E+01 0. -1.
         -5    1    1    2    0  502 -0.18097714078E+03 -0.56175363665E+02 -0.10415000067E+03  0.21628155171E+03  0.47000000000E+01 0.  1.
        -11    1    3    3    0    0 -0.46471586533E+01 -0.46783534611E+02 -0.12506484023E+03  0.13360954104E+03  0.00000000000E+00 0.  1.
         11    1    3    3    0    0  0.15006121873E+03 -0.12508639423E+03 -0.43424397657E+03  0.47616468430E+03  0.00000000000E+00 0. -1.
<mgrwt>
<rscale>  0 0.39187426E+03</rscale>
<asrwt>0</asrwt>
<pdfrwt beam="2">  1        1 0.18559541E+00 0.45960963E+03</pdfrwt>
<pdfrwt beam="1">  1       -1 0.16947699E-01 0.45960963E+03</pdfrwt>
<totfact> 0.29461922E+02</totfact>
</mgrwt>
</event>
<event>
 7    1  0.5107591E-006  0.1329889E+03  0.7546771E-02  0.1230176E+00
         -1   -1    0    0    0  501 -0.00000000000E+00  0.00000000000E+00  0.42633376982E+02  0.42633376982E+02  0.00000000000E+00 0.  1.
          1   -1    0    0  501    0  0.00000000000E+00 -0.00000000000E+00 -0.38714532564E+03  0.38714532564E+03  0.00000000000E+00 0. -1.
         23    2    1    2    0    0  0.72561450493E+01 -0.71356650676E+02 -0.21724901386E+03  0.24570830572E+03  0.89615926244E+02 0.  0.
          5    1    1    2  502    0 -0.51459485400E+01  0.50436571007E+02 -0.14655661020E+03  0.15514914912E+03  0.47000000000E+01 0. -1.
         -5    1    1    2    0  502 -0.21101965093E+01  0.20920079669E+02  0.19293675403E+02  0.28921247781E+02  0.47000000000E+01 0.  1.
        -11    1    3    3    0    0  0.41584458962E+02 -0.91310417528E+01 -0.65180457299E+02  0.77853292572E+02  0.00000000000E+00 0.  1.
         11    1    3    3    0    0 -0.34328313913E+02 -0.62225608923E+02 -0.15206855656E+03  0.16785501314E+03  0.00000000000E+00 0. -1.
<mgrwt>
<rscale>  0 0.12818354E+03</rscale>
<asrwt>0</asrwt>
<pdfrwt beam="2">  1        1 0.59560818E-01 0.13298893E+03</pdfrwt>
<pdfrwt beam="1">  1       -1 0.65589812E-02 0.13298893E+03</pdfrwt>
<totfact> 0.70338236E+03</totfact>
</mgrwt>
</event>
<event>
 7    1  0.5107591E-006  0.1379836E+03  0.7546771E-02  0.1227723E+00
          4   -1    0    0  501    0  0.00000000000E+00  0.00000000000E+00  0.11716435161E+03  0.11716435161E+03  0.00000000000E+00 0. -1.
         -4   -1    0    0    0  501 -0.00000000000E+00 -0.00000000000E+00 -0.13255926339E+03  0.13255926339E+03  0.00000000000E+00 0.  1.
         23    2    1    2    0    0 -0.41745864801E+02 -0.40875038480E+02  0.12862123821E+02  0.10887645040E+03  0.90967913156E+02 0.  0.
          5    1    1    2  502    0  0.28650054563E+02  0.26314917656E+02  0.48007344007E+02  0.61968504874E+02  0.47000000000E+01 0.  1.
         -5    1    1    2    0  502  0.13095810239E+02  0.14560120824E+02 -0.76264379603E+02  0.78878659728E+02  0.47000000000E+01 0.  1.
        -11    1    3    3    0    0 -0.30482022251E+02 -0.47612786032E+02  0.46223752617E+02  0.73025792568E+02  0.00000000000E+00 0. -1.
         11    1    3    3    0    0 -0.11263842551E+02  0.67377475519E+01 -0.33361628796E+02  0.35850657833E+02  0.00000000000E+00 0.  1.
<mgrwt>
<rscale>  0 0.12981983E+03</rscale>
<asrwt>0</asrwt>
<pdfrwt beam="1">  1        4 0.18025285E-01 0.13798356E+03</pdfrwt>
<pdfrwt beam="2">  1       -4 0.20393733E-01 0.13798356E+03</pdfrwt>
<totfact> 0.98160548E+02</totfact>
</mgrwt>
</event>
<event>
 7    1  0.5107591E-006  0.1268750E+03  0.7546771E-02  0.1246987E+00
          2   -1    0    0  501    0  0.00000000000E+00  0.00000000000E+00  0.22279302214E+03  0.22279302214E+03  0.00000000000E+00 0. -1.
         -2   -1    0    0    0  501 -0.00000000000E+00 -0.00000000000E+00 -0.55039240850E+02  0.55039240850E+02  0.00000000000E+00 0.  1.
         23    2    1    2    0    0  0.13727594813E+02 -0.16859292636E+02  0.82468764001E+02  0.12495715248E+03  0.91326394392E+02 0.  0.
          5    1    1    2  502    0  0.29482033657E+02  0.31825634299E+02 -0.12016830505E+02  0.45260971294E+02  0.47000000000E+01 0. -1.
         -5    1    1    2    0  502 -0.43209628470E+02 -0.14966341663E+02  0.97301847796E+02  0.10761413922E+03  0.47000000000E+01 0. -1.
        -11    1    3    3    0    0  0.27080754509E+01 -0.48196997256E+02  0.16356945558E+02  0.50968950206E+02  0.00000000000E+00 0.  1.
         11    1    3    3    0    0  0.11019519362E+02  0.31337704620E+02  0.66111818443E+02  0.73988202274E+02  0.00000000000E+00 0. -1.
<mgrwt>
<rscale>  0 0.11767215E+03</rscale>
<asrwt>0</asrwt>
<pdfrwt beam="1">  1        2 0.34275849E-01 0.12687500E+03</pdfrwt>
<pdfrwt beam="2">  1       -2 0.84675757E-02 0.12687500E+03</pdfrwt>
<totfact> 0.12232174E+04</totfact>
</mgrwt>
</event>
<event>
 7    1  0.5107591E-006  0.1351857E+03  0.7546771E-02  0.1232681E+00
         -1   -1    0    0    0  501 -0.00000000000E+00  0.00000000000E+00  0.22784194610E+03  0.22784194610E+03  0.00000000000E+00 0.  1.
          1   -1    0    0  501    0  0.00000000000E+00 -0.00000000000E+00 -0.17979991921E+03  0.17979991921E+03  0.00000000000E+00 0. -1.
         23    2    1    2    0    0  0.89761888655E+01 -0.50685732683E+02 -0.14109868367E+03  0.17515660802E+03  0.90118718024E+02 0.  0.
          5    1    1    2  502    0  0.13434994779E+01  0.78412716227E+02  0.18654823470E+03  0.20241712607E+03  0.47000000000E+01 0. -1.
         -5    1    1    2    0  502 -0.10319688343E+02 -0.27726983544E+02  0.25924758521E+01  0.30068131219E+02  0.47000000000E+01 0. -1.
        -11    1    3    3    0    0  0.47275206509E+02 -0.19459818091E+02 -0.93398248273E+02  0.10647470334E+03  0.00000000000E+00 0.  1.
         11    1    3    3    0    0 -0.38299017644E+02 -0.31225914592E+02 -0.47700435392E+02  0.68681904685E+02  0.00000000000E+00 0. -1.
<mgrwt>
<rscale>  0 0.12654068E+03</rscale>
<asrwt>0</asrwt>
<pdfrwt beam="2">  1        1 0.27661526E-01 0.13518575E+03</pdfrwt>
<pdfrwt beam="1">  1       -1 0.35052607E-01 0.13518575E+03</pdfrwt>
<totfact> 0.12907760E+03</totfact>
</mgrwt>
</event>
<event>
 7    1  0.5107591E-006  0.1752231E+03  0.7546771E-02  0.1178596E+00
          1   -1    0    0  501    0  0.00000000000E+00  0.00000000000E+00  0.11777712459E+04  0.11777712459E+04  0.00000000000E+00 0. -1.
         -1   -1    0    0    0  501 -0.00000000000E+00 -0.00000000000E+00 -0.24328074309E+02  0.24328074309E+02  0.00000000000E+00 0.  1.
         23    2    1    2    0    0  0.53751158086E+02 -0.11039234761E+03  0.68886734519E+03  0.70557757645E+03  0.90696415124E+02 0.  0.
          5    1    1    2  502    0 -0.61020887880E+02  0.65713081828E+02  0.43024116551E+03  0.43951258045E+03  0.47000000000E+01 0. -1.
         -5    1    1    2    0  502  0.72697297943E+01  0.44679265785E+02  0.34334660909E+02  0.57009163317E+02  0.47000000000E+01 0. -1.
        -11    1    3    3    0    0  0.62949538638E+02 -0.10513312662E+03  0.68206769591E+03  0.69298770590E+03  0.00000000000E+00 0. -1.
         11    1    3    3    0    0 -0.91983805518E+01 -0.52592209884E+01  0.67996492851E+01  0.12589870555E+02  0.00000000000E+00 0.  1.
<mgrwt>
<rscale>  0 0.16928425E+03</rscale>
<asrwt>0</asrwt>
<pdfrwt beam="1">  1        1 0.18119553E+00 0.17522313E+03</pdfrwt>
<pdfrwt beam="2">  1       -1 0.37427816E-02 0.17522313E+03</pdfrwt>
<totfact> 0.31987716E+03</totfact>
</mgrwt>
</event>
<event>
 7    1  0.5107591E-006  0.1655034E+03  0.7546771E-02  0.1189405E+00
          1   -1    0    0  501    0  0.00000000000E+00  0.00000000000E+00  0.60534499806E+03  0.60534499806E+03  0.00000000000E+00 0. -1.
         -1   -1    0    0    0  501 -0.00000000000E+00 -0.00000000000E+00 -0.40605022274E+02  0.40605022274E+02  0.00000000000E+00 0.  1.
         23    2    1    2    0    0  0.58543048554E+02  0.91321282920E+02  0.32322610892E+03  0.35316966548E+03  0.92123991876E+02 0.  0.
          5    1    1    2  502    0 -0.71354921940E+02 -0.11926944340E+02  0.17094947015E+03  0.18568680145E+03  0.47000000000E+01 0.  1.
         -5    1    1    2    0  502  0.12811873386E+02 -0.79394338580E+02  0.70564396722E+02  0.10709355341E+03  0.47000000000E+01 0.  1.
        -11    1    3    3    0    0 -0.18886434080E+02 -0.31045087119E+01  0.30682333926E+02  0.36162701527E+02  0.00000000000E+00 0.  1.
         11    1    3    3    0    0  0.77429482634E+02  0.94425791632E+02  0.29254377499E+03  0.31700696395E+03  0.00000000000E+00 0. -1.
<mgrwt>
<rscale>  0 0.15937430E+03</rscale>
<asrwt>0</asrwt>
<pdfrwt beam="1">  1        1 0.93129993E-01 0.16550344E+03</pdfrwt>
<pdfrwt beam="2">  1       -1 0.62469269E-02 0.16550344E+03</pdfrwt>
<totfact> 0.42709432E+03</totfact>
</mgrwt>
</event>
<event>
 7    1  0.5107591E-006  0.1852074E+03  0.7546771E-02  0.1167138E+00
         -1   -1    0    0    0  501 -0.00000000000E+00  0.00000000000E+00  0.53757636026E+02  0.53757636026E+02  0.00000000000E+00 0.  1.
          1   -1    0    0  501    0  0.00000000000E+00 -0.00000000000E+00 -0.61204029320E+03  0.61204029320E+03  0.00000000000E+00 0. -1.
         23    2    1    2    0    0  0.12183763916E+03 -0.61910377936E+02 -0.34280588687E+03  0.38166412048E+03  0.97336116482E+02 0.  0.
          5    1    1    2  502    0 -0.11155711177E+03  0.90948831923E+02 -0.20640711858E+03  0.25167969290E+03  0.47000000000E+01 0.  1.
         -5    1    1    2    0  502 -0.10280527393E+02 -0.29038453987E+02 -0.90696517193E+01  0.32454115852E+02  0.47000000000E+01 0.  1.
        -11    1    3    3    0    0  0.64478940084E+02 -0.36991614320E+02 -0.29133411811E+03  0.30066839146E+03  0.00000000000E+00 0. -1.
         11    1    3    3    0    0  0.57358699081E+02 -0.24918763616E+02 -0.51471768759E+02  0.80995729021E+02  0.00000000000E+00 0.  1.
<mgrwt>
<rscale>  0 0.18068899E+03</rscale>
<asrwt>0</asrwt>
<pdfrwt beam="2">  1        1 0.94160049E-01 0.18520740E+03</pdfrwt>
<pdfrwt beam="1">  1       -1 0.82704052E-02 0.18520740E+03</pdfrwt>
<totfact> 0.27638357E+03</totfact>
</mgrwt>
</event>
<event>
 6    1  0.5107591E-006  0.1646473E+03  0.7546771E-02  0.1184405E+00
          2   -1    0    0  501    0  0.00000000000E+00  0.00000000000E+00  0.16108784496E+03  0.16108784496E+03  0.00000000000E+00 0. -1.
         -2   -1    0    0    0  501 -0.00000000000E+00 -0.00000000000E+00 -0.18839684752E+03  0.18839684752E+03  0.00000000000E+00 0.  1.
          5    1    1    2  502    0  0.67630982558E+02  0.79405434480E+02 -0.50117650836E+02  0.11581468712E+03  0.47000000000E+01 0. -1.
         -5    1    1    2    0  502  0.29867771326E+02 -0.48422527825E+02 -0.24854126712E+02  0.62262690108E+02  0.47000000000E+01 0. -1.
        -11    1    1    2    0    0 -0.83173935947E+02 -0.66153116579E+02  0.70088138776E+02  0.12730469611E+03  0.00000000000E+00 0. -1.
         11    1    1    2    0    0 -0.14324817936E+02  0.35170209925E+02 -0.22425363783E+02  0.44102619150E+02  0.00000000000E+00 0.  1.
<mgrwt>
<rscale>  0 0.16386146E+03</rscale>
<asrwt>0</asrwt>
<pdfrwt beam="1">  1        2 0.24782745E-01 0.16464728E+03</pdfrwt>
<pdfrwt beam="2">  1       -2 0.28984130E-01 0.16464728E+03</pdfrwt>
<totfact> 0.23141050E+03</totfact>
</mgrwt>
</event>
<event>
 7    1  0.5107591E-006  0.1960962E+03  0.7546771E-02  0.1158533E+00
          2   -1    0    0  501    0  0.00000000000E+00  0.00000000000E+00  0.86199067287E+02  0.86199067287E+02  0.00000000000E+00 0.  1.
         -2   -1    0    0    0  501 -0.00000000000E+00 -0.00000000000E+00 -0.42113201658E+03  0.42113201658E+03  0.00000000000E+00 0. -1.
         23    2    1    2    0    0 -0.10075524104E+03  0.11259348837E+03 -0.22157593951E+03  0.28082826570E+03  0.83304895567E+02 0.  0.
          5    1    1    2  502    0  0.23961489050E+02  0.27028109127E+02 -0.16677910555E+02  0.40061382165E+02  0.47000000000E+01 0.  1.
         -5    1    1    2    0  502  0.76793751991E+02 -0.13962159749E+03 -0.96679099229E+02  0.18644143600E+03  0.47000000000E+01 0.  1.
        -11    1    3    3    0    0 -0.54767854059E+01  0.27476113365E+02 -0.10221654656E+03  0.10598657639E+03  0.00000000000E+00 0. -1.
         11    1    3    3    0    0 -0.95278455636E+02  0.85117375002E+02 -0.11935939296E+03  0.17484168932E+03  0.00000000000E+00 0.  1.
<mgrwt>
<rscale>  0 0.18992044E+03</rscale>
<asrwt>0</asrwt>
<pdfrwt beam="1">  1        2 0.13261395E-01 0.19609619E+03</pdfrwt>
<pdfrwt beam="2">  1       -2 0.64789541E-01 0.19609619E+03</pdfrwt>
<totfact> 0.10081065E+03</totfact>
</mgrwt>
</event>
<event>
 7    1  0.5107591E-006  0.1350223E+03  0.7546771E-02  0.1232270E+00
          3   -1    0    0  501    0  0.00000000000E+00  0.00000000000E+00  0.63855586018E+02  0.63855586018E+02  0.00000000000E+00 0. -1.
         -3   -1    0    0    0  501 -0.00000000000E+00 -0.00000000000E+00 -0.32401193206E+03  0.32401193206E+03  0.00000000000E+00 0.  1.
         23    2    1    2    0    0 -0.10004688456E+02 -0.50067062794E+02 -0.12488051634E+02  0.10578489916E+03  0.91802444892E+02 0.  0.
          5    1    1    2  502    0 -0.47726431899E+02 -0.11377357520E+02 -0.11069768959E+03  0.12117477066E+03  0.47000000000E+01 0.  1.
         -5    1    1    2    0  502  0.57731120355E+02  0.61444420314E+02 -0.13697060483E+03  0.16090784826E+03  0.47000000000E+01 0.  1.
        -11    1    3    3    0    0 -0.22021402738E+02 -0.23285062890E+02 -0.49238541806E+02  0.58750066652E+02  0.00000000000E+00 0.  1.
         11    1    3    3    0    0  0.12016714283E+02 -0.26781999904E+02  0.36750490172E+02  0.47034832506E+02  0.00000000000E+00 0. -1.
<mgrwt>
<rscale>  0 0.12680844E+03</rscale>
<asrwt>0</asrwt>
<pdfrwt beam="1">  1        3 0.98239365E-02 0.13502229E+03</pdfrwt>
<pdfrwt beam="2">  1       -3 0.49847989E-01 0.13502229E+03</pdfrwt>
<totfact> 0.70597686E+02</totfact>
</mgrwt>
</event>
<event>
 7    1  0.5107591E-006  0.1285209E+03  0.7546771E-02  0.1244337E+00
          1   -1    0    0  501    0  0.00000000000E+00  0.00000000000E+00  0.20208616343E+03  0.20208616343E+03  0.00000000000E+00 0. -1.
         -1   -1    0    0    0  501 -0.00000000000E+00 -0.00000000000E+00 -0.73090419133E+02  0.73090419133E+02  0.00000000000E+00 0.  1.
         23    2    1    2    0    0 -0.17726814815E+01 -0.29805445847E+02  0.10957488851E+03  0.14519658642E+03  0.90464830255E+02 0.  0.
          5    1    1    2  502    0 -0.58310684413E+02  0.27424616417E+02  0.25287329641E+02  0.69381442351E+02  0.47000000000E+01 0. -1.
         -5    1    1    2    0  502  0.60083365894E+02  0.23808294300E+01 -0.58664738603E+01  0.60598553790E+02  0.47000000000E+01 0. -1.
        -11    1    3    3    0    0  0.10404482604E+02  0.28872735200E+02  0.60107359292E+02  0.67489130512E+02  0.00000000000E+00 0.  1.
         11    1    3    3    0    0 -0.12177164086E+02 -0.58678181047E+02  0.49467529221E+02  0.77707455907E+02  0.00000000000E+00 0. -1.
<mgrwt>
<rscale>  0 0.11925142E+03</rscale>
<asrwt>0</asrwt>
<pdfrwt beam="1">  1        1 0.31090179E-01 0.12852093E+03</pdfrwt>
<pdfrwt beam="2">  1       -1 0.11244680E-01 0.12852093E+03</pdfrwt>
<totfact> 0.69481849E+03</totfact>
</mgrwt>
</event>
<event>
 7    1  0.5107591E-006  0.3058334E+03  0.7546771E-02  0.1086910E+00
         -1   -1    0    0    0  501 -0.00000000000E+00  0.00000000000E+00  0.17240283326E+04  0.17240283326E+04  0.00000000000E+00 0.  1.
          1   -1    0    0  501    0  0.00000000000E+00 -0.00000000000E+00 -0.14691162323E+03  0.14691162323E+03  0.00000000000E+00 0. -1.
         23    2    1    2    0    0  0.64233038054E+02  0.24537705919E+03  0.66051398086E+01  0.27092724515E+03  0.94985051112E+02 0.  0.
          5    1    1    2  502    0 -0.45300617076E+02 -0.22453904413E+03  0.89373312174E+03  0.92263259813E+03  0.47000000000E+01 0. -1.
         -5    1    1    2    0  502 -0.18932420979E+02 -0.20838015066E+02  0.67677844780E+03  0.67738011252E+03  0.47000000000E+01 0.  1.
        -11    1    3    3    0    0  0.51159613000E+02  0.10183234283E+03  0.43764391090E+02  0.12207560762E+03  0.00000000000E+00 0.  1.
         11    1    3    3    0    0  0.13073425055E+02  0.14354471636E+03 -0.37159251281E+02  0.14885163752E+03  0.00000000000E+00 0. -1.
<mgrwt>
<rscale>  0 0.29668433E+03</rscale>
<asrwt>0</asrwt>
<pdfrwt beam="2">  1        1 0.22601789E-01 0.30583343E+03</pdfrwt>
<pdfrwt beam="1">  1       -1 0.26523511E+00 0.30583343E+03</pdfrwt>
<totfact> 0.13819709E+01</totfact>
</mgrwt>
</event>
<event>
 7    1  0.5107591E-006  0.1923428E+03  0.7546771E-02  0.1161230E+00
          2   -1    0    0  501    0  0.00000000000E+00  0.00000000000E+00  0.21301788909E+03  0.21301788909E+03  0.00000000000E+00 0.  1.
         -2   -1    0    0    0  501 -0.00000000000E+00 -0.00000000000E+00 -0.17633357132E+03  0.17633357132E+03  0.00000000000E+00 0. -1.
         23    2    1    2    0    0  0.10780528831E+03  0.98156899637E+02  0.84178912023E+02  0.19123156932E+03  0.90700974326E+02 0.  0.
          5    1    1    2  502    0 -0.11710282861E+03 -0.28229002342E+02 -0.19676006590E+02  0.12214411274E+03  0.47000000000E+01 0. -1.
         -5    1    1    2    0  502  0.92975402986E+01 -0.69927897294E+02 -0.27818587672E+02  0.75975778349E+02  0.47000000000E+01 0. -1.
        -11    1    3    3    0    0  0.62895152398E+02 -0.74270363674E+00  0.26571804348E+02  0.68281861355E+02  0.00000000000E+00 0.  1.
         11    1    3    3    0    0  0.44910135909E+02  0.98899603273E+02  0.57607107676E+02  0.12294970797E+03  0.00000000000E+00 0. -1.
<mgrwt>
<rscale>  0 0.18696237E+03</rscale>
<asrwt>0</asrwt>
<pdfrwt beam="1">  1        2 0.32771983E-01 0.19234281E+03</pdfrwt>
<pdfrwt beam="2">  1       -2 0.27128242E-01 0.19234281E+03</pdfrwt>
<totfact> 0.19280338E+03</totfact>
</mgrwt>
</event>
<event>
 7    1  0.5107591E-006  0.1346305E+03  0.7546771E-02  0.1233678E+00
         -1   -1    0    0    0  501 -0.00000000000E+00  0.00000000000E+00  0.25423610485E+02  0.25423610485E+02  0.00000000000E+00 0.  1.
          1   -1    0    0  501    0  0.00000000000E+00 -0.00000000000E+00 -0.59014855252E+03  0.59014855252E+03  0.00000000000E+00 0. -1.
         23    2    1    2    0    0 -0.93066744689E+01  0.49143190163E+02 -0.32142081199E+03  0.33750332475E+03  0.89974932682E+02 0.  0.
          5    1    1    2  502    0  0.17147469821E+02 -0.58616041873E+02 -0.37450895457E+02  0.71795094935E+02  0.47000000000E+01 0. -1.
         -5    1    1    2    0  502 -0.78407953521E+01  0.94728517105E+01 -0.20585323458E+03  0.20627374331E+03  0.47000000000E+01 0. -1.
        -11    1    3    3    0    0  0.14833158394E+02 -0.12666612057E+02 -0.16812687148E+02  0.25751351383E+02  0.00000000000E+00 0.  1.
         11    1    3    3    0    0 -0.24139832862E+02  0.61809802220E+02 -0.30460812484E+03  0.31175197337E+03  0.00000000000E+00 0. -1.
<mgrwt>
<rscale>  0 0.12589438E+03</rscale>
<asrwt>0</asrwt>
<pdfrwt beam="2">  1        1 0.90792087E-01 0.13463053E+03</pdfrwt>
<pdfrwt beam="1">  1       -1 0.39113246E-02 0.13463053E+03</pdfrwt>
<totfact> 0.87569794E+03</totfact>
</mgrwt>
</event>
<event>
 7    1  0.5107591E-006  0.1663654E+03  0.7546771E-02  0.1187432E+00
         -2   -1    0    0    0  501 -0.00000000000E+00  0.00000000000E+00  0.45956678964E+02  0.45956678964E+02  0.00000000000E+00 0.  1.
          2   -1    0    0  501    0  0.00000000000E+00 -0.00000000000E+00 -0.55253337485E+03  0.55253337485E+03  0.00000000000E+00 0. -1.
         23    2    1    2    0    0 -0.10816048019E+03 -0.18805791538E+02 -0.29519251827E+03  0.32949056924E+03  0.96814591380E+02 0.  0.
          5    1    1    2  502    0  0.16799844415E+02 -0.40243109167E+02 -0.11682546948E+03  0.12478791178E+03  0.47000000000E+01 0. -1.
         -5    1    1    2    0  502  0.91360635775E+02  0.59048900705E+02 -0.94558708143E+02  0.14421157280E+03  0.47000000000E+01 0. -1.
        -11    1    3    3    0    0 -0.47245474258E+02  0.37421569562E+02 -0.91402394034E+02  0.10948473109E+03  0.00000000000E+00 0.  1.
         11    1    3    3    0    0 -0.60915005932E+02 -0.56227361100E+02 -0.20379012423E+03  0.22000583815E+03  0.00000000000E+00 0. -1.
<mgrwt>
<rscale>  0 0.16112519E+03</rscale>
<asrwt>0</asrwt>
<pdfrwt beam="2">  1        2 0.85005125E-01 0.16636542E+03</pdfrwt>
<pdfrwt beam="1">  1       -2 0.70702591E-02 0.16636542E+03</pdfrwt>
<totfact> 0.61965005E+03</totfact>
</mgrwt>
</event>
<event>
 7    1  0.5107591E-006  0.1622766E+03  0.7546771E-02  0.1194529E+00
         -1   -1    0    0    0  501 -0.00000000000E+00  0.00000000000E+00  0.61974939978E+02  0.61974939978E+02  0.00000000000E+00 0.  1.
          1   -1    0    0  501    0  0.00000000000E+00 -0.00000000000E+00 -0.40552469997E+03  0.40552469997E+03  0.00000000000E+00 0. -1.
         23    2    1    2    0    0  0.86400387865E+02  0.56957577078E+02 -0.76616150048E+02  0.15511008213E+03  0.86486475935E+02 0.  0.
          5    1    1    2  502    0  0.30808239826E+02 -0.17256117991E+02 -0.86479568574E+02  0.93529284345E+02  0.47000000000E+01 0.  1.
         -5    1    1    2    0  502 -0.11720862769E+03 -0.39701459087E+02 -0.18045404137E+03  0.21886027347E+03  0.47000000000E+01 0.  1.
        -11    1    3    3    0    0  0.38445247366E+02  0.27480105531E+02  0.13241696499E+02  0.49076835383E+02  0.00000000000E+00 0.  1.
         11    1    3    3    0    0  0.47955140499E+02  0.29477471547E+02 -0.89857846547E+02  0.10603324674E+03  0.00000000000E+00 0. -1.
<mgrwt>
<rscale>  0 0.15494168E+03</rscale>
<asrwt>0</asrwt>
<pdfrwt beam="2">  1        1 0.62388418E-01 0.16227657E+03</pdfrwt>
<pdfrwt beam="1">  1       -1 0.95346057E-02 0.16227657E+03</pdfrwt>
<totfact> 0.38099479E+03</totfact>
</mgrwt>
</event>
<event>
 7    1  0.5107591E-006  0.1301757E+03  0.7546771E-02  0.1241189E+00
         -4   -1    0    0    0  501 -0.00000000000E+00  0.00000000000E+00  0.83326372432E+03  0.83326372432E+03  0.00000000000E+00 0.  1.
          4   -1    0    0  501    0  0.00000000000E+00 -0.00000000000E+00 -0.29539640731E+02  0.29539640731E+02  0.00000000000E+00 0. -1.
         23    2    1    2    0    0 -0.73291523391E+01 -0.35593253705E+02  0.76687577319E+02  0.12420483840E+03  0.90693225672E+02 0.  0.
          5    1    1    2  502    0  0.37008075728E+02 -0.32173841629E+02  0.18221202729E+03  0.18875398445E+03  0.47000000000E+01 0. -1.
         -5    1    1    2    0  502 -0.29678923389E+02  0.67767095334E+02  0.54482447898E+03  0.54984454221E+03  0.47000000000E+01 0. -1.
        -11    1    3    3    0    0  0.23763390094E+02 -0.22331499326E+02  0.83571476672E+02  0.89708340103E+02  0.00000000000E+00 0.  1.
         11    1    3    3    0    0 -0.31092542434E+02 -0.13261754379E+02 -0.68838993533E+01  0.34496498293E+02  0.00000000000E+00 0. -1.
<mgrwt>
<rscale>  0 0.12116417E+03</rscale>
<asrwt>0</asrwt>
<pdfrwt beam="2">  1        4 0.45445607E-02 0.13017566E+03</pdfrwt>
<pdfrwt beam="1">  1       -4 0.12819440E+00 0.13017566E+03</pdfrwt>
<totfact> 0.21838330E+02</totfact>
</mgrwt>
</event>
<event>
 7    1  0.5107591E-006  0.1537616E+03  0.7546771E-02  0.1204584E+00
          2   -1    0    0  501    0  0.00000000000E+00  0.00000000000E+00  0.34114022862E+03  0.34114022862E+03  0.00000000000E+00 0. -1.
         -2   -1    0    0    0  501 -0.00000000000E+00 -0.00000000000E+00 -0.63104777680E+02  0.63104777680E+02  0.00000000000E+00 0.  1.
         23    2    1    2    0    0 -0.88950600131E+02 -0.10240777323E+02  0.18466483510E+03  0.22435418308E+03  0.90645547922E+02 0.  0.
          5    1    1    2  502    0  0.85208642496E+02  0.48645951467E+02  0.10031868692E+03  0.14040252952E+03  0.47000000000E+01 0.  1.
         -5    1    1    2    0  502  0.37419576356E+01 -0.38405174144E+02 -0.69480710788E+01  0.39488293704E+02  0.47000000000E+01 0.  1.
        -11    1    3    3    0    0  0.11534944981E+02  0.10419349221E+02  0.64539336863E+02  0.66384816009E+02  0.00000000000E+00 0. -1.
         11    1    3    3    0    0 -0.10048554511E+03 -0.20660126545E+02  0.12012549824E+03  0.15796936707E+03  0.00000000000E+00 0.  1.
<mgrwt>
<rscale>  0 0.14670271E+03</rscale>
<asrwt>0</asrwt>
<pdfrwt beam="1">  1        2 0.52483111E-01 0.15376162E+03</pdfrwt>
<pdfrwt beam="2">  1       -2 0.97084275E-02 0.15376162E+03</pdfrwt>
<totfact> 0.63673333E+03</totfact>
</mgrwt>
</event>
<event>
 7    1  0.5107591E-006  0.1401975E+03  0.7546771E-02  0.1219845E+00
         -2   -1    0    0    0  501 -0.00000000000E+00  0.00000000000E+00  0.17348530630E+03  0.17348530630E+03  0.00000000000E+00 0.  1.
          2   -1    0    0  501    0  0.00000000000E+00 -0.00000000000E+00 -0.12559348548E+03  0.12559348548E+03  0.00000000000E+00 0. -1.
         23    2    1    2    0    0 -0.58903384700E+02 -0.23795321804E+02 -0.46482021332E+02  0.13007656166E+03  0.10355436986E+03 0.  0.
          5    1    1    2  502    0 -0.24173521089E+02  0.36112332207E+02  0.68021283053E+02  0.80854465599E+02  0.47000000000E+01 0.  1.
         -5    1    1    2    0  502  0.83076905789E+02 -0.12317010403E+02  0.26352559102E+02  0.88147764532E+02  0.47000000000E+01 0.  1.
        -11    1    3    3    0    0 -0.20917825863E+02 -0.14475548237E+02  0.32896907289E+02  0.41584894430E+02  0.00000000000E+00 0.  1.
         11    1    3    3    0    0 -0.37985558838E+02 -0.93197735670E+01 -0.79378928620E+02  0.88491667226E+02  0.00000000000E+00 0. -1.
<mgrwt>
<rscale>  0 0.13526595E+03</rscale>
<asrwt>0</asrwt>
<pdfrwt beam="2">  1        2 0.19322075E-01 0.14019747E+03</pdfrwt>
<pdfrwt beam="1">  1       -2 0.26690047E-01 0.14019747E+03</pdfrwt>
<totfact> 0.35164531E+03</totfact>
</mgrwt>
</event>
<event>
 7    1  0.5107591E-006  0.1262767E+03  0.7546771E-02  0.1248693E+00
         -1   -1    0    0    0  501 -0.00000000000E+00  0.00000000000E+00  0.51823160630E+02  0.51823160630E+02  0.00000000000E+00 0.  1.
          1   -1    0    0  501    0  0.00000000000E+00 -0.00000000000E+00 -0.23886907592E+03  0.23886907592E+03  0.00000000000E+00 0. -1.
         23    2    1    2    0    0  0.62343485889E+01 -0.16811623033E+02 -0.10725346411E+03  0.14131803766E+03  0.90255107523E+02 0.  0.
          5    1    1    2  502    0  0.43492760689E+02  0.15466263462E+02  0.92102301632E+01  0.47304797616E+02  0.47000000000E+01 0. -1.
         -5    1    1    2    0  502 -0.49727109278E+02  0.13453595715E+01 -0.89002681346E+02  0.10206940127E+03  0.47000000000E+01 0. -1.
        -11    1    3    3    0    0  0.31601993265E+02 -0.44423284816E+02 -0.64352312842E+02  0.84340585606E+02  0.00000000000E+00 0.  1.
         11    1    3    3    0    0 -0.25367644676E+02  0.27611661782E+02 -0.42901151264E+02  0.56977452054E+02  0.00000000000E+00 0. -1.
<mgrwt>
<rscale>  0 0.11667070E+03</rscale>
<asrwt>0</asrwt>
<pdfrwt beam="2">  1        1 0.36749090E-01 0.12627674E+03</pdfrwt>
<pdfrwt beam="1">  1       -1 0.79727937E-02 0.12627674E+03</pdfrwt>
<totfact> 0.95139605E+03</totfact>
</mgrwt>
</event>
<event>
 7    1  0.5107591E-006  0.1943730E+03  0.7546771E-02  0.1176227E+00
         -4   -1    0    0    0  501 -0.00000000000E+00  0.00000000000E+00  0.60273295785E+03  0.60273295785E+03  0.00000000000E+00 0.  1.
          4   -1    0    0  501    0  0.00000000000E+00 -0.00000000000E+00 -0.44097498607E+02  0.44097498607E+02  0.00000000000E+00 0. -1.
         23    2    1    2    0    0  0.24409254187E+02 -0.70602174586E+02  0.12640301975E+03  0.17290458818E+03  0.91311524283E+02 0.  0.
          5    1    1    2  502    0 -0.74176916758E+02  0.79487200550E+02  0.14002448053E+03  0.17733971687E+03  0.47000000000E+01 0. -1.
         -5    1    1    2    0  502  0.49767662571E+02 -0.88850259633E+01  0.29220795896E+03  0.29658615141E+03  0.47000000000E+01 0.  1.
        -11    1    3    3    0    0  0.17370400168E+02 -0.92453614240E+02  0.92268487294E+02  0.13176826376E+03  0.00000000000E+00 0.  1.
         11    1    3    3    0    0  0.70388540191E+01  0.21851439653E+02  0.34134532452E+02  0.41136324417E+02  0.00000000000E+00 0. -1.
<mgrwt>
<rscale>  0 0.17156356E+03</rscale>
<asrwt>0</asrwt>
<pdfrwt beam="2">  1        4 0.67842310E-02 0.19437296E+03</pdfrwt>
<pdfrwt beam="1">  1       -4 0.92728142E-01 0.19437296E+03</pdfrwt>
<totfact> 0.26183339E+02</totfact>
</mgrwt>
</event>
<event>
 7    1  0.5107591E-006  0.2269460E+03  0.7546771E-02  0.1129180E+00
          2   -1    0    0  501    0  0.00000000000E+00  0.00000000000E+00  0.86371451802E+02  0.86371451802E+02  0.00000000000E+00 0.  1.
         -2   -1    0    0    0  501 -0.00000000000E+00 -0.00000000000E+00 -0.61521910952E+03  0.61521910952E+03  0.00000000000E+00 0. -1.
         23    2    1    2    0    0  0.13004008466E+03 -0.13773107003E+03 -0.19351004386E+03  0.29667599116E+03  0.12120328126E+03 0.  0.
          5    1    1    2  502    0  0.79276332551E+01  0.62186509739E+02 -0.55475067972E+02  0.83842605691E+02  0.47000000000E+01 0.  1.
         -5    1    1    2    0  502 -0.13796771792E+03  0.75544560290E+02 -0.27986254589E+03  0.32107196447E+03  0.47000000000E+01 0.  1.
        -11    1    3    3    0    0  0.12294611093E+02 -0.36374218687E+02  0.10911902336E+02  0.39916298170E+02  0.00000000000E+00 0.  1.
         11    1    3    3    0    0  0.11774547357E+03 -0.10135685134E+03 -0.20442194619E+03  0.25675969299E+03  0.00000000000E+00 0. -1.
<mgrwt>
<rscale>  0 0.22642745E+03</rscale>
<asrwt>0</asrwt>
<pdfrwt beam="1">  1        2 0.13287916E-01 0.22694602E+03</pdfrwt>
<pdfrwt beam="2">  1       -2 0.94649092E-01 0.22694602E+03</pdfrwt>
<totfact> 0.43907962E+02</totfact>
</mgrwt>
</event>
<event>
 7    1  0.5107591E-006  0.1792581E+03  0.7546771E-02  0.1177772E+00
         -2   -1    0    0    0  501 -0.00000000000E+00  0.00000000000E+00  0.29139524176E+02  0.29139524176E+02  0.00000000000E+00 0.  1.
          2   -1    0    0  501    0  0.00000000000E+00 -0.00000000000E+00 -0.91882402608E+03  0.91882402608E+03  0.00000000000E+00 0. -1.
         23    2    1    2    0    0  0.36412543011E+02  0.12322375048E+03 -0.46002154937E+03  0.48240612132E+03  0.67719081710E+02 0.  0.
          5    1    1    2  502    0 -0.82189745038E+02 -0.90012393554E+02 -0.30937543327E+03  0.33255470813E+03  0.47000000000E+01 0.  1.
         -5    1    1    2    0  502  0.45777202027E+02 -0.33211356927E+02 -0.12028751926E+03  0.13300272081E+03  0.47000000000E+01 0.  1.
        -11    1    3    3    0    0 -0.88454540660E+01  0.19527168259E+02 -0.25099018375E+02  0.33007773043E+02  0.00000000000E+00 0.  1.
         11    1    3    3    0    0  0.45257997077E+02  0.10369658222E+03 -0.43492253100E+03  0.44939834827E+03  0.00000000000E+00 0. -1.
<mgrwt>
<rscale>  0 0.17007234E+03</rscale>
<asrwt>0</asrwt>
<pdfrwt beam="2">  1        2 0.14135753E+00 0.17925810E+03</pdfrwt>
<pdfrwt beam="1">  1       -2 0.44830040E-02 0.17925810E+03</pdfrwt>
<totfact> 0.67044278E+03</totfact>
</mgrwt>
</event>
<event>
 7    1  0.5107591E-006  0.2862003E+03  0.7546771E-02  0.1094290E+00
         -2   -1    0    0    0  501 -0.00000000000E+00  0.00000000000E+00  0.94978134145E+02  0.94978134145E+02  0.00000000000E+00 0.  1.
          2   -1    0    0  501    0  0.00000000000E+00 -0.00000000000E+00 -0.82062048363E+03  0.82062048363E+03  0.00000000000E+00 0. -1.
         23    2    1    2    0    0 -0.74924841859E+02 -0.24631220554E+03 -0.36531196664E+03  0.45543713602E+03  0.87673926436E+02 0.  0.
          5    1    1    2  502    0  0.39156413662E+02  0.24698537785E+03 -0.31570070065E+03  0.40277043585E+03  0.47000000000E+01 0.  1.
         -5    1    1    2    0  502  0.35768428197E+02 -0.67317231246E+00 -0.44629682189E+02  0.57391045895E+02  0.47000000000E+01 0.  1.
        -11    1    3    3    0    0 -0.87559100280E+02 -0.18078097173E+03 -0.23593177219E+03  0.30985828520E+03  0.00000000000E+00 0.  1.
         11    1    3    3    0    0  0.12634258421E+02 -0.65531233804E+02 -0.12938019445E+03  0.14557885082E+03  0.00000000000E+00 0. -1.
<mgrwt>
<rscale>  0 0.28257557E+03</rscale>
<asrwt>0</asrwt>
<pdfrwt beam="2">  1        2 0.12624930E+00 0.28620029E+03</pdfrwt>
<pdfrwt beam="1">  1       -2 0.14612021E-01 0.28620029E+03</pdfrwt>
<totfact> 0.12286727E+03</totfact>
</mgrwt>
</event>
<event>
 7    1  0.5107591E-006  0.1704148E+03  0.7546771E-02  0.1182347E+00
         -1   -1    0    0    0  501 -0.00000000000E+00  0.00000000000E+00  0.87325099301E+02  0.87325099301E+02  0.00000000000E+00 0.  1.
          1   -1    0    0  501    0  0.00000000000E+00 -0.00000000000E+00 -0.32900460668E+03  0.32900460668E+03  0.00000000000E+00 0. -1.
         23    2    1    2    0    0 -0.35752456151E+02  0.11018095597E+03 -0.17797863773E+03  0.23439837755E+03  0.99237708210E+02 0.  0.
          5    1    1    2  502    0  0.69861906632E+02 -0.10845447838E+03 -0.27595346408E+02  0.13201004894E+03  0.47000000000E+01 0. -1.
         -5    1    1    2    0  502 -0.34109450481E+02 -0.17264775916E+01 -0.36105523237E+02  0.49921279483E+02  0.47000000000E+01 0. -1.
        -11    1    3    3    0    0  0.85011135307E+01  0.77183380340E+02 -0.43439586094E+02  0.88974944631E+02  0.00000000000E+00 0. -1.
         11    1    3    3    0    0 -0.44253569682E+02  0.32997575631E+02 -0.13453905164E+03  0.14542343292E+03  0.00000000000E+00 0.  1.
<mgrwt>
<rscale>  0 0.16575674E+03</rscale>
<asrwt>0</asrwt>
<pdfrwt beam="2">  1        1 0.50616094E-01 0.17041481E+03</pdfrwt>
<pdfrwt beam="1">  1       -1 0.13434631E-01 0.17041481E+03</pdfrwt>
<totfact> 0.29243490E+03</totfact>
</mgrwt>
</event>
<event>
 7    1  0.5107591E-006  0.1937915E+03  0.7546771E-02  0.1182440E+00
          1   -1    0    0  501    0  0.00000000000E+00  0.00000000000E+00  0.51746417419E+03  0.51746417419E+03  0.00000000000E+00 0. -1.
         -1   -1    0    0    0  501 -0.00000000000E+00 -0.00000000000E+00 -0.42921981299E+02  0.42921981299E+02  0.00000000000E+00 0.  1.
         23    2    1    2    0    0  0.50542570300E+02  0.15451132635E+02  0.14645270753E+03  0.17933781374E+03  0.88996443646E+02 0.  0.
          5    1    1    2  502    0 -0.88439762243E+02  0.41896410706E+02  0.89464702232E+02  0.13267601034E+03  0.47000000000E+01 0. -1.
         -5    1    1    2    0  502  0.37897191943E+02 -0.57347543341E+02  0.23862478314E+03  0.24837233141E+03  0.47000000000E+01 0.  1.
        -11    1    3    3    0    0  0.25468466404E+02 -0.57392995534E+01 -0.30393992455E+01  0.26283460352E+02  0.00000000000E+00 0.  1.
         11    1    3    3    0    0  0.25074103896E+02  0.21190432189E+02  0.14949210677E+03  0.15305435339E+03  0.00000000000E+00 0. -1.
<mgrwt>
<rscale>  0 0.16566974E+03</rscale>
<asrwt>0</asrwt>
<pdfrwt beam="1">  1        1 0.79609869E-01 0.19379146E+03</pdfrwt>
<pdfrwt beam="2">  1       -1 0.66033821E-02 0.19379146E+03</pdfrwt>
<totfact> 0.48889746E+03</totfact>
</mgrwt>
</event>
<event>
 7    1  0.5107591E-006  0.1251569E+03  0.7546771E-02  0.1253614E+00
          2   -1    0    0  501    0  0.00000000000E+00  0.00000000000E+00  0.11722694711E+04  0.11722694711E+04  0.00000000000E+00 0. -1.
         -2   -1    0    0    0  501 -0.00000000000E+00 -0.00000000000E+00 -0.95001043664E+01  0.95001043664E+01  0.00000000000E+00 0.  1.
         23    2    1    2    0    0 -0.46247245903E+01  0.42144114722E+01  0.49967454733E+03  0.50696664391E+03  0.85448086311E+02 0.  0.
          5    1    1    2  502    0  0.31745474149E+02  0.43184646952E+02  0.49686722232E+03  0.49977176339E+03  0.47000000000E+01 0. -1.
         -5    1    1    2    0  502 -0.27120749558E+02 -0.47399058424E+02  0.16622759707E+03  0.17503116815E+03  0.47000000000E+01 0. -1.
        -11    1    3    3    0    0 -0.42539698953E+02  0.16710591037E+02  0.27546131298E+03  0.27922715625E+03  0.00000000000E+00 0.  1.
         11    1    3    3    0    0  0.37914974363E+02 -0.12496179565E+02  0.22421323435E+03  0.22773948767E+03  0.00000000000E+00 0. -1.
<mgrwt>
<rscale>  0 0.11384319E+03</rscale>
<asrwt>0</asrwt>
<pdfrwt beam="1">  1        2 0.18034904E+00 0.12515693E+03</pdfrwt>
<pdfrwt beam="2">  1       -2 0.14615554E-02 0.12515693E+03</pdfrwt>
<totfact> 0.24108678E+04</totfact>
</mgrwt>
</event>
<event>
 7    1  0.5107591E-006  0.2406371E+03  0.7546771E-02  0.1122890E+00
         -1   -1    0    0    0  501 -0.00000000000E+00  0.00000000000E+00  0.45264409008E+02  0.45264409008E+02  0.00000000000E+00 0.  1.
          1   -1    0    0  501    0  0.00000000000E+00 -0.00000000000E+00 -0.12083727156E+04  0.12083727156E+04  0.00000000000E+00 0. -1.
         23    2    1    2    0    0 -0.92434023355E+02 -0.18367650541E+03 -0.45101276147E+03  0.50198143347E+03  0.79320496895E+02 0.  0.
          5    1    1    2  502    0 -0.22766875193E+02  0.18525312140E+01 -0.10366639796E+03  0.10625711527E+03  0.47000000000E+01 0.  1.
         -5    1    1    2    0  502  0.11520089855E+03  0.18182397420E+03 -0.60842914713E+03  0.64539857584E+03  0.47000000000E+01 0.  1.
        -11    1    3    3    0    0 -0.68999776881E+02 -0.62124278414E+02 -0.24006543691E+03  0.25739426795E+03  0.00000000000E+00 0.  1.
         11    1    3    3    0    0 -0.23434246474E+02 -0.12155222700E+03 -0.21094732456E+03  0.24458716552E+03  0.00000000000E+00 0. -1.
<mgrwt>
<rscale>  0 0.23540795E+03</rscale>
<asrwt>0</asrwt>
<pdfrwt beam="2">  1        1 0.18590350E+00 0.24063710E+03</pdfrwt>
<pdfrwt beam="1">  1       -1 0.69637551E-02 0.24063710E+03</pdfrwt>
<totfact> 0.12050826E+03</totfact>
</mgrwt>
</event>
<event>
 7    1  0.5107591E-006  0.1279947E+03  0.7546771E-02  0.1240854E+00
         -2   -1    0    0    0  501 -0.00000000000E+00  0.00000000000E+00  0.38122240538E+02  0.38122240538E+02  0.00000000000E+00 0.  1.
          2   -1    0    0  501    0  0.00000000000E+00 -0.00000000000E+00 -0.36898841015E+03  0.36898841015E+03  0.00000000000E+00 0. -1.
         23    2    1    2    0    0 -0.27308660781E+02 -0.28227097713E+02 -0.19297470717E+03  0.21897054128E+03  0.95740943923E+02 0.  0.
          5    1    1    2  502    0  0.62314407052E+02 -0.12144427131E+02 -0.36366658878E+02  0.73315730334E+02  0.47000000000E+01 0. -1.
         -5    1    1    2    0  502 -0.35005746271E+02  0.40371524845E+02 -0.10152480357E+03  0.11482437907E+03  0.47000000000E+01 0.  1.
        -11    1    3    3    0    0 -0.27180726258E+02 -0.59201516236E+02 -0.16437048339E+03  0.17680856092E+03  0.00000000000E+00 0.  1.
         11    1    3    3    0    0 -0.12793452236E+00  0.30974418523E+02 -0.28604223779E+02  0.42161980362E+02  0.00000000000E+00 0. -1.
<mgrwt>
<rscale>  0 0.12137016E+03</rscale>
<asrwt>0</asrwt>
<pdfrwt beam="2">  1        2 0.56767447E-01 0.12799471E+03</pdfrwt>
<pdfrwt beam="1">  1       -2 0.58649602E-02 0.12799471E+03</pdfrwt>
<totfact> 0.12568734E+04</totfact>
</mgrwt>
</event>
<event>
 7    1  0.5107591E-006  0.1409890E+03  0.7546771E-02  0.1223442E+00
          1   -1    0    0  501    0  0.00000000000E+00  0.00000000000E+00  0.82274198821E+02  0.82274198821E+02  0.00000000000E+00 0. -1.
         -1   -1    0    0    0  501 -0.00000000000E+00 -0.00000000000E+00 -0.19653245476E+03  0.19653245476E+03  0.00000000000E+00 0.  1.
         23    2    1    2    0    0 -0.30631204674E+02 -0.57569762829E+02 -0.30884441869E+02  0.11501075690E+03  0.89560466513E+02 0.  0.
          5    1    1    2  502    0  0.23038623117E+02 -0.37746821195E+02 -0.34647737521E+02  0.56375139741E+02  0.47000000000E+01 0. -1.
         -5    1    1    2    0  502  0.75925815569E+01  0.95316584025E+02 -0.48726076548E+02  0.10742075694E+03  0.47000000000E+01 0. -1.
        -11    1    3    3    0    0  0.44076101074E+01 -0.72311568190E+02 -0.24423513744E+02  0.76451932249E+02  0.00000000000E+00 0.  1.
         11    1    3    3    0    0 -0.35038814781E+02  0.14741805361E+02 -0.64609281256E+01  0.38558824655E+02  0.00000000000E+00 0. -1.
<mgrwt>
<rscale>  0 0.13274268E+03</rscale>
<asrwt>0</asrwt>
<pdfrwt beam="1">  1        1 0.12657569E-01 0.14098902E+03</pdfrwt>
<pdfrwt beam="2">  1       -1 0.30235762E-01 0.14098902E+03</pdfrwt>
<totfact> 0.45136986E+03</totfact>
</mgrwt>
</event>
<event>
 7    1  0.5107591E-006  0.1591051E+03  0.7546771E-02  0.1195528E+00
         -2   -1    0    0    0  501 -0.00000000000E+00  0.00000000000E+00  0.10339455425E+03  0.10339455425E+03  0.00000000000E+00 0.  1.
          2   -1    0    0  501    0  0.00000000000E+00 -0.00000000000E+00 -0.28155423404E+03  0.28155423404E+03  0.00000000000E+00 0. -1.
         23    2    1    2    0    0  0.96262062995E+02  0.20516607446E+02 -0.17721429845E+03  0.22584089962E+03  0.99558467311E+02 0.  0.
          5    1    1    2  502    0  0.26974615958E+02  0.14348255949E+02  0.10916602725E+01  0.30931926500E+02  0.47000000000E+01 0.  1.
         -5    1    1    2    0  502 -0.12323667895E+03 -0.34864863396E+02 -0.20370416052E+01  0.12817596217E+03  0.47000000000E+01 0.  1.
        -11    1    3    3    0    0  0.40078465034E+02 -0.35533087792E+02 -0.38269151750E+02  0.65828653816E+02  0.00000000000E+00 0. -1.
         11    1    3    3    0    0  0.56183597961E+02  0.56049695238E+02 -0.13894514670E+03  0.16001224581E+03  0.00000000000E+00 0.  1.
<mgrwt>
<rscale>  0 0.15409652E+03</rscale>
<asrwt>0</asrwt>
<pdfrwt beam="2">  1        2 0.43316035E-01 0.15910508E+03</pdfrwt>
<pdfrwt beam="1">  1       -2 0.15906855E-01 0.15910508E+03</pdfrwt>
<totfact> 0.35361727E+03</totfact>
</mgrwt>
</event>
<event>
 7    1  0.5107591E-006  0.1399083E+03  0.7546771E-02  0.1231367E+00
         -2   -1    0    0    0  501 -0.00000000000E+00  0.00000000000E+00  0.19285422868E+02  0.19285422868E+02  0.00000000000E+00 0.  1.
          2   -1    0    0  501    0  0.00000000000E+00 -0.00000000000E+00 -0.72484097063E+03  0.72484097063E+03  0.00000000000E+00 0. -1.
         23    2    1    2    0    0 -0.29406858913E+02 -0.55536389409E+02 -0.30797655390E+03  0.32264876089E+03  0.72825896857E+02 0.  0.
          5    1    1    2  502    0  0.16779286025E+02  0.72507229578E+02 -0.10889354858E+03  0.13198006555E+03  0.47000000000E+01 0. -1.
         -5    1    1    2    0  502  0.12627572888E+02 -0.16970840169E+02 -0.28868544528E+03  0.28949756705E+03  0.47000000000E+01 0. -1.
        -11    1    3    3    0    0  0.11786296981E+02 -0.28331325367E+02 -0.41356158843E+02  0.51496724826E+02  0.00000000000E+00 0. -1.
         11    1    3    3    0    0 -0.41193155894E+02 -0.27205064042E+02 -0.26662039506E+03  0.27115203607E+03  0.00000000000E+00 0.  1.
<mgrwt>
<rscale>  0 0.12739900E+03</rscale>
<asrwt>0</asrwt>
<pdfrwt beam="2">  1        2 0.11151399E+00 0.13990832E+03</pdfrwt>
<pdfrwt beam="1">  1       -2 0.29669882E-02 0.13990832E+03</pdfrwt>
<totfact> 0.16472584E+04</totfact>
</mgrwt>
</event>
<event>
 7    1  0.5107591E-006  0.1717975E+03  0.7546771E-02  0.1182261E+00
         -2   -1    0    0    0  501 -0.00000000000E+00  0.00000000000E+00  0.30739942363E+02  0.30739942363E+02  0.00000000000E+00 0.  1.
          2   -1    0    0  501    0  0.00000000000E+00 -0.00000000000E+00 -0.86593298578E+03  0.86593298578E+03  0.00000000000E+00 0. -1.
         23    2    1    2    0    0  0.32606825024E+02  0.11325125267E+03 -0.46970535934E+03  0.49282193828E+03  0.91440073210E+02 0.  0.
          5    1    1    2  502    0 -0.38389682334E+02  0.97698116152E+01 -0.43196415778E+02  0.58798276036E+02  0.47000000000E+01 0. -1.
         -5    1    1    2    0  502  0.57828573100E+01 -0.12302106429E+03 -0.32229126830E+03  0.34505271383E+03  0.47000000000E+01 0. -1.
        -11    1    3    3    0    0  0.29226822199E+02  0.26101574901E+02 -0.46902454164E+02  0.61117424314E+02  0.00000000000E+00 0. -1.
         11    1    3    3    0    0  0.33800028256E+01  0.87149677769E+02 -0.42280290517E+03  0.43170451396E+03  0.00000000000E+00 0.  1.
<mgrwt>
<rscale>  0 0.16583633E+03</rscale>
<asrwt>0</asrwt>
<pdfrwt beam="2">  1        2 0.13322046E+00 0.17179748E+03</pdfrwt>
<pdfrwt beam="1">  1       -2 0.47292220E-02 0.17179748E+03</pdfrwt>
<totfact> 0.66759252E+03</totfact>
</mgrwt>
</event>
<event>
 7    1  0.5107591E-006  0.3520715E+03  0.7546771E-02  0.1101381E+00
          3   -1    0    0  501    0  0.00000000000E+00  0.00000000000E+00  0.46923373943E+02  0.46923373943E+02  0.00000000000E+00 0. -1.
         -3   -1    0    0    0  501 -0.00000000000E+00 -0.00000000000E+00 -0.12912104744E+04  0.12912104744E+04  0.00000000000E+00 0.  1.
         23    2    1    2    0    0 -0.73803008537E+02  0.27689481092E+02 -0.18016249738E+03  0.21727904904E+03  0.92401668041E+02 0.  0.
          5    1    1    2  502    0  0.42459968507E+02  0.43564857796E+02 -0.76350196027E+01  0.61490887819E+02  0.47000000000E+01 0. -1.
         -5    1    1    2    0  502  0.31343040030E+02 -0.71254338888E+02 -0.10564895835E+04  0.10593639115E+04  0.47000000000E+01 0.  1.
        -11    1    3    3    0    0 -0.57676652573E+02 -0.24661206283E+02 -0.12320890821E+03  0.13825775353E+03  0.00000000000E+00 0.  1.
         11    1    3    3    0    0 -0.16126355964E+02  0.52350687375E+02 -0.56953589165E+02  0.79021295510E+02  0.00000000000E+00 0. -1.
<mgrwt>
<rscale>  0 0.26982254E+03</rscale>
<asrwt>0</asrwt>
<pdfrwt beam="1">  1        3 0.72189802E-02 0.35207146E+03</pdfrwt>
<pdfrwt beam="2">  1       -3 0.19864778E+00 0.35207146E+03</pdfrwt>
<totfact> 0.51874160E+01</totfact>
</mgrwt>
</event>
<event>
 7    1  0.5107591E-006  0.1637725E+03  0.7546771E-02  0.1191251E+00
          2   -1    0    0  501    0  0.00000000000E+00  0.00000000000E+00  0.27034668255E+03  0.27034668255E+03  0.00000000000E+00 0. -1.
         -2   -1    0    0    0  501 -0.00000000000E+00 -0.00000000000E+00 -0.11573044959E+03  0.11573044959E+03  0.00000000000E+00 0.  1.
         23    2    1    2    0    0 -0.42341589120E+02  0.96978803143E+02  0.17082329284E+03  0.22150463220E+03  0.93198746138E+02 0.  0.
          5    1    1    2  502    0 -0.77248804950E+01  0.14317011884E+02  0.29628100356E+02  0.34125722537E+02  0.47000000000E+01 0. -1.
         -5    1    1    2    0  502  0.50066469615E+02 -0.11129581503E+03 -0.45835160232E+02  0.13044677741E+03  0.47000000000E+01 0. -1.
        -11    1    3    3    0    0 -0.20774697069E+01  0.37764654159E+02  0.17150143162E+01  0.37860616189E+02  0.00000000000E+00 0.  1.
         11    1    3    3    0    0 -0.40264119413E+02  0.59214148984E+02  0.16910827852E+03  0.18364401601E+03  0.00000000000E+00 0. -1.
<mgrwt>
<rscale>  0 0.15775856E+03</rscale>
<asrwt>0</asrwt>
<pdfrwt beam="1">  1        2 0.41591797E-01 0.16377252E+03</pdfrwt>
<pdfrwt beam="2">  1       -2 0.17804685E-01 0.16377252E+03</pdfrwt>
<totfact> 0.30657886E+03</totfact>
</mgrwt>
</event>
<event>
 7    1  0.5107591E-006  0.1512542E+03  0.7546771E-02  0.1215680E+00
          4   -1    0    0  501    0  0.00000000000E+00  0.00000000000E+00  0.74786697146E+02  0.74786697146E+02  0.00000000000E+00 0. -1.
         -4   -1    0    0    0  501 -0.00000000000E+00 -0.00000000000E+00 -0.22238722724E+03  0.22238722724E+03  0.00000000000E+00 0.  1.
         23    2    1    2    0    0 -0.29216155912E+02 -0.47368140133E+02 -0.47610358827E+02  0.11585692283E+03  0.89770573320E+02 0.  0.
          5    1    1    2  502    0 -0.14628706124E+02 -0.20287230025E+01  0.30934781680E+02  0.34600079154E+02  0.47000000000E+01 0. -1.
         -5    1    1    2    0  502  0.43844862036E+02  0.49396863136E+02 -0.13092495295E+03  0.14671692240E+03  0.47000000000E+01 0.  1.
        -11    1    3    3    0    0 -0.48609789515E+02 -0.63735021908E+02 -0.34108996099E+02  0.87111929546E+02  0.00000000000E+00 0.  1.
         11    1    3    3    0    0  0.19393633603E+02  0.16366881775E+02 -0.13501362728E+02  0.28744993284E+02  0.00000000000E+00 0. -1.
<mgrwt>
<rscale>  0 0.13826729E+03</rscale>
<asrwt>0</asrwt>
<pdfrwt beam="1">  1        4 0.11505646E-01 0.15125416E+03</pdfrwt>
<pdfrwt beam="2">  1       -4 0.34213419E-01 0.15125416E+03</pdfrwt>
<totfact> 0.83383720E+02</totfact>
</mgrwt>
</event>
<event>
 7    1  0.5107591E-006  0.1526652E+03  0.7546771E-02  0.1204853E+00
         -1   -1    0    0    0  501 -0.00000000000E+00  0.00000000000E+00  0.58957662783E+02  0.58957662783E+02  0.00000000000E+00 0.  1.
          1   -1    0    0  501    0  0.00000000000E+00 -0.00000000000E+00 -0.40332677050E+03  0.40332677050E+03  0.00000000000E+00 0. -1.
         23    2    1    2    0    0  0.87146777270E+02  0.92261648996E+01 -0.25348493999E+03  0.28461454861E+03  0.95242551270E+02 0.  0.
          5    1    1    2  502    0 -0.63313777531E+02  0.90794426342E+01  0.16366568890E+02  0.66189313949E+02  0.47000000000E+01 0. -1.
         -5    1    1    2    0  502 -0.23832999738E+02 -0.18305607534E+02 -0.10725073662E+03  0.11148057072E+03  0.47000000000E+01 0. -1.
        -11    1    3    3    0    0  0.68276496002E+02 -0.32562221693E+02 -0.10640049416E+03  0.13054900745E+03  0.00000000000E+00 0.  1.
         11    1    3    3    0    0  0.18870281268E+02  0.41788386593E+02 -0.14708444583E+03  0.15406554117E+03  0.00000000000E+00 0. -1.
<mgrwt>
<rscale>  0 0.14649052E+03</rscale>
<asrwt>0</asrwt>
<pdfrwt beam="2">  1        1 0.62050273E-01 0.15266518E+03</pdfrwt>
<pdfrwt beam="1">  1       -1 0.90704095E-02 0.15266518E+03</pdfrwt>
<totfact> 0.41282687E+03</totfact>
</mgrwt>
</event>
<event>
 7    1  0.5107591E-006  0.1845014E+03  0.7546771E-02  0.1169039E+00
         -1   -1    0    0    0  501 -0.00000000000E+00  0.00000000000E+00  0.14994646854E+04  0.14994646854E+04  0.00000000000E+00 0.  1.
          1   -1    0    0  501    0  0.00000000000E+00 -0.00000000000E+00 -0.21579021626E+02  0.21579021626E+02  0.00000000000E+00 0. -1.
         23    2    1    2    0    0  0.11640048220E+03 -0.69765518697E+02  0.49473086299E+03  0.52072669995E+03  0.89338510144E+02 0.  0.
          5    1    1    2  502    0 -0.49916117448E+02 -0.15777998190E+02  0.59443007405E+03  0.59674933342E+03  0.47000000000E+01 0.  1.
         -5    1    1    2    0  502 -0.66484364755E+02  0.85543516887E+02  0.38872472674E+03  0.40356767365E+03  0.47000000000E+01 0.  1.
        -11    1    3    3    0    0  0.23054902327E+02 -0.64974076172E+02  0.20293223569E+03  0.21432370699E+03  0.00000000000E+00 0.  1.
         11    1    3    3    0    0  0.93345579875E+02 -0.47914425258E+01  0.29179862730E+03  0.30640299297E+03  0.00000000000E+00 0. -1.
<mgrwt>
<rscale>  0 0.17872915E+03</rscale>
<asrwt>0</asrwt>
<pdfrwt beam="2">  1        1 0.33198507E-02 0.18450136E+03</pdfrwt>
<pdfrwt beam="1">  1       -1 0.23068679E+00 0.18450136E+03</pdfrwt>
<totfact> 0.31143124E+02</totfact>
</mgrwt>
</event>
<event>
 7    1  0.5107591E-006  0.1445923E+03  0.7546771E-02  0.1216838E+00
         -4   -1    0    0    0  501 -0.00000000000E+00  0.00000000000E+00  0.89438652934E+03  0.89438652934E+03  0.00000000000E+00 0.  1.
          4   -1    0    0  501    0  0.00000000000E+00 -0.00000000000E+00 -0.21293152969E+02  0.21293152969E+02  0.00000000000E+00 0. -1.
         23    2    1    2    0    0  0.72250668558E+02 -0.79140224911E+01  0.25608342376E+03  0.28195400908E+03  0.92933053603E+02 0.  0.
          5    1    1    2  502    0  0.19088165226E+02 -0.37573969560E+02  0.18781513565E+03  0.19254292098E+03  0.47000000000E+01 0. -1.
         -5    1    1    2    0  502 -0.91338833783E+02  0.45487992051E+02  0.42919481696E+03  0.44118275225E+03  0.47000000000E+01 0. -1.
        -11    1    3    3    0    0 -0.20258350759E+02  0.10037709737E+02  0.66569901873E+02  0.70304396930E+02  0.00000000000E+00 0.  1.
         11    1    3    3    0    0  0.92509019317E+02 -0.17951732228E+02  0.18951352189E+03  0.21164961215E+03  0.00000000000E+00 0. -1.
<mgrwt>
<rscale>  0 0.13742360E+03</rscale>
<asrwt>0</asrwt>
<pdfrwt beam="2">  1        4 0.32758704E-02 0.14459235E+03</pdfrwt>
<pdfrwt beam="1">  1       -4 0.13759790E+00 0.14459235E+03</pdfrwt>
<totfact> 0.31403870E+02</totfact>
</mgrwt>
</event>
<event>
 7    1  0.5107591E-006  0.1673798E+03  0.7546771E-02  0.1188860E+00
         -1   -1    0    0    0  501 -0.00000000000E+00  0.00000000000E+00  0.78864843708E+02  0.78864843708E+02  0.00000000000E+00 0.  1.
          1   -1    0    0  501    0  0.00000000000E+00 -0.00000000000E+00 -0.40039718473E+03  0.40039718473E+03  0.00000000000E+00 0. -1.
         23    2    1    2    0    0  0.98916435259E+02 -0.32655549134E+02 -0.27056221897E+03  0.30429358470E+03  0.92411175196E+02 0.  0.
          5    1    1    2  502    0  0.29079684123E+02 -0.65629771984E+01 -0.23448753463E+02  0.38218251365E+02  0.47000000000E+01 0. -1.
         -5    1    1    2    0  502 -0.12799611938E+03  0.39218526333E+02 -0.27521368585E+02  0.13675019237E+03  0.47000000000E+01 0.  1.
        -11    1    3    3    0    0  0.51910027705E+02  0.30250451736E+02 -0.13188934777E+03  0.14492943408E+03  0.00000000000E+00 0. -1.
         11    1    3    3    0    0  0.47006407554E+02 -0.62906000870E+02 -0.13867287120E+03  0.15936415062E+03  0.00000000000E+00 0.  1.
<mgrwt>
<rscale>  0 0.15985507E+03</rscale>
<asrwt>0</asrwt>
<pdfrwt beam="2">  1        1 0.61599569E-01 0.16737982E+03</pdfrwt>
<pdfrwt beam="1">  1       -1 0.12133053E-01 0.16737982E+03</pdfrwt>
<totfact> 0.26744776E+03</totfact>
</mgrwt>
</event>
<event>
 7    1  0.5107591E-006  0.1634731E+03  0.7546771E-02  0.1191336E+00
         -2   -1    0    0    0  501 -0.00000000000E+00  0.00000000000E+00  0.16668297056E+02  0.16668297056E+02  0.00000000000E+00 0.  1.
          2   -1    0    0  501    0  0.00000000000E+00 -0.00000000000E+00 -0.14041261618E+04  0.14041261618E+04  0.00000000000E+00 0. -1.
         23    2    1    2    0    0  0.54046967032E+02 -0.90427018912E+02 -0.70067304467E+03  0.71482218663E+03  0.94498267571E+02 0.  0.
          5    1    1    2  502    0 -0.11840498367E+02  0.81915119024E+02 -0.62525678636E+03  0.63072848597E+03  0.47000000000E+01 0.  1.
         -5    1    1    2    0  502 -0.42206468665E+02  0.85118998875E+01 -0.61528033686E+02  0.75243786229E+02  0.47000000000E+01 0.  1.
        -11    1    3    3    0    0 -0.75792878961E+01 -0.77116077842E+02 -0.34395032032E+03  0.35257078426E+03  0.00000000000E+00 0. -1.
         11    1    3    3    0    0  0.61626254928E+02 -0.13310941070E+02 -0.35672272435E+03  0.36225140237E+03  0.00000000000E+00 0.  1.
<mgrwt>
<rscale>  0 0.15768471E+03</rscale>
<asrwt>0</asrwt>
<pdfrwt beam="2">  1        2 0.21601942E+00 0.16347312E+03</pdfrwt>
<pdfrwt beam="1">  1       -2 0.25643533E-02 0.16347312E+03</pdfrwt>
<totfact> 0.80912869E+03</totfact>
</mgrwt>
</event>
<event>
 7    1  0.5107591E-006  0.1376035E+03  0.7546771E-02  0.1228041E+00
          1   -1    0    0  501    0  0.00000000000E+00  0.00000000000E+00  0.13903747449E+03  0.13903747449E+03  0.00000000000E+00 0. -1.
         -1   -1    0    0    0  501 -0.00000000000E+00 -0.00000000000E+00 -0.15103784718E+03  0.15103784718E+03  0.00000000000E+00 0.  1.
         23    2    1    2    0    0  0.12972217149E+02 -0.56006056947E+02  0.70888046969E+02  0.12943528713E+03  0.91779199812E+02 0.  0.
          5    1    1    2  502    0  0.27010870407E+02  0.82870528656E+02 -0.40179098710E+02  0.96091423202E+02  0.47000000000E+01 0.  1.
         -5    1    1    2    0  502 -0.39983087556E+02 -0.26864471708E+02 -0.42709320952E+02  0.64548611347E+02  0.47000000000E+01 0.  1.
        -11    1    3    3    0    0 -0.11934905454E+02  0.22554830389E+02  0.12367664679E+02  0.28357035664E+02  0.00000000000E+00 0.  1.
         11    1    3    3    0    0  0.24907122603E+02 -0.78560887336E+02  0.58520382291E+02  0.10107825146E+03  0.00000000000E+00 0. -1.
<mgrwt>
<rscale>  0 0.12960654E+03</rscale>
<asrwt>0</asrwt>
<pdfrwt beam="1">  1        1 0.21390381E-01 0.13760353E+03</pdfrwt>
<pdfrwt beam="2">  1       -1 0.23236592E-01 0.13760353E+03</pdfrwt>
<totfact> 0.35464617E+03</totfact>
</mgrwt>
</event>
<event>
 7    1  0.5107591E-006  0.1423509E+03  0.7546771E-02  0.1221463E+00
         -1   -1    0    0    0  501 -0.00000000000E+00  0.00000000000E+00  0.94419505692E+02  0.94419505692E+02  0.00000000000E+00 0.  1.
          1   -1    0    0  501    0  0.00000000000E+00 -0.00000000000E+00 -0.19731080315E+03  0.19731080315E+03  0.00000000000E+00 0. -1.
         23    2    1    2    0    0  0.42311143684E+02  0.53485035835E+02 -0.98533888616E+02  0.14931268671E+03  0.89075637902E+02 0.  0.
          5    1    1    2  502    0 -0.71784683430E+02  0.82655692681E+01 -0.12031895098E+02  0.73404474728E+02  0.47000000000E+01 0. -1.
         -5    1    1    2    0  502  0.29473539746E+02 -0.61750605103E+02  0.76744862568E+01  0.69013147407E+02  0.47000000000E+01 0. -1.
        -11    1    3    3    0    0  0.33296725665E+02  0.17011073187E+02  0.63288847418E+01  0.37922332907E+02  0.00000000000E+00 0.  1.
         11    1    3    3    0    0  0.90144180185E+01  0.36473962647E+02 -0.10486277336E+03  0.11139035380E+03  0.00000000000E+00 0. -1.
<mgrwt>
<rscale>  0 0.13412306E+03</rscale>
<asrwt>0</asrwt>
<pdfrwt beam="2">  1        1 0.30355508E-01 0.14235095E+03</pdfrwt>
<pdfrwt beam="1">  1       -1 0.14526078E-01 0.14235095E+03</pdfrwt>
<totfact> 0.48452893E+03</totfact>
</mgrwt>
</event>
<event>
 7    1  0.5107591E-006  0.1709347E+03  0.7546771E-02  0.1182919E+00
         -1   -1    0    0    0  501 -0.00000000000E+00  0.00000000000E+00  0.10389253428E+03  0.10389253428E+03  0.00000000000E+00 0.  1.
          1   -1    0    0  501    0  0.00000000000E+00 -0.00000000000E+00 -0.25831037756E+03  0.25831037756E+03  0.00000000000E+00 0. -1.
         23    2    1    2    0    0 -0.30389573182E+02 -0.11256244759E+03 -0.11060378946E+03  0.18574229793E+03  0.93129867562E+02 0.  0.
          5    1    1    2  502    0  0.79858908540E+01 -0.17769237123E+02  0.21073507724E+02  0.29080972619E+02  0.47000000000E+01 0.  1.
         -5    1    1    2    0  502  0.22403682328E+02  0.13033168471E+03 -0.64887561541E+02  0.14737964128E+03  0.47000000000E+01 0.  1.
        -11    1    3    3    0    0 -0.49930076926E+02 -0.28538405897E+02 -0.69425720883E+02  0.90152004488E+02  0.00000000000E+00 0.  1.
         11    1    3    3    0    0  0.19540503744E+02 -0.84024041692E+02 -0.41178068581E+02  0.95590293445E+02  0.00000000000E+00 0. -1.
<mgrwt>
<rscale>  0 0.16522677E+03</rscale>
<asrwt>0</asrwt>
<pdfrwt beam="2">  1        1 0.39740058E-01 0.17093472E+03</pdfrwt>
<pdfrwt beam="1">  1       -1 0.15983467E-01 0.17093472E+03</pdfrwt>
<totfact> 0.30083475E+03</totfact>
</mgrwt>
</event>
<event>
 7    1  0.5107591E-006  0.1364835E+03  0.7546771E-02  0.1231033E+00
         -1   -1    0    0    0  501 -0.00000000000E+00  0.00000000000E+00  0.20153040062E+02  0.20153040062E+02  0.00000000000E+00 0.  1.
          1   -1    0    0  501    0  0.00000000000E+00 -0.00000000000E+00 -0.72609516149E+03  0.72609516149E+03  0.00000000000E+00 0. -1.
         23    2    1    2    0    0 -0.44537230582E+01 -0.54612564825E+02 -0.27073454171E+03  0.29014143318E+03  0.88783395311E+02 0.  0.
          5    1    1    2  502    0  0.37299396214E+02  0.62918141361E+02 -0.13206257825E+03  0.15103824696E+03  0.47000000000E+01 0. -1.
         -5    1    1    2    0  502 -0.32845673156E+02 -0.83055765360E+01 -0.30314500146E+03  0.30506852142E+03  0.47000000000E+01 0. -1.
        -11    1    3    3    0    0  0.31553767530E+02  0.12727584409E+01 -0.46124402626E+02  0.55899201041E+02  0.00000000000E+00 0.  1.
         11    1    3    3    0    0 -0.36007490588E+02 -0.55885323266E+02 -0.22461013909E+03  0.23424223214E+03  0.00000000000E+00 0. -1.
<mgrwt>
<rscale>  0 0.12761831E+03</rscale>
<asrwt>0</asrwt>
<pdfrwt beam="2">  1        1 0.11170696E+00 0.13648350E+03</pdfrwt>
<pdfrwt beam="1">  1       -1 0.31004673E-02 0.13648350E+03</pdfrwt>
<totfact> 0.92113912E+03</totfact>
</mgrwt>
</event>
<event>
 7    1  0.5107591E-006  0.1805334E+03  0.7546771E-02  0.1172840E+00
          1   -1    0    0  501    0  0.00000000000E+00  0.00000000000E+00  0.74413687409E+03  0.74413687409E+03  0.00000000000E+00 0. -1.
         -1   -1    0    0    0  501 -0.00000000000E+00 -0.00000000000E+00 -0.50888057001E+02  0.50888057001E+02  0.00000000000E+00 0.  1.
         23    2    1    2    0    0 -0.93220396275E+02  0.90958260398E+02  0.52388766725E+03  0.54748601982E+03  0.91209684698E+02 0.  0.
          5    1    1    2  502    0  0.85147147829E+02 -0.48743288433E+02  0.31646445874E+02  0.10319657207E+03  0.47000000000E+01 0. -1.
         -5    1    1    2    0  502  0.80732484457E+01 -0.42214971964E+02  0.13771470397E+03  0.14434233921E+03  0.47000000000E+01 0. -1.
        -11    1    3    3    0    0 -0.20214026799E+02  0.82607689096E+02  0.25978308461E+03  0.27334938856E+03  0.00000000000E+00 0.  1.
         11    1    3    3    0    0 -0.73006369476E+02  0.83505713015E+01  0.26410458264E+03  0.27413663125E+03  0.00000000000E+00 0. -1.
<mgrwt>
<rscale>  0 0.17489244E+03</rscale>
<asrwt>0</asrwt>
<pdfrwt beam="1">  1        1 0.11448259E+00 0.18053341E+03</pdfrwt>
<pdfrwt beam="2">  1       -1 0.78289324E-02 0.18053341E+03</pdfrwt>
<totfact> 0.22710518E+03</totfact>
</mgrwt>
</event>
<event>
 7    1  0.5107591E-006  0.1309264E+03  0.7546771E-02  0.1239731E+00
         -1   -1    0    0    0  501 -0.00000000000E+00  0.00000000000E+00  0.19517706116E+03  0.19517706116E+03  0.00000000000E+00 0.  1.
          1   -1    0    0  501    0  0.00000000000E+00 -0.00000000000E+00 -0.69906967219E+02  0.69906967219E+02  0.00000000000E+00 0. -1.
         23    2    1    2    0    0  0.14318922565E+02  0.36200288256E+02  0.30683351352E+02  0.10356507757E+03  0.90932748937E+02 0.  0.
          5    1    1    2  502    0 -0.46472788721E+02 -0.18612878084E+02  0.11041264475E+03  0.12132271610E+03  0.47000000000E+01 0. -1.
         -5    1    1    2    0  502  0.32153866156E+02 -0.17587410171E+02 -0.15825902159E+02  0.40196234705E+02  0.47000000000E+01 0. -1.
        -11    1    3    3    0    0 -0.29687392805E+02 -0.77806955784E+01  0.27595352146E+02  0.41272072583E+02  0.00000000000E+00 0.  1.
         11    1    3    3    0    0  0.44006315371E+02  0.43980983834E+02  0.30879992065E+01  0.62293004989E+02  0.00000000000E+00 0. -1.
<mgrwt>
<rscale>  0 0.12206366E+03</rscale>
<asrwt>0</asrwt>
<pdfrwt beam="2">  1        1 0.10754918E-01 0.13092639E+03</pdfrwt>
<pdfrwt beam="1">  1       -1 0.30027240E-01 0.13092639E+03</pdfrwt>
<totfact> 0.56297622E+03</totfact>
</mgrwt>
</event>
<event>
 7    1  0.5107591E-006  0.1270295E+03  0.7546771E-02  0.1246103E+00
          1   -1    0    0  501    0  0.00000000000E+00  0.00000000000E+00  0.62482694546E+02  0.62482694546E+02  0.00000000000E+00 0. -1.
         -1   -1    0    0    0  501 -0.00000000000E+00 -0.00000000000E+00 -0.19797128326E+03  0.19797128326E+03  0.00000000000E+00 0.  1.
         23    2    1    2    0    0 -0.22581586508E+02 -0.13455625704E+01 -0.63486142090E+02  0.11443734140E+03  0.92486086964E+02 0.  0.
          5    1    1    2  502    0  0.58398473564E+01  0.61598525218E+02 -0.49541672982E+02  0.79403712054E+02  0.47000000000E+01 0. -1.
         -5    1    1    2    0  502  0.16741739152E+02 -0.60252962647E+02 -0.22460773639E+02  0.66612924347E+02  0.47000000000E+01 0. -1.
        -11    1    3    3    0    0 -0.49149537349E+02  0.64545523515E+01 -0.70207101515E+02  0.85944024637E+02  0.00000000000E+00 0.  1.
         11    1    3    3    0    0  0.26567950841E+02 -0.78001149218E+01  0.67209594251E+01  0.28493316765E+02  0.00000000000E+00 0. -1.
<mgrwt>
<rscale>  0 0.11819579E+03</rscale>
<asrwt>0</asrwt>
<pdfrwt beam="1">  1        1 0.96127224E-02 0.12702955E+03</pdfrwt>
<pdfrwt beam="2">  1       -1 0.30457120E-01 0.12702955E+03</pdfrwt>
<totfact> 0.63628711E+03</totfact>
</mgrwt>
</event>
<event>
 7    1  0.5107591E-006  0.2103542E+03  0.7546771E-02  0.1145017E+00
          3   -1    0    0  501    0  0.00000000000E+00  0.00000000000E+00  0.18338479434E+03  0.18338479434E+03  0.00000000000E+00 0. -1.
         -3   -1    0    0    0  501 -0.00000000000E+00 -0.00000000000E+00 -0.25788450449E+03  0.25788450449E+03  0.00000000000E+00 0.  1.
         23    2    1    2    0    0  0.16822620125E+03 -0.18011457275E+02  0.47462514100E+02  0.19811571573E+03  0.91502345305E+02 0.  0.
          5    1    1    2  502    0 -0.18807075088E+03  0.98927121547E+01 -0.10835174442E+03  0.21732616871E+03  0.47000000000E+01 0.  1.
         -5    1    1    2    0  502  0.19844549632E+02  0.81187451202E+01 -0.13610479834E+02  0.25827414384E+02  0.47000000000E+01 0.  1.
        -11    1    3    3    0    0  0.10330917478E+03  0.29179422964E+02  0.53577974829E+01  0.10748455848E+03  0.00000000000E+00 0.  1.
         11    1    3    3    0    0  0.64917026466E+02 -0.47190880239E+02  0.42104716617E+02  0.90631157249E+02  0.00000000000E+00 0. -1.
<mgrwt>
<rscale>  0 0.20570005E+03</rscale>
<asrwt>0</asrwt>
<pdfrwt beam="1">  1        3 0.28213045E-01 0.21035418E+03</pdfrwt>
<pdfrwt beam="2">  1       -3 0.39674539E-01 0.21035418E+03</pdfrwt>
<totfact> 0.18636038E+02</totfact>
</mgrwt>
</event>
<event>
 7    1  0.5107591E-006  0.1291638E+03  0.7546771E-02  0.1236574E+00
          1   -1    0    0  501    0  0.00000000000E+00  0.00000000000E+00  0.19298950840E+03  0.19298950840E+03  0.00000000000E+00 0. -1.
         -1   -1    0    0    0  501 -0.00000000000E+00 -0.00000000000E+00 -0.14667037636E+03  0.14667037636E+03  0.00000000000E+00 0.  1.
         23    2    1    2    0    0  0.26402973865E+02 -0.59308870994E+02  0.14155216257E+03  0.17918370113E+03  0.88629142016E+02 0.  0.
          5    1    1    2  502    0 -0.96817806087E+00 -0.51061297930E+01  0.22630906704E+02  0.23690881547E+02  0.47000000000E+01 0. -1.
         -5    1    1    2    0  502 -0.25434795804E+02  0.64415000787E+02 -0.11786393723E+03  0.13678530208E+03  0.47000000000E+01 0.  1.
        -11    1    3    3    0    0 -0.11616971405E+02 -0.62132757272E+01 -0.84028740059E+01  0.15625847543E+02  0.00000000000E+00 0.  1.
         11    1    3    3    0    0  0.38019945269E+02 -0.53095595266E+02  0.14995503658E+03  0.16355785359E+03  0.00000000000E+00 0. -1.
<mgrwt>
<rscale>  0 0.12404176E+03</rscale>
<asrwt>0</asrwt>
<pdfrwt beam="1">  1        1 0.29690694E-01 0.12916375E+03</pdfrwt>
<pdfrwt beam="2">  1       -1 0.22564673E-01 0.12916375E+03</pdfrwt>
<totfact> 0.24582712E+03</totfact>
</mgrwt>
</event>
<event>
 7    1  0.5107591E-006  0.1338185E+03  0.7546771E-02  0.1234792E+00
          1   -1    0    0  501    0  0.00000000000E+00  0.00000000000E+00  0.31962319436E+02  0.31962319436E+02  0.00000000000E+00 0. -1.
         -1   -1    0    0    0  501 -0.00000000000E+00 -0.00000000000E+00 -0.43785016341E+03  0.43785016341E+03  0.00000000000E+00 0.  1.
         23    2    1    2    0    0 -0.32946827556E+02 -0.34142552714E+02 -0.16397536642E+03  0.19335445754E+03  0.90811993182E+02 0.  0.
          5    1    1    2  502    0 -0.10524039537E+02  0.65694187120E+02 -0.71774061676E+02  0.97980036533E+02  0.47000000000E+01 0.  1.
         -5    1    1    2    0  502  0.43470867092E+02 -0.31551634406E+02 -0.17013841587E+03  0.17847798877E+03  0.47000000000E+01 0.  1.
        -11    1    3    3    0    0 -0.21947286536E+02  0.96825158989E+01 -0.76011236565E+00  0.24000255649E+02  0.00000000000E+00 0. -1.
         11    1    3    3    0    0 -0.10999541020E+02 -0.43825068613E+02 -0.16321525406E+03  0.16935420189E+03  0.00000000000E+00 0.  1.
<mgrwt>
<rscale>  0 0.12517730E+03</rscale>
<asrwt>0</asrwt>
<pdfrwt beam="1">  1        1 0.49172802E-02 0.13381851E+03</pdfrwt>
<pdfrwt beam="2">  1       -1 0.67361559E-01 0.13381851E+03</pdfrwt>
<totfact> 0.37818415E+03</totfact>
</mgrwt>
</event>
<event>
 7    1  0.5107591E-006  0.1844921E+03  0.7546771E-02  0.1168384E+00
         -1   -1    0    0    0  501 -0.00000000000E+00  0.00000000000E+00  0.93513552006E+02  0.93513552006E+02  0.00000000000E+00 0.  1.
          1   -1    0    0  501    0  0.00000000000E+00 -0.00000000000E+00 -0.54269793617E+03  0.54269793617E+03  0.00000000000E+00 0. -1.
         23    2    1    2    0    0  0.13564835174E+03  0.35727690853E+01 -0.41764696743E+03  0.44904329415E+03  0.93795792096E+02 0.  0.
          5    1    1    2  502    0 -0.14819481092E+03 -0.11291233451E+02  0.36393457399E+01  0.14874316379E+03  0.47000000000E+01 0.  1.
         -5    1    1    2    0  502  0.12546459177E+02  0.77184643659E+01 -0.35176762472E+02  0.38425030229E+02  0.47000000000E+01 0.  1.
        -11    1    3    3    0    0  0.23868756626E+02 -0.27807885506E+02 -0.18997474721E+03  0.19347713203E+03  0.00000000000E+00 0. -1.
         11    1    3    3    0    0  0.11177959512E+03  0.31380654591E+02 -0.22767222021E+03  0.25556616213E+03  0.00000000000E+00 0.  1.
<mgrwt>
<rscale>  0 0.17940152E+03</rscale>
<asrwt>0</asrwt>
<pdfrwt beam="2">  1        1 0.83491989E-01 0.18449207E+03</pdfrwt>
<pdfrwt beam="1">  1       -1 0.14386700E-01 0.18449207E+03</pdfrwt>
<totfact> 0.13827799E+03</totfact>
</mgrwt>
</event>
<event>
 7    1  0.5107591E-006  0.1202587E+03  0.7546771E-02  0.1253736E+00
         -1   -1    0    0    0  501 -0.00000000000E+00  0.00000000000E+00  0.14475341243E+04  0.14475341243E+04  0.00000000000E+00 0.  1.
          1   -1    0    0  501    0  0.00000000000E+00 -0.00000000000E+00 -0.37234358960E+02  0.37234358960E+02  0.00000000000E+00 0. -1.
         23    2    1    2    0    0 -0.21662117412E+02 -0.18891762078E+02  0.32423808196E+02  0.10165449088E+03  0.91957523747E+02 0.  0.
          5    1    1    2  502    0 -0.12217018148E+02  0.52301112748E+02  0.35014732675E+03  0.35427376752E+03  0.47000000000E+01 0. -1.
         -5    1    1    2    0  502  0.33879135560E+02 -0.33409350670E+02  0.10277286304E+04  0.10288402248E+04  0.47000000000E+01 0.  1.
        -11    1    3    3    0    0  0.35161182439E+02 -0.16854049478E+01  0.21612898182E+02  0.41306981349E+02  0.00000000000E+00 0.  1.
         11    1    3    3    0    0 -0.56823299851E+02 -0.17206357130E+02  0.10810910014E+02  0.60347509534E+02  0.00000000000E+00 0. -1.
<mgrwt>
<rscale>  0 0.11377441E+03</rscale>
<asrwt>0</asrwt>
<pdfrwt beam="2">  1        1 0.57283640E-02 0.12025873E+03</pdfrwt>
<pdfrwt beam="1">  1       -1 0.22269751E+00 0.12025873E+03</pdfrwt>
<totfact> 0.16575982E+02</totfact>
</mgrwt>
</event>
<event>
 7    1  0.5107591E-006  0.2174079E+03  0.7546771E-02  0.1139273E+00
         -1   -1    0    0    0  501 -0.00000000000E+00  0.00000000000E+00  0.53519653762E+02  0.53519653762E+02  0.00000000000E+00 0.  1.
          1   -1    0    0  501    0  0.00000000000E+00 -0.00000000000E+00 -0.86301976063E+03  0.86301976063E+03  0.00000000000E+00 0. -1.
         23    2    1    2    0    0 -0.56542085248E+02  0.16865854722E+03 -0.49807895671E+03  0.53673771935E+03  0.91444077463E+02 0.  0.
          5    1    1    2  502    0  0.48873485021E+02 -0.13218295106E+02 -0.13628626198E+03  0.14546262773E+03  0.47000000000E+01 0.  1.
         -5    1    1    2    0  502  0.76686002272E+01 -0.15544025212E+03 -0.17513488818E+03  0.23433906731E+03  0.47000000000E+01 0.  1.
        -11    1    3    3    0    0 -0.72487953047E+02  0.10708200404E+03 -0.39485510534E+03  0.41548960653E+03  0.00000000000E+00 0.  1.
         11    1    3    3    0    0  0.15945867798E+02  0.61576543181E+02 -0.10322385137E+03  0.12124811282E+03  0.00000000000E+00 0. -1.
<mgrwt>
<rscale>  0 0.21292194E+03</rscale>
<asrwt>0</asrwt>
<pdfrwt beam="2">  1        1 0.13277227E+00 0.21740790E+03</pdfrwt>
<pdfrwt beam="1">  1       -1 0.82337931E-02 0.21740790E+03</pdfrwt>
<totfact> 0.16808453E+03</totfact>
</mgrwt>
</event>
<event>
 7    1  0.5107591E-006  0.2120558E+03  0.7546771E-02  0.1143397E+00
         -1   -1    0    0    0  501 -0.00000000000E+00  0.00000000000E+00  0.25176044660E+02  0.25176044660E+02  0.00000000000E+00 0.  1.
          1   -1    0    0  501    0  0.00000000000E+00 -0.00000000000E+00 -0.17383552904E+04  0.17383552904E+04  0.00000000000E+00 0. -1.
         23    2    1    2    0    0 -0.16057250090E+03 -0.59671984715E+02 -0.10251663461E+04  0.10435803447E+04  0.93539429238E+02 0.  0.
          5    1    1    2  502    0  0.18555192024E+02  0.50783570097E+02 -0.33401997403E+03  0.33840020567E+03  0.47000000000E+01 0.  1.
         -5    1    1    2    0  502  0.14201730888E+03  0.88884146178E+01 -0.35399292562E+03  0.38155078473E+03  0.47000000000E+01 0.  1.
        -11    1    3    3    0    0 -0.17378392758E+02  0.17245127155E+02 -0.59674477866E+02  0.64501521331E+02  0.00000000000E+00 0.  1.
         11    1    3    3    0    0 -0.14319410814E+03 -0.76917111870E+02 -0.96549186821E+03  0.97907882333E+03  0.00000000000E+00 0. -1.
<mgrwt>
<rscale>  0 0.20770388E+03</rscale>
<asrwt>0</asrwt>
<pdfrwt beam="2">  1        1 0.26743927E+00 0.21205584E+03</pdfrwt>
<pdfrwt beam="1">  1       -1 0.38732377E-02 0.21205584E+03</pdfrwt>
<totfact> 0.12921462E+03</totfact>
</mgrwt>
</event>
<event>
 7    1  0.5107591E-006  0.1273870E+03  0.7546771E-02  0.1248291E+00
          1   -1    0    0  501    0  0.00000000000E+00  0.00000000000E+00  0.19400160095E+03  0.19400160095E+03  0.00000000000E+00 0. -1.
         -1   -1    0    0    0  501 -0.00000000000E+00 -0.00000000000E+00 -0.67795996496E+02  0.67795996496E+02  0.00000000000E+00 0.  1.
         23    2    1    2    0    0  0.17874979486E+02  0.16555477323E+02  0.94034858949E+02  0.13041108299E+03  0.87010902464E+02 0.  0.
          5    1    1    2  502    0  0.16401482434E+02  0.47331080920E+02 -0.35297987548E+01  0.50435992370E+02  0.47000000000E+01 0. -1.
         -5    1    1    2    0  502 -0.34276461920E+02 -0.63886558243E+02  0.35700544262E+02  0.80950522089E+02  0.47000000000E+01 0. -1.
        -11    1    3    3    0    0  0.40859727292E+02  0.45223147821E+01  0.97859312776E+01  0.42257935306E+02  0.00000000000E+00 0.  1.
         11    1    3    3    0    0 -0.22984747806E+02  0.12033162541E+02  0.84248927672E+02  0.88153147682E+02  0.00000000000E+00 0. -1.
<mgrwt>
<rscale>  0 0.11690555E+03</rscale>
<asrwt>0</asrwt>
<pdfrwt beam="1">  1        1 0.29846400E-01 0.12738705E+03</pdfrwt>
<pdfrwt beam="2">  1       -1 0.10430153E-01 0.12738705E+03</pdfrwt>
<totfact> 0.81956210E+03</totfact>
</mgrwt>
</event>
<event>
 7    1  0.5107591E-006  0.1300419E+03  0.7546771E-02  0.1241348E+00
          1   -1    0    0  501    0  0.00000000000E+00  0.00000000000E+00  0.65963110062E+03  0.65963110062E+03  0.00000000000E+00 0. -1.
         -1   -1    0    0    0  501 -0.00000000000E+00 -0.00000000000E+00 -0.20675327034E+02  0.20675327034E+02  0.00000000000E+00 0.  1.
         23    2    1    2    0    0  0.10669497325E+02 -0.34231060392E+02  0.35115159135E+03  0.36448663359E+03  0.90870579896E+02 0.  0.
          5    1    1    2  502    0 -0.57801440988E+02  0.32245451912E+02  0.86556570043E+02  0.10906376835E+03  0.47000000000E+01 0. -1.
         -5    1    1    2    0  502  0.47131943663E+02  0.19856084798E+01  0.20124761220E+03  0.20675602571E+03  0.47000000000E+01 0. -1.
        -11    1    3    3    0    0 -0.30043527559E+02  0.12973717855E+02  0.16379074384E+03  0.16702795775E+03  0.00000000000E+00 0. -1.
         11    1    3    3    0    0  0.40713024884E+02 -0.47204778248E+02  0.18736084751E+03  0.19745867584E+03  0.00000000000E+00 0.  1.
<mgrwt>
<rscale>  0 0.12106635E+03</rscale>
<asrwt>0</asrwt>
<pdfrwt beam="1">  1        1 0.10148169E+00 0.13004190E+03</pdfrwt>
<pdfrwt beam="2">  1       -1 0.31808201E-02 0.13004190E+03</pdfrwt>
<totfact> 0.10141544E+04</totfact>
</mgrwt>
</event>
<event>
 7    1  0.5107591E-006  0.1570713E+03  0.7546771E-02  0.1199516E+00
         -1   -1    0    0    0  501 -0.00000000000E+00  0.00000000000E+00  0.45423532207E+02  0.45423532207E+02  0.00000000000E+00 0.  1.
          1   -1    0    0  501    0  0.00000000000E+00 -0.00000000000E+00 -0.47420312268E+03  0.47420312268E+03  0.00000000000E+00 0. -1.
         23    2    1    2    0    0 -0.48203203268E+02 -0.81993986463E+02 -0.23465811794E+03  0.26991772558E+03  0.93512478544E+02 0.  0.
          5    1    1    2  502    0  0.73494505277E+02  0.90664597881E+02 -0.10682226541E+03  0.15828644289E+03  0.47000000000E+01 0.  1.
         -5    1    1    2    0  502 -0.25291302009E+02 -0.86706114184E+01 -0.87299207117E+02  0.91422486419E+02  0.47000000000E+01 0.  1.
        -11    1    3    3    0    0  0.12177513034E+02 -0.13276155263E+02  0.47803474918E-01  0.18015282608E+02  0.00000000000E+00 0.  1.
         11    1    3    3    0    0 -0.60380716302E+02 -0.68717831200E+02 -0.23470592142E+03  0.25190244297E+03  0.00000000000E+00 0. -1.
<mgrwt>
<rscale>  0 0.15078154E+03</rscale>
<asrwt>0</asrwt>
<pdfrwt beam="2">  1        1 0.72954322E-01 0.15707133E+03</pdfrwt>
<pdfrwt beam="1">  1       -1 0.69882361E-02 0.15707133E+03</pdfrwt>
<totfact> 0.49853099E+03</totfact>
</mgrwt>
</event>
<event>
 7    1  0.5107591E-006  0.4188930E+03  0.7546771E-02  0.1059926E+00
         -2   -1    0    0    0  501 -0.00000000000E+00  0.00000000000E+00  0.13625469548E+03  0.13625469548E+03  0.00000000000E+00 0.  1.
          2   -1    0    0  501    0  0.00000000000E+00 -0.00000000000E+00 -0.83756301396E+03  0.83756301396E+03  0.00000000000E+00 0. -1.
         23    2    1    2    0    0 -0.19203811360E+03  0.56013832071E+02 -0.40429479445E+03  0.46031176831E+03  0.91741248968E+02 0.  0.
          5    1    1    2  502    0  0.14268326732E+03 -0.17665170114E+03 -0.30791842975E+03  0.38262277463E+03  0.47000000000E+01 0. -1.
         -5    1    1    2    0  502  0.49354846282E+02  0.12063786907E+03  0.10904905720E+02  0.13088316650E+03  0.47000000000E+01 0.  1.
        -11    1    3    3    0    0 -0.15545946147E+03  0.65758361509E+01 -0.32151720982E+03  0.35718930834E+03  0.00000000000E+00 0. -1.
         11    1    3    3    0    0 -0.36578652137E+02  0.49437995920E+02 -0.82777584631E+02  0.10312245997E+03  0.00000000000E+00 0.  1.
<mgrwt>
<rscale>  0 0.35663140E+03</rscale>
<asrwt>0</asrwt>
<pdfrwt beam="2">  1        2 0.12885585E+00 0.41889297E+03</pdfrwt>
<pdfrwt beam="1">  1       -2 0.20962260E-01 0.41889297E+03</pdfrwt>
<totfact> 0.64588915E+02</totfact>
</mgrwt>
</event>
<event>
 7    1  0.5107591E-006  0.1271733E+03  0.7546771E-02  0.1246369E+00
          2   -1    0    0  501    0  0.00000000000E+00  0.00000000000E+00  0.51343377323E+02  0.51343377323E+02  0.00000000000E+00 0. -1.
         -2   -1    0    0    0  501 -0.00000000000E+00 -0.00000000000E+00 -0.24353381752E+03  0.24353381752E+03  0.00000000000E+00 0.  1.
         23    2    1    2    0    0 -0.62543662502E+01  0.22560703122E+02 -0.62275458496E+02  0.11307799820E+03  0.91434668065E+02 0.  0.
          5    1    1    2  502    0 -0.53737268661E+01  0.22603442219E+02 -0.13274097034E+03  0.13484082374E+03  0.47000000000E+01 0. -1.
         -5    1    1    2    0  502  0.11628093116E+02 -0.45164145341E+02  0.28259886344E+01  0.46958372902E+02  0.47000000000E+01 0. -1.
        -11    1    3    3    0    0  0.13680166364E+02 -0.32399634271E+02 -0.30412368346E+02  0.46495111582E+02  0.00000000000E+00 0.  1.
         11    1    3    3    0    0 -0.19934532614E+02  0.54960337392E+02 -0.31863090150E+02  0.66582886621E+02  0.00000000000E+00 0. -1.
<mgrwt>
<rscale>  0 0.11803801E+03</rscale>
<asrwt>0</asrwt>
<pdfrwt beam="1">  1        2 0.78989811E-02 0.12717329E+03</pdfrwt>
<pdfrwt beam="2">  1       -2 0.37466741E-01 0.12717329E+03</pdfrwt>
<totfact> 0.55077927E+03</totfact>
</mgrwt>
</event>
<event>
 7    1  0.5107591E-006  0.1447112E+03  0.7546771E-02  0.1217455E+00
         -2   -1    0    0    0  501 -0.00000000000E+00  0.00000000000E+00  0.32020067041E+02  0.32020067041E+02  0.00000000000E+00 0. -1.
          2   -1    0    0  501    0  0.00000000000E+00 -0.00000000000E+00 -0.55135946161E+03  0.55135946161E+03  0.00000000000E+00 0.  1.
         23    2    1    2    0    0  0.50902726285E+02  0.52200729283E+02 -0.28749931049E+03  0.31008272107E+03  0.90440238255E+02 0.  0.
          5    1    1    2  502    0 -0.39811651418E+02 -0.10755379082E+02 -0.43324086694E+01  0.41731349519E+02  0.47000000000E+01 0. -1.
         -5    1    1    2    0  502 -0.11091074867E+02 -0.41445350201E+02 -0.22750767541E+03  0.23156545806E+03  0.47000000000E+01 0. -1.
        -11    1    3    3    0    0  0.22091738671E+02  0.15161947554E+02 -0.99302986245E+01  0.28575171074E+02  0.00000000000E+00 0. -1.
         11    1    3    3    0    0  0.28810987614E+02  0.37038781729E+02 -0.27756901186E+03  0.28150755000E+03  0.00000000000E+00 0.  1.
<mgrwt>
<rscale>  0 0.13697771E+03</rscale>
<asrwt>0</asrwt>
<pdfrwt beam="2">  1        2 0.84824532E-01 0.14471116E+03</pdfrwt>
<pdfrwt beam="1">  1       -2 0.49261642E-02 0.14471116E+03</pdfrwt>
<totfact> 0.10669827E+04</totfact>
</mgrwt>
</event>
<event>
 7    1  0.5107591E-006  0.1840972E+03  0.7546771E-02  0.1169119E+00
         -4   -1    0    0    0  501 -0.00000000000E+00  0.00000000000E+00  0.22265144650E+03  0.22265144650E+03  0.00000000000E+00 0.  1.
          4   -1    0    0  501    0  0.00000000000E+00 -0.00000000000E+00 -0.13578080456E+03  0.13578080456E+03  0.00000000000E+00 0. -1.
         23    2    1    2    0    0 -0.13285449376E+03  0.25403200708E+02  0.32236856581E+02  0.16639936696E+03  0.91399645977E+02 0.  0.
          5    1    1    2  502    0  0.14357194939E+03 -0.52474212426E+02  0.55045281093E+02  0.16253775129E+03  0.47000000000E+01 0.  1.
         -5    1    1    2    0  502 -0.10717455636E+02  0.27071011719E+02 -0.41149572535E+00  0.29495132811E+02  0.47000000000E+01 0.  1.
        -11    1    3    3    0    0 -0.22171004492E+01  0.32225514357E+02  0.90437598922E+01  0.33543835544E+02  0.00000000000E+00 0.  1.
         11    1    3    3    0    0 -0.13063739331E+03 -0.68223136496E+01  0.23193096688E+02  0.13285553142E+03  0.00000000000E+00 0. -1.
<mgrwt>
<rscale>  0 0.17864735E+03</rscale>
<asrwt>0</asrwt>
<pdfrwt beam="2">  1        4 0.20889354E-01 0.18409720E+03</pdfrwt>
<pdfrwt beam="1">  1       -4 0.34254069E-01 0.18409720E+03</pdfrwt>
<totfact> 0.30157105E+02</totfact>
</mgrwt>
</event>
<event>
 7    1  0.5107591E-006  0.1819790E+03  0.7546771E-02  0.1171353E+00
          2   -1    0    0  501    0  0.00000000000E+00  0.00000000000E+00  0.13614916207E+03  0.13614916207E+03  0.00000000000E+00 0. -1.
         -2   -1    0    0    0  501 -0.00000000000E+00 -0.00000000000E+00 -0.21967464322E+03  0.21967464322E+03  0.00000000000E+00 0.  1.
         23    2    1    2    0    0 -0.94715618583E+01 -0.13197769131E+03 -0.63701486308E+02  0.17276825095E+03  0.91011909606E+02 0.  0.
          5    1    1    2  502    0  0.31489139854E+02  0.11241549310E+03  0.33858557204E+02  0.12164415692E+03  0.47000000000E+01 0. -1.
         -5    1    1    2    0  502 -0.22017577996E+02  0.19562198211E+02 -0.53682552047E+02  0.61411397427E+02  0.47000000000E+01 0. -1.
        -11    1    3    3    0    0 -0.48650612453E+02 -0.63857177347E+02 -0.44841000065E+02  0.91952903584E+02  0.00000000000E+00 0. -1.
         11    1    3    3    0    0  0.39179050595E+02 -0.68120513963E+02 -0.18860486243E+02  0.80815347363E+02  0.00000000000E+00 0.  1.
<mgrwt>
<rscale>  0 0.17638003E+03</rscale>
<asrwt>0</asrwt>
<pdfrwt beam="1">  1        2 0.20946025E-01 0.18197897E+03</pdfrwt>
<pdfrwt beam="2">  1       -2 0.33796098E-01 0.18197897E+03</pdfrwt>
<totfact> 0.21216201E+03</totfact>
</mgrwt>
</event>
<event>
 7    1  0.5107591E-006  0.2998697E+03  0.7546771E-02  0.1086901E+00
         -2   -1    0    0    0  501 -0.00000000000E+00  0.00000000000E+00  0.88942774568E+02  0.88942774568E+02  0.00000000000E+00 0.  1.
          2   -1    0    0  501    0  0.00000000000E+00 -0.00000000000E+00 -0.10141755864E+04  0.10141755864E+04  0.00000000000E+00 0. -1.
         23    2    1    2    0    0  0.15665538249E+03  0.22306033084E+03 -0.56909111831E+03  0.63754480864E+03  0.91114554360E+02 0.  0.
          5    1    1    2  502    0 -0.14786652467E+03 -0.12724296978E+03 -0.28675789799E+03  0.34685366444E+03  0.47000000000E+01 0.  1.
         -5    1    1    2    0  502 -0.87888578219E+01 -0.95817361061E+02 -0.69383795561E+02  0.11871988793E+03  0.47000000000E+01 0.  1.
        -11    1    3    3    0    0  0.48407364985E+02  0.11030206659E+03 -0.33560985309E+03  0.35657228211E+03  0.00000000000E+00 0.  1.
         11    1    3    3    0    0  0.10824801751E+03  0.11275826425E+03 -0.23348126522E+03  0.28097252652E+03  0.00000000000E+00 0. -1.
<mgrwt>
<rscale>  0 0.29670240E+03</rscale>
<asrwt>0</asrwt>
<pdfrwt beam="2">  1        2 0.15602701E+00 0.29986968E+03</pdfrwt>
<pdfrwt beam="1">  1       -2 0.13683504E-01 0.29986968E+03</pdfrwt>
<totfact> 0.10266093E+03</totfact>
</mgrwt>
</event>
<event>
 7    1  0.5107591E-006  0.1365324E+03  0.7546771E-02  0.1229461E+00
          2   -1    0    0  501    0  0.00000000000E+00  0.00000000000E+00  0.45070151329E+03  0.45070151329E+03  0.00000000000E+00 0. -1.
         -2   -1    0    0    0  501 -0.00000000000E+00 -0.00000000000E+00 -0.93650941258E+02  0.93650941258E+02  0.00000000000E+00 0.  1.
         23    2    1    2    0    0 -0.46498444945E+02 -0.29199006144E+02  0.38942727427E+03  0.40403373362E+03  0.92601126420E+02 0.  0.
          5    1    1    2  502    0  0.51045351083E+02 -0.36725828489E+02 -0.38343863955E+02  0.73802142573E+02  0.47000000000E+01 0. -1.
         -5    1    1    2    0  502 -0.45469061380E+01  0.65924834633E+02  0.59671617128E+01  0.66516578352E+02  0.47000000000E+01 0. -1.
        -11    1    3    3    0    0 -0.69525344646E+02 -0.11260149454E+01  0.21868995702E+03  0.22947840587E+03  0.00000000000E+00 0.  1.
         11    1    3    3    0    0  0.23026899701E+02 -0.28072991199E+02  0.17073731726E+03  0.17455532776E+03  0.00000000000E+00 0. -1.
<mgrwt>
<rscale>  0 0.12865764E+03</rscale>
<asrwt>0</asrwt>
<pdfrwt beam="1">  1        2 0.69338693E-01 0.13653239E+03</pdfrwt>
<pdfrwt beam="2">  1       -2 0.14407837E-01 0.13653239E+03</pdfrwt>
<totfact> 0.24999855E+03</totfact>
</mgrwt>
</event>
<event>
 7    1  0.5107591E-006  0.2006476E+03  0.7546771E-02  0.1153314E+00
          2   -1    0    0  501    0  0.00000000000E+00  0.00000000000E+00  0.38652060036E+03  0.38652060036E+03  0.00000000000E+00 0. -1.
         -2   -1    0    0    0  501 -0.00000000000E+00 -0.00000000000E+00 -0.10254094171E+03  0.10254094171E+03  0.00000000000E+00 0.  1.
         23    2    1    2    0    0 -0.10419281169E+03 -0.11738185542E+03  0.20308769568E+03  0.27272162956E+03  0.92183692172E+02 0.  0.
          5    1    1    2  502    0  0.25170734167E+02  0.85914773896E+02 -0.11830308457E+02  0.90426547154E+02  0.47000000000E+01 0. -1.
         -5    1    1    2    0  502  0.79022077523E+02  0.31467081520E+02  0.92722271428E+02  0.12591336535E+03  0.47000000000E+01 0. -1.
        -11    1    3    3    0    0 -0.68742749965E+02 -0.41172130486E+02  0.15843534339E+03  0.17754567873E+03  0.00000000000E+00 0. -1.
         11    1    3    3    0    0 -0.35450061725E+02 -0.76209724930E+02  0.44652352291E+02  0.95175950825E+02  0.00000000000E+00 0.  1.
<mgrwt>
<rscale>  0 0.19582005E+03</rscale>
<asrwt>0</asrwt>
<pdfrwt beam="1">  1        2 0.59464707E-01 0.20064757E+03</pdfrwt>
<pdfrwt beam="2">  1       -2 0.15775530E-01 0.20064757E+03</pdfrwt>
<totfact> 0.25765009E+03</totfact>
</mgrwt>
</event>
<event>
 7    1  0.5107591E-006  0.1273790E+03  0.7546771E-02  0.1246409E+00
         -2   -1    0    0    0  501 -0.00000000000E+00  0.00000000000E+00  0.19261220813E+02  0.19261220813E+02  0.00000000000E+00 0.  1.
          2   -1    0    0  501    0  0.00000000000E+00 -0.00000000000E+00 -0.65440240980E+03  0.65440240980E+03  0.00000000000E+00 0. -1.
         23    2    1    2    0    0 -0.24418263650E+02  0.17937757214E+01 -0.32781606394E+03  0.34098639842E+03  0.90602885705E+02 0.  0.
          5    1    1    2  502    0  0.46165110850E+02  0.51096834396E+01 -0.30578816112E+03  0.30933123962E+03  0.47000000000E+01 0.  1.
         -5    1    1    2    0  502 -0.21746847200E+02 -0.69034591610E+01 -0.15369639368E+01  0.23345992583E+02  0.47000000000E+01 0.  1.
        -11    1    3    3    0    0 -0.99443754468E+01 -0.44030800558E+02 -0.13872290478E+03  0.14588230294E+03  0.00000000000E+00 0. -1.
         11    1    3    3    0    0 -0.14473888203E+02  0.45824576279E+02 -0.18909315916E+03  0.19510409547E+03  0.00000000000E+00 0.  1.
<mgrwt>
<rscale>  0 0.11801445E+03</rscale>
<asrwt>0</asrwt>
<pdfrwt beam="2">  1        2 0.10067728E+00 0.12737899E+03</pdfrwt>
<pdfrwt beam="1">  1       -2 0.29632650E-02 0.12737899E+03</pdfrwt>
<totfact> 0.18484258E+04</totfact>
</mgrwt>
</event>
<event>
 7    1  0.5107591E-006  0.1346286E+03  0.7546771E-02  0.1233357E+00
         -1   -1    0    0    0  501 -0.00000000000E+00  0.00000000000E+00  0.48735286929E+02  0.48735286929E+02  0.00000000000E+00 0.  1.
          1   -1    0    0  501    0  0.00000000000E+00 -0.00000000000E+00 -0.29153456929E+03  0.29153456929E+03  0.00000000000E+00 0. -1.
         23    2    1    2    0    0 -0.37626762566E+02 -0.32916788247E+02 -0.11135259619E+03  0.15211277173E+03  0.90772277910E+02 0.  0.
          5    1    1    2  502    0 -0.67322511567E+01  0.30363519924E+02  0.15142957688E+02  0.34909392938E+02  0.47000000000E+01 0. -1.
         -5    1    1    2    0  502  0.44359013723E+02  0.25532683231E+01 -0.14658964386E+03  0.15324769155E+03  0.47000000000E+01 0. -1.
        -11    1    3    3    0    0  0.25678251352E+02 -0.28585142983E+02 -0.28948189289E+02  0.48109049616E+02  0.00000000000E+00 0.  1.
         11    1    3    3    0    0 -0.63305013919E+02 -0.43316452639E+01 -0.82404406898E+02  0.10400372212E+03  0.00000000000E+00 0. -1.
<mgrwt>
<rscale>  0 0.12610227E+03</rscale>
<asrwt>0</asrwt>
<pdfrwt beam="2">  1        1 0.44851473E-01 0.13462859E+03</pdfrwt>
<pdfrwt beam="1">  1       -1 0.74977364E-02 0.13462859E+03</pdfrwt>
<totfact> 0.81989364E+03</totfact>
</mgrwt>
</event>
<event>
 7    1  0.5107591E-006  0.1268389E+03  0.7546771E-02  0.1246961E+00
          1   -1    0    0  501    0  0.00000000000E+00  0.00000000000E+00  0.31460763746E+03  0.31460763746E+03  0.00000000000E+00 0. -1.
         -1   -1    0    0    0  501 -0.00000000000E+00 -0.00000000000E+00 -0.38822234834E+02  0.38822234834E+02  0.00000000000E+00 0.  1.
         23    2    1    2    0    0  0.15107785527E+02 -0.15376589772E+02  0.12455699700E+03  0.15605170593E+03  0.91504124091E+02 0.  0.
          5    1    1    2  502    0  0.33431328140E+02  0.39593873735E+02  0.12801951987E+03  0.13818978256E+03  0.47000000000E+01 0.  1.
         -5    1    1    2    0  502 -0.48539113667E+02 -0.24217283963E+02  0.23208885755E+02  0.59188383794E+02  0.47000000000E+01 0.  1.
        -11    1    3    3    0    0  0.19847539855E+02 -0.25183243982E+02  0.13630836745E+03  0.14002889578E+03  0.00000000000E+00 0. -1.
         11    1    3    3    0    0 -0.47397543276E+01  0.98066542098E+01 -0.11751370448E+02  0.16022810155E+02  0.00000000000E+00 0.  1.
<mgrwt>
<rscale>  0 0.11768788E+03</rscale>
<asrwt>0</asrwt>
<pdfrwt beam="1">  1        1 0.48401173E-01 0.12683891E+03</pdfrwt>
<pdfrwt beam="2">  1       -1 0.59726517E-02 0.12683891E+03</pdfrwt>
<totfact> 0.10436604E+04</totfact>
</mgrwt>
</event>
<event>
 7    1  0.5107591E-006  0.3101861E+03  0.7546771E-02  0.1081712E+00
         -1   -1    0    0    0  501 -0.00000000000E+00  0.00000000000E+00  0.68505815267E+02  0.68505815267E+02  0.00000000000E+00 0.  1.
          1   -1    0    0  501    0  0.00000000000E+00 -0.00000000000E+00 -0.13527444334E+04  0.13527444334E+04  0.00000000000E+00 0. -1.
         23    2    1    2    0    0  0.27133267778E+03  0.83514193097E+02 -0.60481872608E+03  0.67437220251E+03  0.91521219532E+02 0.  0.
          5    1    1    2  502    0 -0.17371803669E+03 -0.51276450001E+02 -0.27317360110E+03  0.32780045292E+03  0.47000000000E+01 0. -1.
         -5    1    1    2    0  502 -0.97614641093E+02 -0.32237743097E+02 -0.40624629091E+03  0.41907759319E+03  0.47000000000E+01 0. -1.
        -11    1    3    3    0    0  0.13679232896E+03  0.74131616585E+02 -0.39941616381E+03  0.42865010177E+03  0.00000000000E+00 0.  1.
         11    1    3    3    0    0  0.13454034883E+03  0.93825765120E+01 -0.20540256227E+03  0.24572210074E+03  0.00000000000E+00 0. -1.
<mgrwt>
<rscale>  0 0.30716628E+03</rscale>
<asrwt>0</asrwt>
<pdfrwt beam="2">  1        1 0.20811451E+00 0.31018612E+03</pdfrwt>
<pdfrwt beam="1">  1       -1 0.10539357E-01 0.31018612E+03</pdfrwt>
<totfact> 0.50381909E+02</totfact>
</mgrwt>
</event>
<event>
 7    1  0.5107591E-006  0.2689651E+03  0.7546771E-02  0.1104619E+00
          2   -1    0    0  501    0  0.00000000000E+00  0.00000000000E+00  0.10694811296E+04  0.10694811296E+04  0.00000000000E+00 0. -1.
         -2   -1    0    0    0  501 -0.00000000000E+00 -0.00000000000E+00 -0.65504248849E+02  0.65504248849E+02  0.00000000000E+00 0.  1.
         23    2    1    2    0    0 -0.21672755945E+03  0.98752076000E+02  0.59360862965E+03  0.64432834535E+03  0.77878134826E+02 0.  0.
          5    1    1    2  502    0  0.14691491375E+03 -0.82779201058E+02  0.37380812841E+03  0.41011095435E+03  0.47000000000E+01 0.  1.
         -5    1    1    2    0  502  0.69812645698E+02 -0.15972874941E+02  0.36560122708E+02  0.80546078773E+02  0.47000000000E+01 0.  1.
        -11    1    3    3    0    0 -0.13368477525E+03  0.22307841750E+02  0.28127312739E+03  0.31222400793E+03  0.00000000000E+00 0.  1.
         11    1    3    3    0    0 -0.83042784193E+02  0.76444234250E+02  0.31233550226E+03  0.33210433741E+03  0.00000000000E+00 0. -1.
<mgrwt>
<rscale>  0 0.26424475E+03</rscale>
<asrwt>0</asrwt>
<pdfrwt beam="1">  1        2 0.16453555E+00 0.26896510E+03</pdfrwt>
<pdfrwt beam="2">  1       -2 0.10077578E-01 0.26896510E+03</pdfrwt>
<totfact> 0.15615981E+03</totfact>
</mgrwt>
</event>
<event>
 7    1  0.5107591E-006  0.2159666E+03  0.7546771E-02  0.1140357E+00
          2   -1    0    0  501    0  0.00000000000E+00  0.00000000000E+00  0.10869061610E+04  0.10869061610E+04  0.00000000000E+00 0. -1.
         -2   -1    0    0    0  501 -0.00000000000E+00 -0.00000000000E+00 -0.44337374187E+02  0.44337374187E+02  0.00000000000E+00 0.  1.
         23    2    1    2    0    0  0.68109139321E+02 -0.16262875379E+03  0.68744144487E+03  0.71560305438E+03  0.91787934325E+02 0.  0.
          5    1    1    2  502    0 -0.84295960711E+02  0.99727480516E+02  0.30999819269E+03  0.33641098204E+03  0.47000000000E+01 0. -1.
         -5    1    1    2    0  502  0.16186821390E+02  0.62901273278E+02  0.45129149293E+02  0.79229498816E+02  0.47000000000E+01 0. -1.
        -11    1    3    3    0    0  0.75595987173E+02 -0.11986330073E+03  0.61527391996E+03  0.63138257873E+03  0.00000000000E+00 0. -1.
         11    1    3    3    0    0 -0.74868478515E+01 -0.42765453067E+02  0.72167524909E+02  0.84220475648E+02  0.00000000000E+00 0.  1.
<mgrwt>
<rscale>  0 0.21153444E+03</rscale>
<asrwt>0</asrwt>
<pdfrwt beam="1">  1        2 0.16721631E+00 0.21596662E+03</pdfrwt>
<pdfrwt beam="2">  1       -2 0.68211353E-02 0.21596662E+03</pdfrwt>
<totfact> 0.28106637E+03</totfact>
</mgrwt>
</event>
<event>
 7    1  0.5107591E-006  0.1521951E+03  0.7546771E-02  0.1206639E+00
         -1   -1    0    0    0  501 -0.00000000000E+00  0.00000000000E+00  0.68142882297E+03  0.68142882297E+03  0.00000000000E+00 0.  1.
          1   -1    0    0  501    0  0.00000000000E+00 -0.00000000000E+00 -0.29110491103E+02  0.29110491103E+02  0.00000000000E+00 0. -1.
         23    2    1    2    0    0  0.85843166147E+02 -0.12970331630E+02  0.23810590354E+03  0.26925110313E+03  0.90909056544E+02 0.  0.
          5    1    1    2  502    0 -0.14476745488E+02 -0.48343934719E+02  0.86002755017E+02  0.99826229291E+02  0.47000000000E+01 0.  1.
         -5    1    1    2    0  502 -0.71366420659E+02  0.61314266350E+02  0.32820967331E+03  0.34146198164E+03  0.47000000000E+01 0.  1.
        -11    1    3    3    0    0  0.75304003585E+02 -0.32418187377E+01  0.24274411549E+03  0.25417692254E+03  0.00000000000E+00 0.  1.
         11    1    3    3    0    0  0.10539162561E+02 -0.97285128927E+01 -0.46382119506E+01  0.15074180598E+02  0.00000000000E+00 0. -1.
<mgrwt>
<rscale>  0 0.14509038E+03</rscale>
<asrwt>0</asrwt>
<pdfrwt beam="2">  1        1 0.44785376E-02 0.15219510E+03</pdfrwt>
<pdfrwt beam="1">  1       -1 0.10483519E+00 0.15219510E+03</pdfrwt>
<totfact> 0.17205030E+03</totfact>
</mgrwt>
</event>
<event>
 7    1  0.5107591E-006  0.1323973E+03  0.7546771E-02  0.1238538E+00
         -2   -1    0    0    0  501 -0.00000000000E+00  0.00000000000E+00  0.88265907903E+02  0.88265907903E+02  0.00000000000E+00 0.  1.
          2   -1    0    0  501    0  0.00000000000E+00 -0.00000000000E+00 -0.15423042806E+03  0.15423042806E+03  0.00000000000E+00 0. -1.
         23    2    1    2    0    0  0.84890003505E+01 -0.42725358449E+02 -0.47189332062E+02  0.10877444849E+03  0.87792529308E+02 0.  0.
          5    1    1    2  502    0 -0.61099077808E+02  0.63254090732E+01  0.11695435752E+02  0.62705512727E+02  0.47000000000E+01 0.  1.
         -5    1    1    2    0  502  0.52610077457E+02  0.36399949376E+02 -0.30470623846E+02  0.71016374747E+02  0.47000000000E+01 0.  1.
        -11    1    3    3    0    0  0.16824436797E+02 -0.79810401435E+01  0.23251977354E+02  0.29789480126E+02  0.00000000000E+00 0.  1.
         11    1    3    3    0    0 -0.83354364467E+01 -0.34744318305E+02 -0.70441309416E+02  0.78984968364E+02  0.00000000000E+00 0. -1.
<mgrwt>
<rscale>  0 0.12280660E+03</rscale>
<asrwt>0</asrwt>
<pdfrwt beam="2">  1        2 0.23727758E-01 0.13239726E+03</pdfrwt>
<pdfrwt beam="1">  1       -2 0.13579370E-01 0.13239726E+03</pdfrwt>
<totfact> 0.86834288E+03</totfact>
</mgrwt>
</event>
<event>
 7    1  0.5107591E-006  0.1298018E+03  0.7546771E-02  0.1233219E+00
          3   -1    0    0  501    0  0.00000000000E+00  0.00000000000E+00  0.31415099666E+02  0.31415099666E+02  0.00000000000E+00 0. -1.
         -3   -1    0    0    0  501 -0.00000000000E+00 -0.00000000000E+00 -0.10532335177E+04  0.10532335177E+04  0.00000000000E+00 0.  1.
         23    2    1    2    0    0 -0.64748856293E+02 -0.15046357787E+02 -0.98182911122E+02  0.15193695173E+03  0.95006031336E+02 0.  0.
          5    1    1    2  502    0  0.38772374036E+02  0.57494582429E+02 -0.70581415580E+03  0.70922819778E+03  0.47000000000E+01 0. -1.
         -5    1    1    2    0  502  0.25976482257E+02 -0.42448224642E+02 -0.21782135108E+03  0.22348346782E+03  0.47000000000E+01 0.  1.
        -11    1    3    3    0    0 -0.81290059040E+02 -0.31459047652E+02 -0.94121986745E+02  0.12828364575E+03  0.00000000000E+00 0. -1.
         11    1    3    3    0    0  0.16541202748E+02  0.16412689864E+02 -0.40609243770E+01  0.23653305979E+02  0.00000000000E+00 0.  1.
<mgrwt>
<rscale>  0 0.12619158E+03</rscale>
<asrwt>0</asrwt>
<pdfrwt beam="1">  1        3 0.48330915E-02 0.12980178E+03</pdfrwt>
<pdfrwt beam="2">  1       -3 0.16203595E+00 0.12980178E+03</pdfrwt>
<totfact> 0.15811900E+02</totfact>
</mgrwt>
</event>
<event>
 7    1  0.5107591E-006  0.1396279E+03  0.7546771E-02  0.1224831E+00
          2   -1    0    0  501    0  0.00000000000E+00  0.00000000000E+00  0.35678301783E+03  0.35678301783E+03  0.00000000000E+00 0. -1.
         -2   -1    0    0    0  501 -0.00000000000E+00 -0.00000000000E+00 -0.45470344734E+02  0.45470344734E+02  0.00000000000E+00 0.  1.
         23    2    1    2    0    0 -0.50529373152E+02  0.36306590550E+02  0.17493975891E+03  0.20707776316E+03  0.91683666381E+02 0.  0.
          5    1    1    2  502    0  0.39732406467E+02  0.17610130745E+02 -0.44359362934E+01  0.43938005864E+02  0.47000000000E+01 0.  1.
         -5    1    1    2    0  502  0.10796966685E+02 -0.53916721295E+02  0.14080885048E+03  0.15123759354E+03  0.47000000000E+01 0.  1.
        -11    1    3    3    0    0 -0.12170880629E+02  0.44017307366E+02  0.24890809564E+02  0.52011595667E+02  0.00000000000E+00 0.  1.
         11    1    3    3    0    0 -0.38358492523E+02 -0.77107168164E+01  0.15004894934E+03  0.15506616750E+03  0.00000000000E+00 0. -1.
<mgrwt>
<rscale>  0 0.13178527E+03</rscale>
<asrwt>0</asrwt>
<pdfrwt beam="1">  1        2 0.54889693E-01 0.13962787E+03</pdfrwt>
<pdfrwt beam="2">  1       -2 0.69954379E-02 0.13962787E+03</pdfrwt>
<totfact> 0.10028049E+04</totfact>
</mgrwt>
</event>
<event>
 7    1  0.5107591E-006  0.1981257E+03  0.7546771E-02  0.1155854E+00
         -2   -1    0    0    0  501 -0.00000000000E+00  0.00000000000E+00  0.16976873418E+03  0.16976873418E+03  0.00000000000E+00 0.  1.
          2   -1    0    0  501    0  0.00000000000E+00 -0.00000000000E+00 -0.24071738307E+03  0.24071738307E+03  0.00000000000E+00 0. -1.
         23    2    1    2    0    0 -0.14154070786E+03  0.59964889544E+02 -0.10889579790E+03  0.20875913536E+03  0.89958445044E+02 0.  0.
          5    1    1    2  502    0  0.37177460865E+02 -0.62353154695E+02 -0.28236215386E+02  0.78034949581E+02  0.47000000000E+01 0. -1.
         -5    1    1    2    0  502  0.10436324700E+03  0.23882651509E+01  0.66183364400E+02  0.12369203231E+03  0.47000000000E+01 0. -1.
        -11    1    3    3    0    0 -0.11246150837E+03  0.37037364041E+02 -0.30823160850E+02  0.12234959928E+03  0.00000000000E+00 0.  1.
         11    1    3    3    0    0 -0.29079199496E+02  0.22927525503E+02 -0.78072637053E+02  0.86409536079E+02  0.00000000000E+00 0. -1.
<mgrwt>
<rscale>  0 0.19291936E+03</rscale>
<asrwt>0</asrwt>
<pdfrwt beam="2">  1        2 0.37033444E-01 0.19812569E+03</pdfrwt>
<pdfrwt beam="1">  1       -2 0.26118267E-01 0.19812569E+03</pdfrwt>
<totfact> 0.18082591E+03</totfact>
</mgrwt>
</event>
<event>
 7    1  0.5107591E-006  0.1461026E+03  0.7546771E-02  0.1210593E+00
          1   -1    0    0  501    0  0.00000000000E+00  0.00000000000E+00  0.90663140431E+02  0.90663140431E+02  0.00000000000E+00 0. -1.
         -1   -1    0    0    0  501 -0.00000000000E+00 -0.00000000000E+00 -0.23422124069E+03  0.23422124069E+03  0.00000000000E+00 0.  1.
         23    2    1    2    0    0  0.68965227579E+02 -0.63132102440E+02 -0.17147461562E+02  0.13168602515E+03  0.91133467008E+02 0.  0.
          5    1    1    2  502    0 -0.92861529891E+02  0.60190489514E+02 -0.12718589935E+03  0.16865497845E+03  0.47000000000E+01 0. -1.
         -5    1    1    2    0  502  0.23896302312E+02  0.29416129262E+01  0.77526065920E+00  0.24543377516E+02  0.47000000000E+01 0.  1.
        -11    1    3    3    0    0 -0.16457952170E+02 -0.13363489816E+02  0.16912474058E+02  0.27119712912E+02  0.00000000000E+00 0. -1.
         11    1    3    3    0    0  0.85423179749E+02 -0.49768612624E+02 -0.34059935620E+02  0.10456631224E+03  0.00000000000E+00 0.  1.
<mgrwt>
<rscale>  0 0.14205283E+03</rscale>
<asrwt>0</asrwt>
<pdfrwt beam="1">  1        1 0.13948176E-01 0.14610255E+03</pdfrwt>
<pdfrwt beam="2">  1       -1 0.36034037E-01 0.14610255E+03</pdfrwt>
<totfact> 0.29543022E+03</totfact>
</mgrwt>
</event>
<event>
 7    1  0.5107591E-006  0.2602922E+03  0.7546771E-02  0.1106968E+00
          1   -1    0    0  501    0  0.00000000000E+00  0.00000000000E+00  0.36509691611E+03  0.36509691611E+03  0.00000000000E+00 0. -1.
         -1   -1    0    0    0  501 -0.00000000000E+00 -0.00000000000E+00 -0.46393190377E+02  0.46393190377E+02  0.00000000000E+00 0.  1.
         23    2    1    2    0    0 -0.44285425152E+02  0.14235999388E+02  0.13573293425E+03  0.16986471837E+03  0.90921562601E+02 0.  0.
          5    1    1    2  502    0 -0.49413888769E+02  0.14407563712E+02  0.10232530671E+03  0.11463798973E+03  0.47000000000E+01 0. -1.
         -5    1    1    2    0  502  0.93699313921E+02 -0.28643563100E+02  0.80645484762E+02  0.12698739839E+03  0.47000000000E+01 0.  1.
        -11    1    3    3    0    0 -0.47737730967E+02 -0.16555992667E+02  0.12845708980E+03  0.13803700870E+03  0.00000000000E+00 0. -1.
         11    1    3    3    0    0  0.34523058156E+01  0.30791992055E+02  0.72758444531E+01  0.31827709667E+02  0.00000000000E+00 0.  1.
<mgrwt>
<rscale>  0 0.26029223E+03</rscale>
<asrwt>0</asrwt>
<pdfrwt beam="1">  1        1 0.56168755E-01 0.26029223E+03</pdfrwt>
<pdfrwt beam="2">  1       -1 0.71374141E-02 0.26029223E+03</pdfrwt>
<totfact> 0.69275278E+03</totfact>
</mgrwt>
</event>
<event>
 7    1  0.5107591E-006  0.1891175E+03  0.7546771E-02  0.1164137E+00
          1   -1    0    0  501    0  0.00000000000E+00  0.00000000000E+00  0.33876243608E+03  0.33876243608E+03  0.00000000000E+00 0. -1.
         -1   -1    0    0    0  501 -0.00000000000E+00 -0.00000000000E+00 -0.94687890147E+02  0.94687890147E+02  0.00000000000E+00 0.  1.
         23    2    1    2    0    0  0.72290366694E+02  0.12212085687E+03  0.10780199848E+03  0.20035028507E+03  0.91539964237E+02 0.  0.
          5    1    1    2  502    0 -0.61506306972E+02  0.34843267906E+01  0.57305298038E+02  0.84268342299E+02  0.47000000000E+01 0. -1.
         -5    1    1    2    0  502 -0.10784059721E+02 -0.12560518366E+03  0.78967249420E+02  0.14883169886E+03  0.47000000000E+01 0. -1.
        -11    1    3    3    0    0  0.35951760418E+02  0.10086971189E+03  0.11555683201E+03  0.15754557841E+03  0.00000000000E+00 0. -1.
         11    1    3    3    0    0  0.36338606276E+02  0.21251144981E+02 -0.77548335284E+01  0.42804706658E+02  0.00000000000E+00 0.  1.
<mgrwt>
<rscale>  0 0.18384020E+03</rscale>
<asrwt>0</asrwt>
<pdfrwt beam="1">  1        1 0.52117297E-01 0.18911748E+03</pdfrwt>
<pdfrwt beam="2">  1       -1 0.14567368E-01 0.18911748E+03</pdfrwt>
<totfact> 0.24918607E+03</totfact>
</mgrwt>
</event>
<event>
 7    1  0.5107591E-006  0.1526266E+03  0.7546771E-02  0.1205956E+00
         -2   -1    0    0    0  501 -0.00000000000E+00  0.00000000000E+00  0.69905410937E+02  0.69905410937E+02  0.00000000000E+00 0.  1.
          2   -1    0    0  501    0  0.00000000000E+00 -0.00000000000E+00 -0.29680872606E+03  0.29680872606E+03  0.00000000000E+00 0. -1.
         23    2    1    2    0    0 -0.48256618752E+02 -0.73056392166E+02 -0.14870256004E+03  0.19522001739E+03  0.91282342951E+02 0.  0.
          5    1    1    2  502    0  0.56533080276E+02 -0.17949525434E+02 -0.18790446467E+02  0.62396678656E+02  0.47000000000E+01 0. -1.
         -5    1    1    2    0  502 -0.82764615240E+01  0.91005917600E+02 -0.59410308611E+02  0.10909744095E+03  0.47000000000E+01 0. -1.
        -11    1    3    3    0    0  0.93685101694E+01  0.84685515179E+01  0.35828326773E+01  0.13127148875E+02  0.00000000000E+00 0.  1.
         11    1    3    3    0    0 -0.57625128922E+02 -0.81524943684E+02 -0.15228539272E+03  0.18209286851E+03  0.00000000000E+00 0. -1.
<mgrwt>
<rscale>  0 0.14562376E+03</rscale>
<asrwt>0</asrwt>
<pdfrwt beam="2">  1        2 0.45662882E-01 0.15262659E+03</pdfrwt>
<pdfrwt beam="1">  1       -2 0.10754678E-01 0.15262659E+03</pdfrwt>
<totfact> 0.62795790E+03</totfact>
</mgrwt>
</event>
<event>
 7    1  0.5107591E-006  0.1423406E+03  0.7546771E-02  0.1220886E+00
         -1   -1    0    0    0  501 -0.00000000000E+00  0.00000000000E+00  0.46893641807E+03  0.46893641807E+03  0.00000000000E+00 0.  1.
          1   -1    0    0  501    0  0.00000000000E+00 -0.00000000000E+00 -0.35143889952E+02  0.35143889952E+02  0.00000000000E+00 0. -1.
         23    2    1    2    0    0  0.66685961160E+02  0.13882990391E+02  0.21288125543E+03  0.24128261020E+03  0.90879668970E+02 0.  0.
          5    1    1    2  502    0 -0.53689032751E+01 -0.88622446918E+01  0.19588308151E+03  0.19621324146E+03  0.47000000000E+01 0. -1.
         -5    1    1    2    0  502 -0.61317057885E+02 -0.50207456991E+01  0.25028191173E+02  0.66584456357E+02  0.47000000000E+01 0. -1.
        -11    1    3    3    0    0  0.35321084856E+02  0.32020720637E+02  0.19525473331E+03  0.20099083677E+03  0.00000000000E+00 0.  1.
         11    1    3    3    0    0  0.31364876304E+02 -0.18137730246E+02  0.17626522124E+02  0.40291773431E+02  0.00000000000E+00 0. -1.
<mgrwt>
<rscale>  0 0.13452887E+03</rscale>
<asrwt>0</asrwt>
<pdfrwt beam="2">  1        1 0.54067526E-02 0.14234058E+03</pdfrwt>
<pdfrwt beam="1">  1       -1 0.72144060E-01 0.14234058E+03</pdfrwt>
<totfact> 0.29121648E+03</totfact>
</mgrwt>
</event>
<event>
 7    1  0.5107591E-006  0.1419152E+03  0.7546771E-02  0.1221466E+00
         -3   -1    0    0    0  501 -0.00000000000E+00  0.00000000000E+00  0.26773414873E+02  0.26773414873E+02  0.00000000000E+00 0.  1.
          3   -1    0    0  501    0  0.00000000000E+00 -0.00000000000E+00 -0.70785547249E+03  0.70785547249E+03  0.00000000000E+00 0. -1.
         23    2    1    2    0    0  0.48615918415E+02 -0.46400709314E+02 -0.44499771268E+03  0.45917336570E+03  0.91108079389E+02 0.  0.
          5    1    1    2  502    0 -0.87860213701E+02  0.25224865548E+02 -0.11936029945E+03  0.15041503276E+03  0.47000000000E+01 0.  1.
         -5    1    1    2    0  502  0.39244295286E+02  0.21175843766E+02 -0.11672404548E+03  0.12504048890E+03  0.47000000000E+01 0.  1.
        -11    1    3    3    0    0  0.59063793108E+02 -0.62961672980E+02 -0.41074084254E+03  0.41971507436E+03  0.00000000000E+00 0. -1.
         11    1    3    3    0    0 -0.10447874693E+02  0.16560963667E+02 -0.34256870147E+02  0.39458291339E+02  0.00000000000E+00 0.  1.
<mgrwt>
<rscale>  0 0.13412073E+03</rscale>
<asrwt>0</asrwt>
<pdfrwt beam="2">  1        3 0.10890085E+00 0.14191521E+03</pdfrwt>
<pdfrwt beam="1">  1       -3 0.41189865E-02 0.14191521E+03</pdfrwt>
<totfact> 0.53906739E+02</totfact>
</mgrwt>
</event>
<event>
 7    1  0.5107591E-006  0.2201265E+03  0.7546771E-02  0.1137122E+00
          2   -1    0    0  501    0  0.00000000000E+00  0.00000000000E+00  0.50962957659E+03  0.50962957659E+03  0.00000000000E+00 0. -1.
         -2   -1    0    0    0  501 -0.00000000000E+00 -0.00000000000E+00 -0.89375015331E+02  0.89375015331E+02  0.00000000000E+00 0.  1.
         23    2    1    2    0    0  0.18107146871E+03  0.66400440958E+01  0.16231628178E+03  0.25990601546E+03  0.91507347095E+02 0.  0.
          5    1    1    2  502    0 -0.25391201940E+02 -0.48016213144E+02  0.97444057761E+02  0.11165887450E+03  0.47000000000E+01 0. -1.
         -5    1    1    2    0  502 -0.15568026677E+03  0.41376169048E+02  0.16049422172E+03  0.22743970197E+03  0.47000000000E+01 0. -1.
        -11    1    3    3    0    0  0.61779509035E+02 -0.51256396520E+01  0.50956394203E+01  0.62200847740E+02  0.00000000000E+00 0.  1.
         11    1    3    3    0    0  0.11929195968E+03  0.11765683748E+02  0.15722064236E+03  0.19770516772E+03  0.00000000000E+00 0. -1.
<mgrwt>
<rscale>  0 0.21571108E+03</rscale>
<asrwt>0</asrwt>
<pdfrwt beam="1">  1        2 0.78404549E-01 0.22012653E+03</pdfrwt>
<pdfrwt beam="2">  1       -2 0.13750003E-01 0.22012653E+03</pdfrwt>
<totfact> 0.23912138E+03</totfact>
</mgrwt>
</event>
<event>
 7    1  0.5107591E-006  0.1332490E+03  0.7546771E-02  0.1234277E+00
          2   -1    0    0  501    0  0.00000000000E+00  0.00000000000E+00  0.10988692043E+03  0.10988692043E+03  0.00000000000E+00 0. -1.
         -2   -1    0    0    0  501 -0.00000000000E+00 -0.00000000000E+00 -0.13289368166E+03  0.13289368166E+03  0.00000000000E+00 0.  1.
         23    2    1    2    0    0 -0.36830133157E+02  0.27832703986E+02 -0.30781593843E+02  0.10930492375E+03  0.94175058892E+02 0.  0.
          5    1    1    2  502    0  0.41016948433E+01 -0.68338671484E+02 -0.23516335056E+02  0.72540374518E+02  0.47000000000E+01 0. -1.
         -5    1    1    2    0  502  0.32728438314E+02  0.40505967498E+02  0.31291167673E+02  0.60935303821E+02  0.47000000000E+01 0. -1.
        -11    1    3    3    0    0  0.37254194804E+01 -0.11439109099E+02  0.26362384289E+02  0.28977703027E+02  0.00000000000E+00 0. -1.
         11    1    3    3    0    0 -0.40555552638E+02  0.39271813085E+02 -0.57143978132E+02  0.80327220725E+02  0.00000000000E+00 0.  1.
<mgrwt>
<rscale>  0 0.12550831E+03</rscale>
<asrwt>0</asrwt>
<pdfrwt beam="1">  1        2 0.16905680E-01 0.13324905E+03</pdfrwt>
<pdfrwt beam="2">  1       -2 0.20445182E-01 0.13324905E+03</pdfrwt>
<totfact> 0.64770821E+03</totfact>
</mgrwt>
</event>
<event>
 7    1  0.5107591E-006  0.1462560E+03  0.7546771E-02  0.1214828E+00
          1   -1    0    0  501    0  0.00000000000E+00  0.00000000000E+00  0.16299347826E+03  0.16299347826E+03  0.00000000000E+00 0. -1.
         -1   -1    0    0    0  501 -0.00000000000E+00 -0.00000000000E+00 -0.11673550327E+03  0.11673550327E+03  0.00000000000E+00 0.  1.
         23    2    1    2    0    0  0.53928827655E+02  0.53448463168E+02 -0.17405602181E+02  0.12021766809E+03  0.91565692623E+02 0.  0.
          5    1    1    2  502    0  0.30851402488E+02  0.15076955369E+02  0.33017586630E+01  0.34815445264E+02  0.47000000000E+01 0.  1.
         -5    1    1    2    0  502 -0.84780230142E+02 -0.68525418537E+02  0.60361818503E+02  0.12469586818E+03  0.47000000000E+01 0.  1.
        -11    1    3    3    0    0  0.27177764836E+02  0.31740225401E+02 -0.55099400813E+02  0.69152127805E+02  0.00000000000E+00 0.  1.
         11    1    3    3    0    0  0.26751062819E+02  0.21708237767E+02  0.37693798632E+02  0.51065540281E+02  0.00000000000E+00 0. -1.
<mgrwt>
<rscale>  0 0.13889199E+03</rscale>
<asrwt>0</asrwt>
<pdfrwt beam="1">  1        1 0.25075920E-01 0.14625597E+03</pdfrwt>
<pdfrwt beam="2">  1       -1 0.17959308E-01 0.14625597E+03</pdfrwt>
<totfact> 0.44090447E+03</totfact>
</mgrwt>
</event>
<event>
 7    1  0.5107591E-006  0.3404437E+03  0.7546771E-02  0.1067666E+00
         -1   -1    0    0    0  501 -0.00000000000E+00  0.00000000000E+00  0.17529280145E+03  0.17529280145E+03  0.00000000000E+00 0.  1.
          1   -1    0    0  501    0  0.00000000000E+00 -0.00000000000E+00 -0.66278093805E+03  0.66278093805E+03  0.00000000000E+00 0. -1.
         23    2    1    2    0    0  0.28977229761E+03 -0.12770762739E+03 -0.31397077223E+03  0.45596096773E+03  0.95108021302E+02 0.  0.
          5    1    1    2  502    0 -0.20757722525E+03  0.14624012464E+03 -0.14804695399E+03  0.29396338052E+03  0.47000000000E+01 0. -1.
         -5    1    1    2    0  502 -0.82195072360E+02 -0.18532497248E+02 -0.25470410375E+02  0.88149391258E+02  0.47000000000E+01 0. -1.
        -11    1    3    3    0    0  0.19750066232E+03 -0.13245020822E+03 -0.23654994410E+03  0.33541831394E+03  0.00000000000E+00 0.  1.
         11    1    3    3    0    0  0.92271635287E+02  0.47425808304E+01 -0.77420828136E+02  0.12054265378E+03  0.00000000000E+00 0. -1.
<mgrwt>
<rscale>  0 0.33796581E+03</rscale>
<asrwt>0</asrwt>
<pdfrwt beam="2">  1        1 0.10196630E+00 0.34044367E+03</pdfrwt>
<pdfrwt beam="1">  1       -1 0.26968123E-01 0.34044367E+03</pdfrwt>
<totfact> 0.37462737E+02</totfact>
</mgrwt>
</event>
<event>
 7    1  0.5107591E-006  0.1586483E+03  0.7546771E-02  0.1198008E+00
         -2   -1    0    0    0  501 -0.00000000000E+00  0.00000000000E+00  0.60795378043E+02  0.60795378043E+02  0.00000000000E+00 0.  1.
          2   -1    0    0  501    0  0.00000000000E+00 -0.00000000000E+00 -0.37967237882E+03  0.37967237882E+03  0.00000000000E+00 0. -1.
         23    2    1    2    0    0  0.10488090155E+02 -0.97123319619E+02 -0.20654391934E+03  0.24607639982E+03  0.91379782697E+02 0.  0.
          5    1    1    2  502    0  0.63546313149E+01  0.82401726395E+02 -0.31485511037E+01  0.82839780457E+02  0.47000000000E+01 0. -1.
         -5    1    1    2    0  502 -0.16842721470E+02  0.14721593224E+02 -0.10918453034E+03  0.11155157659E+03  0.47000000000E+01 0. -1.
        -11    1    3    3    0    0  0.40591070130E+02 -0.87602334090E+02 -0.12041164899E+03  0.15433978465E+03  0.00000000000E+00 0.  1.
         11    1    3    3    0    0 -0.30102979975E+02 -0.95209855287E+01 -0.86132270347E+02  0.91736615176E+02  0.00000000000E+00 0. -1.
<mgrwt>
<rscale>  0 0.15202414E+03</rscale>
<asrwt>0</asrwt>
<pdfrwt beam="2">  1        2 0.58411134E-01 0.15864829E+03</pdfrwt>
<pdfrwt beam="1">  1       -2 0.93531352E-02 0.15864829E+03</pdfrwt>
<totfact> 0.60328372E+03</totfact>
</mgrwt>
</event>
<event>
 7    1  0.5107591E-006  0.1431195E+03  0.7546771E-02  0.1219953E+00
         -3   -1    0    0    0  501 -0.00000000000E+00  0.00000000000E+00  0.13684455119E+04  0.13684455119E+04  0.00000000000E+00 0. -1.
          3   -1    0    0  501    0  0.00000000000E+00 -0.00000000000E+00 -0.39176161176E+02  0.39176161176E+02  0.00000000000E+00 0.  1.
         23    2    1    2    0    0 -0.38789993137E+02 -0.57911385562E+02  0.57135492198E+02  0.12746240458E+03  0.90132169430E+02 0.  0.
          5    1    1    2  502    0  0.84446627476E+01 -0.17018272169E+02  0.32889158298E+02  0.38271669027E+02  0.47000000000E+01 0. -1.
         -5    1    1    2    0  502  0.30345330389E+02  0.74929657730E+02  0.12392447003E+04  0.12418875995E+04  0.47000000000E+01 0. -1.
        -11    1    3    3    0    0  0.24324005050E+02 -0.76216131212E+00 -0.10135060096E+01  0.24357038120E+02  0.00000000000E+00 0.  1.
         11    1    3    3    0    0 -0.63113998186E+02 -0.57149224249E+02  0.58148998208E+02  0.10310536646E+03  0.00000000000E+00 0. -1.
<mgrwt>
<rscale>  0 0.13518942E+03</rscale>
<asrwt>0</asrwt>
<pdfrwt beam="2">  1        3 0.60271028E-02 0.14311953E+03</pdfrwt>
<pdfrwt beam="1">  1       -3 0.21053004E+00 0.14311953E+03</pdfrwt>
<totfact> 0.55797424E+01</totfact>
</mgrwt>
</event>
<event>
 7    1  0.5107591E-006  0.1312456E+03  0.7546771E-02  0.1239297E+00
          2   -1    0    0  501    0  0.00000000000E+00  0.00000000000E+00  0.14965611850E+03  0.14965611850E+03  0.00000000000E+00 0. -1.
         -2   -1    0    0    0  501 -0.00000000000E+00 -0.00000000000E+00 -0.90014833346E+02  0.90014833346E+02  0.00000000000E+00 0.  1.
         23    2    1    2    0    0  0.35590840114E+02  0.18322941373E+02  0.40552171146E+02  0.10704443714E+03  0.90617850657E+02 0.  0.
          5    1    1    2  502    0  0.23001066321E+02  0.13341212320E+02  0.51696221149E+02  0.58323462510E+02  0.47000000000E+01 0.  1.
         -5    1    1    2    0  502 -0.58591906434E+02 -0.31664153693E+02 -0.32607107144E+02  0.74303052192E+02  0.47000000000E+01 0.  1.
        -11    1    3    3    0    0  0.46520919215E+02  0.14856950358E+02  0.64258956466E+02  0.80710212394E+02  0.00000000000E+00 0. -1.
         11    1    3    3    0    0 -0.10930079101E+02  0.34659910151E+01 -0.23706785320E+02  0.26334224748E+02  0.00000000000E+00 0.  1.
<mgrwt>
<rscale>  0 0.12233322E+03</rscale>
<asrwt>0</asrwt>
<pdfrwt beam="1">  1        2 0.23024018E-01 0.13124556E+03</pdfrwt>
<pdfrwt beam="2">  1       -2 0.13848436E-01 0.13124556E+03</pdfrwt>
<totfact> 0.86921072E+03</totfact>
</mgrwt>
</event>
<event>
 7    1  0.5107591E-006  0.1284992E+03  0.7546771E-02  0.1242916E+00
          1   -1    0    0  501    0  0.00000000000E+00  0.00000000000E+00  0.41238724093E+03  0.41238724093E+03  0.00000000000E+00 0. -1.
         -1   -1    0    0    0  501 -0.00000000000E+00 -0.00000000000E+00 -0.31158302399E+02  0.31158302399E+02  0.00000000000E+00 0.  1.
         23    2    1    2    0    0  0.28728217601E+02  0.79165852133E+01  0.15781426641E+03  0.18581283297E+03  0.93450967932E+02 0.  0.
          5    1    1    2  502    0 -0.12429281678E+02 -0.66335213041E+02  0.11957061514E+03  0.13738293029E+03  0.47000000000E+01 0.  1.
         -5    1    1    2    0  502 -0.16298935923E+02  0.58418627828E+02  0.10384405698E+03  0.12034978006E+03  0.47000000000E+01 0.  1.
        -11    1    3    3    0    0  0.31978431098E+02 -0.37296865050E+02  0.56835700148E+02  0.75126380250E+02  0.00000000000E+00 0.  1.
         11    1    3    3    0    0 -0.32502134976E+01  0.45213450264E+02  0.10097856626E+03  0.11068645272E+03  0.00000000000E+00 0. -1.
<mgrwt>
<rscale>  0 0.12010971E+03</rscale>
<asrwt>0</asrwt>
<pdfrwt beam="1">  1        1 0.63444187E-01 0.12849916E+03</pdfrwt>
<pdfrwt beam="2">  1       -1 0.47935853E-02 0.12849916E+03</pdfrwt>
<totfact> 0.10321183E+04</totfact>
</mgrwt>
</event>
<event>
 7    1  0.5107591E-006  0.1328445E+03  0.7546771E-02  0.1238037E+00
          2   -1    0    0  501    0  0.00000000000E+00  0.00000000000E+00  0.15211360998E+03  0.15211360998E+03  0.00000000000E+00 0. -1.
         -2   -1    0    0    0  501 -0.00000000000E+00 -0.00000000000E+00 -0.89005528137E+02  0.89005528137E+02  0.00000000000E+00 0.  1.
         23    2    1    2    0    0  0.42164537854E+02 -0.15612245493E+02  0.41893307148E+02  0.10659132191E+03  0.87092308847E+02 0.  0.
          5    1    1    2  502    0  0.35073855195E+02  0.22509172437E+02  0.36206972773E+02  0.55406435000E+02  0.47000000000E+01 0.  1.
         -5    1    1    2    0  502 -0.77238393049E+02 -0.68969269440E+01 -0.14992198075E+02  0.79121381214E+02  0.47000000000E+01 0.  1.
        -11    1    3    3    0    0  0.15878648920E+02  0.23377242303E+02 -0.15629913339E+02  0.32294289591E+02  0.00000000000E+00 0.  1.
         11    1    3    3    0    0  0.26285888934E+02 -0.38989487796E+02  0.57523220487E+02  0.74297032315E+02  0.00000000000E+00 0. -1.
<mgrwt>
<rscale>  0 0.12312019E+03</rscale>
<asrwt>0</asrwt>
<pdfrwt beam="1">  1        2 0.23402094E-01 0.13284452E+03</pdfrwt>
<pdfrwt beam="2">  1       -2 0.13693158E-01 0.13284452E+03</pdfrwt>
<totfact> 0.87016595E+03</totfact>
</mgrwt>
</event>
<event>
 7    1  0.5107591E-006  0.2525108E+03  0.7546771E-02  0.1113653E+00
         -4   -1    0    0    0  501 -0.00000000000E+00  0.00000000000E+00  0.31073013306E+03  0.31073013306E+03  0.00000000000E+00 0.  1.
          4   -1    0    0  501    0  0.00000000000E+00 -0.00000000000E+00 -0.19793052242E+03  0.19793052242E+03  0.00000000000E+00 0. -1.
         23    2    1    2    0    0  0.16976733153E+02 -0.21874142631E+03  0.27118917749E+02  0.24200937824E+03  0.98473765055E+02 0.  0.
          5    1    1    2  502    0 -0.51212292474E+02  0.20880569958E+03  0.83301357657E+02  0.23061596923E+03  0.47000000000E+01 0. -1.
         -5    1    1    2    0  502  0.34235559321E+02  0.99357267260E+01  0.23793352302E+01  0.36035308015E+02  0.47000000000E+01 0. -1.
        -11    1    3    3    0    0 -0.24330340575E+02 -0.45509660451E+02  0.37231547925E+02  0.63633975420E+02  0.00000000000E+00 0.  1.
         11    1    3    3    0    0  0.41307073729E+02 -0.17323176586E+03 -0.10112630176E+02  0.17837540282E+03  0.00000000000E+00 0. -1.
<mgrwt>
<rscale>  0 0.24944918E+03</rscale>
<asrwt>0</asrwt>
<pdfrwt beam="2">  1        4 0.30450850E-01 0.25251084E+03</pdfrwt>
<pdfrwt beam="1">  1       -4 0.47804636E-01 0.25251084E+03</pdfrwt>
<totfact> 0.80341457E+01</totfact>
</mgrwt>
</event>
<event>
 7    1  0.5107591E-006  0.1268754E+03  0.7546771E-02  0.1246773E+00
         -2   -1    0    0    0  501 -0.00000000000E+00  0.00000000000E+00  0.26047259634E+02  0.26047259634E+02  0.00000000000E+00 0.  1.
          2   -1    0    0  501    0  0.00000000000E+00 -0.00000000000E+00 -0.66697598613E+03  0.66697598613E+03  0.00000000000E+00 0. -1.
         23    2    1    2    0    0 -0.20067330895E+02  0.83845578636E+01 -0.47435117293E+03  0.48363017021E+03  0.91739346517E+02 0.  0.
          5    1    1    2  502    0  0.71668494643E+02  0.85912782121E+01 -0.93320391287E+02  0.11807187902E+03  0.47000000000E+01 0. -1.
         -5    1    1    2    0  502 -0.51601163748E+02 -0.16975836076E+02 -0.73257162282E+02  0.91321196533E+02  0.47000000000E+01 0. -1.
        -11    1    3    3    0    0  0.33971744575E+02 -0.12401626670E+02 -0.19863776604E+03  0.20190305067E+03  0.00000000000E+00 0. -1.
         11    1    3    3    0    0 -0.54039075470E+02  0.20786184534E+02 -0.27571340689E+03  0.28172711954E+03  0.00000000000E+00 0.  1.
<mgrwt>
<rscale>  0 0.11779869E+03</rscale>
<asrwt>0</asrwt>
<pdfrwt beam="2">  1        2 0.10261168E+00 0.12687545E+03</pdfrwt>
<pdfrwt beam="1">  1       -2 0.40072710E-02 0.12687545E+03</pdfrwt>
<totfact> 0.11580690E+04</totfact>
</mgrwt>
</event>
<event>
 7    1  0.5107591E-006  0.1983748E+03  0.7546771E-02  0.1155551E+00
          2   -1    0    0  501    0  0.00000000000E+00  0.00000000000E+00  0.78414203222E+03  0.78414203222E+03  0.00000000000E+00 0. -1.
         -2   -1    0    0    0  501 -0.00000000000E+00 -0.00000000000E+00 -0.50139817513E+02  0.50139817513E+02  0.00000000000E+00 0.  1.
         23    2    1    2    0    0  0.97870681629E+02 -0.11898686209E+03  0.47870100195E+03  0.51096889641E+03  0.90542918884E+02 0.  0.
          5    1    1    2  502    0  0.18835868282E+02  0.81433997565E+01  0.90452861312E+02  0.92870420550E+02  0.47000000000E+01 0.  1.
         -5    1    1    2    0  502 -0.11670654991E+03  0.11084346234E+03  0.16484835144E+03  0.23044253277E+03  0.47000000000E+01 0.  1.
        -11    1    3    3    0    0 -0.47166172688E+01 -0.52177451698E+02  0.98825009593E+02  0.11185309770E+03  0.00000000000E+00 0. -1.
         11    1    3    3    0    0  0.10258729890E+03 -0.66809410395E+02  0.37987599236E+03  0.39911579871E+03  0.00000000000E+00 0.  1.
<mgrwt>
<rscale>  0 0.19326245E+03</rscale>
<asrwt>0</asrwt>
<pdfrwt beam="1">  1        2 0.12063723E+00 0.19837479E+03</pdfrwt>
<pdfrwt beam="2">  1       -2 0.77138186E-02 0.19837479E+03</pdfrwt>
<totfact> 0.36044314E+03</totfact>
</mgrwt>
</event>
<event>
 6    1  0.5107591E-006  0.3738281E+03  0.7546771E-02  0.1053239E+00
          2   -1    0    0  501    0  0.00000000000E+00  0.00000000000E+00  0.23295282865E+03  0.23295282865E+03  0.00000000000E+00 0. -1.
         -2   -1    0    0    0  501 -0.00000000000E+00 -0.00000000000E+00 -0.14997401045E+03  0.14997401045E+03  0.00000000000E+00 0.  1.
          5    1    1    2  502    0 -0.27379776569E+01  0.28893188006E+02  0.21724463902E+02  0.36556191905E+02  0.47000000000E+01 0. -1.
         -5    1    1    2    0  502  0.14794367421E+02 -0.64417412669E+02 -0.10670633175E+03  0.12560576260E+03  0.47000000000E+01 0.  1.
        -11    1    1    2    0    0 -0.11098386423E+02 -0.34126061971E+02  0.14194089887E+03  0.14640690236E+03  0.00000000000E+00 0.  1.
         11    1    1    2    0    0 -0.95800334102E+00  0.69650286634E+02  0.26019787176E+02  0.74357982243E+02  0.00000000000E+00 0. -1.
<mgrwt>
<rscale>  0 0.37382814E+03</rscale>
<asrwt>0</asrwt>
<pdfrwt beam="1">  1        2 0.35838897E-01 0.37382814E+03</pdfrwt>
<pdfrwt beam="2">  1       -2 0.23072925E-01 0.37382814E+03</pdfrwt>
<totfact> 0.23742249E+03</totfact>
</mgrwt>
</event>
<event>
 7    1  0.5107591E-006  0.1417511E+03  0.7546771E-02  0.1219625E+00
         -3   -1    0    0    0  501 -0.00000000000E+00  0.00000000000E+00  0.18009174373E+03  0.18009174373E+03  0.00000000000E+00 0.  1.
          3   -1    0    0  501    0  0.00000000000E+00 -0.00000000000E+00 -0.15998151340E+03  0.15998151340E+03  0.00000000000E+00 0. -1.
         23    2    1    2    0    0 -0.54773248703E+02  0.40060684983E+02 -0.99645181898E+02  0.15450731098E+03  0.96635291768E+02 0.  0.
          5    1    1    2  502    0  0.19579284534E+02  0.43462948688E+02  0.23794783559E+02  0.53485119576E+02  0.47000000000E+01 0. -1.
         -5    1    1    2    0  502  0.35193964169E+02 -0.83523633671E+02  0.95960628668E+02  0.13208082658E+03  0.47000000000E+01 0.  1.
        -11    1    3    3    0    0 -0.61380313473E+02  0.55702633482E+02 -0.10754445018E+03  0.13577972979E+03  0.00000000000E+00 0. -1.
         11    1    3    3    0    0  0.66070647700E+01 -0.15641948499E+02  0.78992682769E+01  0.18727581185E+02  0.00000000000E+00 0.  1.
<mgrwt>
<rscale>  0 0.13542243E+03</rscale>
<asrwt>0</asrwt>
<pdfrwt beam="2">  1        3 0.24612541E-01 0.14175106E+03</pdfrwt>
<pdfrwt beam="1">  1       -3 0.27706422E-01 0.14175106E+03</pdfrwt>
<totfact> 0.44920952E+02</totfact>
</mgrwt>
</event>
<event>
 7    1  0.5107591E-006  0.2049507E+03  0.7546771E-02  0.1150015E+00
          2   -1    0    0  501    0  0.00000000000E+00  0.00000000000E+00  0.13338313898E+04  0.13338313898E+04  0.00000000000E+00 0. -1.
         -2   -1    0    0    0  501 -0.00000000000E+00 -0.00000000000E+00 -0.38023671846E+02  0.38023671846E+02  0.00000000000E+00 0.  1.
         23    2    1    2    0    0  0.61227702193E+02  0.15042868035E+03  0.96649560363E+03  0.98397459456E+03  0.87832975138E+02 0.  0.
          5    1    1    2  502    0 -0.30812489713E+02 -0.16705202103E+03  0.27028382138E+03  0.31926669315E+03  0.47000000000E+01 0.  1.
         -5    1    1    2    0  502 -0.30415212481E+02  0.16623340688E+02  0.59028292942E+02  0.68613773935E+02  0.47000000000E+01 0.  1.
        -11    1    3    3    0    0  0.52915389269E+02  0.25513025729E+02  0.26995348190E+03  0.27627130741E+03  0.00000000000E+00 0. -1.
         11    1    3    3    0    0  0.83123129248E+01  0.12491565462E+03  0.69654212172E+03  0.70770328716E+03  0.00000000000E+00 0.  1.
<mgrwt>
<rscale>  0 0.19967285E+03</rscale>
<asrwt>0</asrwt>
<pdfrwt beam="1">  1        2 0.20520479E+00 0.20495070E+03</pdfrwt>
<pdfrwt beam="2">  1       -2 0.58497967E-02 0.20495070E+03</pdfrwt>
<totfact> 0.25821122E+03</totfact>
</mgrwt>
</event>
<event>
 7    1  0.5107591E-006  0.1388337E+03  0.7546771E-02  0.1226774E+00
         -2   -1    0    0    0  501 -0.00000000000E+00  0.00000000000E+00  0.56617426793E+02  0.56617426793E+02  0.00000000000E+00 0.  1.
          2   -1    0    0  501    0  0.00000000000E+00 -0.00000000000E+00 -0.27569820981E+03  0.27569820981E+03  0.00000000000E+00 0. -1.
         23    2    1    2    0    0  0.17107469651E+02  0.57939013843E+02 -0.12085563893E+03  0.16224804028E+03  0.89826200363E+02 0.  0.
          5    1    1    2  502    0  0.48333857487E+02 -0.31955464977E+02 -0.76797212485E+02  0.96318302347E+02  0.47000000000E+01 0.  1.
         -5    1    1    2    0  502 -0.65441327137E+02 -0.25983548866E+02 -0.21427931606E+02  0.73749293977E+02  0.47000000000E+01 0.  1.
        -11    1    3    3    0    0 -0.13027530569E+02  0.48508706394E+02 -0.12063226402E+03  0.13067116848E+03  0.00000000000E+00 0. -1.
         11    1    3    3    0    0  0.30135000220E+02  0.94303074485E+01 -0.22337491238E+00  0.31576871808E+02  0.00000000000E+00 0.  1.
<mgrwt>
<rscale>  0 0.13046065E+03</rscale>
<asrwt>0</asrwt>
<pdfrwt beam="2">  1        2 0.42415108E-01 0.13883374E+03</pdfrwt>
<pdfrwt beam="1">  1       -2 0.87103735E-02 0.13883374E+03</pdfrwt>
<totfact> 0.93963430E+03</totfact>
</mgrwt>
</event>
<event>
 7    1  0.5107591E-006  0.1617536E+03  0.7546771E-02  0.1194141E+00
          1   -1    0    0  501    0  0.00000000000E+00  0.00000000000E+00  0.74897038342E+02  0.74897038342E+02  0.00000000000E+00 0. -1.
         -1   -1    0    0    0  501 -0.00000000000E+00 -0.00000000000E+00 -0.33443696715E+03  0.33443696715E+03  0.00000000000E+00 0.  1.
         23    2    1    2    0    0 -0.73988427478E+02 -0.71143389165E+02 -0.53521696861E+02  0.14740321472E+03  0.91254953028E+02 0.  0.
          5    1    1    2  502    0  0.87923990675E+02  0.21841357194E+02 -0.18558867365E+03  0.20657424526E+03  0.47000000000E+01 0. -1.
         -5    1    1    2    0  502 -0.13935563197E+02  0.49302031971E+02 -0.20429558297E+02  0.55356545506E+02  0.47000000000E+01 0. -1.
        -11    1    3    3    0    0 -0.38796684604E+02 -0.87726888170E+02 -0.24889756126E+02  0.99099392552E+02  0.00000000000E+00 0. -1.
         11    1    3    3    0    0 -0.35191742874E+02  0.16583499004E+02 -0.28631940736E+02  0.48303822168E+02  0.00000000000E+00 0.  1.
<mgrwt>
<rscale>  0 0.15527166E+03</rscale>
<asrwt>0</asrwt>
<pdfrwt beam="1">  1        1 0.11522621E-01 0.16175360E+03</pdfrwt>
<pdfrwt beam="2">  1       -1 0.51451841E-01 0.16175360E+03</pdfrwt>
<totfact> 0.20213233E+03</totfact>
</mgrwt>
</event>
<event>
 7    1  0.5107591E-006  0.1975296E+03  0.7546771E-02  0.1156096E+00
         -2   -1    0    0    0  501 -0.00000000000E+00  0.00000000000E+00  0.11492602403E+03  0.11492602403E+03  0.00000000000E+00 0.  1.
          2   -1    0    0  501    0  0.00000000000E+00 -0.00000000000E+00 -0.31637760978E+03  0.31637760978E+03  0.00000000000E+00 0. -1.
         23    2    1    2    0    0 -0.72683380297E+02  0.13497630285E+03 -0.13102335780E+03  0.22159416543E+03  0.91844312619E+02 0.  0.
          5    1    1    2  502    0 -0.32438356113E+02 -0.57249929801E+02 -0.15131204677E+02  0.67681938244E+02  0.47000000000E+01 0. -1.
         -5    1    1    2    0  502  0.10512173641E+03 -0.77726373054E+02 -0.55297023275E+02  0.14202753014E+03  0.47000000000E+01 0. -1.
        -11    1    3    3    0    0 -0.41261216394E+02  0.85814939276E+02 -0.13257713442E+03  0.16322802563E+03  0.00000000000E+00 0. -1.
         11    1    3    3    0    0 -0.31422163902E+02  0.49161363579E+02  0.15537766193E+01  0.58366139799E+02  0.00000000000E+00 0.  1.
<mgrwt>
<rscale>  0 0.19264626E+03</rscale>
<asrwt>0</asrwt>
<pdfrwt beam="2">  1        2 0.48673478E-01 0.19752956E+03</pdfrwt>
<pdfrwt beam="1">  1       -2 0.17680927E-01 0.19752956E+03</pdfrwt>
<totfact> 0.26410696E+03</totfact>
</mgrwt>
</event>
<event>
 7    1  0.5107591E-006  0.1634627E+03  0.7546771E-02  0.1192067E+00
          2   -1    0    0  501    0  0.00000000000E+00  0.00000000000E+00  0.14934153810E+02  0.14934153810E+02  0.00000000000E+00 0. -1.
         -2   -1    0    0    0  501 -0.00000000000E+00 -0.00000000000E+00 -0.15801287023E+04  0.15801287023E+04  0.00000000000E+00 0.  1.
         23    2    1    2    0    0  0.15552264255E+01 -0.10531915620E+03 -0.58655397695E+03  0.60286457093E+03  0.91134952748E+02 0.  0.
          5    1    1    2  502    0  0.38573165089E+02  0.95733042869E+00 -0.11623580804E+03  0.12256287618E+03  0.47000000000E+01 0.  1.
         -5    1    1    2    0  502 -0.40128391515E+02  0.10436182577E+03 -0.86240476349E+03  0.86963540899E+03  0.47000000000E+01 0.  1.
        -11    1    3    3    0    0 -0.88441558431E+01 -0.11959106654E+03 -0.53790417810E+03  0.55110901563E+03  0.00000000000E+00 0.  1.
         11    1    3    3    0    0  0.10399382269E+02  0.14271910339E+02 -0.48649798850E+02  0.51755555300E+02  0.00000000000E+00 0. -1.
<mgrwt>
<rscale>  0 0.15705062E+03</rscale>
<asrwt>0</asrwt>
<pdfrwt beam="1">  1        2 0.22975616E-02 0.16346274E+03</pdfrwt>
<pdfrwt beam="2">  1       -2 0.24309678E+00 0.16346274E+03</pdfrwt>
<totfact> 0.35280022E+02</totfact>
</mgrwt>
</event>
<event>
 7    1  0.5107591E-006  0.1864323E+03  0.7546771E-02  0.1167675E+00
         -4   -1    0    0    0  501 -0.00000000000E+00  0.00000000000E+00  0.20519641367E+03  0.20519641367E+03  0.00000000000E+00 0.  1.
          4   -1    0    0  501    0  0.00000000000E+00 -0.00000000000E+00 -0.36415901139E+03  0.36415901139E+03  0.00000000000E+00 0. -1.
         23    2    1    2    0    0  0.13495885016E+03  0.30281569360E+02 -0.29621381000E+03  0.33784968667E+03  0.85257990064E+02 0.  0.
          5    1    1    2  502    0 -0.92407033012E+02 -0.45105085436E+02  0.18735684629E+02  0.10462621259E+03  0.47000000000E+01 0. -1.
         -5    1    1    2    0  502 -0.42551817151E+02  0.14823516077E+02  0.11851552765E+03  0.12687952580E+03  0.47000000000E+01 0. -1.
        -11    1    3    3    0    0  0.11046835248E+03 -0.11758190358E+02 -0.23255693744E+03  0.25772900708E+03  0.00000000000E+00 0.  1.
         11    1    3    3    0    0  0.24490497681E+02  0.42039759717E+02 -0.63656872560E+02  0.80120679589E+02  0.00000000000E+00 0. -1.
<mgrwt>
<rscale>  0 0.18013204E+03</rscale>
<asrwt>0</asrwt>
<pdfrwt beam="2">  1        4 0.56024464E-01 0.18643232E+03</pdfrwt>
<pdfrwt beam="1">  1       -4 0.31568679E-01 0.18643232E+03</pdfrwt>
<totfact> 0.52044636E+01</totfact>
</mgrwt>
</event>
<event>
 7    1  0.5107591E-006  0.1507645E+03  0.7546771E-02  0.1209066E+00
          4   -1    0    0  501    0  0.00000000000E+00  0.00000000000E+00  0.84185772064E+02  0.84185772064E+02  0.00000000000E+00 0. -1.
         -4   -1    0    0    0  501 -0.00000000000E+00 -0.00000000000E+00 -0.23196482748E+03  0.23196482748E+03  0.00000000000E+00 0.  1.
         23    2    1    2    0    0  0.13152881763E+02 -0.83258345060E+02 -0.34339872015E+02  0.12747527477E+03  0.89251154321E+02 0.  0.
          5    1    1    2  502    0  0.17413553926E+02  0.67877261719E+02 -0.13195813675E+03  0.14948442853E+03  0.47000000000E+01 0. -1.
         -5    1    1    2    0  502 -0.30566435689E+02  0.15381083341E+02  0.18518953344E+02  0.39190896244E+02  0.47000000000E+01 0. -1.
        -11    1    3    3    0    0 -0.10794270026E+02 -0.47014404190E+02  0.24685874486E+02  0.54187294321E+02  0.00000000000E+00 0. -1.
         11    1    3    3    0    0  0.23947151789E+02 -0.36243940870E+02 -0.59025746501E+02  0.73287980451E+02  0.00000000000E+00 0.  1.
<mgrwt>
<rscale>  0 0.14321583E+03</rscale>
<asrwt>0</asrwt>
<pdfrwt beam="1">  1        4 0.12951657E-01 0.15076448E+03</pdfrwt>
<pdfrwt beam="2">  1       -4 0.35686896E-01 0.15076448E+03</pdfrwt>
<totfact> 0.62678973E+02</totfact>
</mgrwt>
</event>
<event>
 7    1  0.5107591E-006  0.1214545E+03  0.7546771E-02  0.1255184E+00
         -1   -1    0    0    0  501 -0.00000000000E+00  0.00000000000E+00  0.57874232639E+02  0.57874232639E+02  0.00000000000E+00 0.  1.
          1   -1    0    0  501    0  0.00000000000E+00 -0.00000000000E+00 -0.26287608851E+03  0.26287608851E+03  0.00000000000E+00 0. -1.
         23    2    1    2    0    0 -0.77974677224E+01  0.73527060662E+01 -0.17257569386E+03  0.19504171371E+03  0.90244319401E+02 0.  0.
          5    1    1    2  502    0  0.31579999153E+02  0.35471841402E+02 -0.53921942361E+02  0.72008428305E+02  0.47000000000E+01 0. -1.
         -5    1    1    2    0  502 -0.23782531431E+02 -0.42824547468E+02  0.21495780349E+02  0.53700179142E+02  0.47000000000E+01 0.  1.
        -11    1    3    3    0    0 -0.18608510067E+02 -0.32628849319E+02 -0.34907275556E+02  0.51278029814E+02  0.00000000000E+00 0.  1.
         11    1    3    3    0    0  0.10811042344E+02  0.39981555385E+02 -0.13766841831E+03  0.14376368389E+03  0.00000000000E+00 0. -1.
<mgrwt>
<rscale>  0 0.11296022E+03</rscale>
<asrwt>0</asrwt>
<pdfrwt beam="2">  1        1 0.40442474E-01 0.12145451E+03</pdfrwt>
<pdfrwt beam="1">  1       -1 0.89037283E-02 0.12145451E+03</pdfrwt>
<totfact> 0.71361070E+03</totfact>
</mgrwt>
</event>
<event>
 7    1  0.5107591E-006  0.1349178E+03  0.7546771E-02  0.1232560E+00
          2   -1    0    0  501    0  0.00000000000E+00  0.00000000000E+00  0.48844566039E+02  0.48844566039E+02  0.00000000000E+00 0. -1.
         -2   -1    0    0    0  501 -0.00000000000E+00 -0.00000000000E+00 -0.33590214756E+03  0.33590214756E+03  0.00000000000E+00 0.  1.
         23    2    1    2    0    0  0.28093305120E+02  0.42294958779E+02 -0.60034158562E+02  0.12065873899E+03  0.91522312957E+02 0.  0.
          5    1    1    2  502    0  0.10357046887E+02 -0.72816649037E+02 -0.18555045854E+03  0.19965118448E+03  0.47000000000E+01 0.  1.
         -5    1    1    2    0  502 -0.38450352008E+02  0.30521690258E+02 -0.41472964419E+02  0.64436790139E+02  0.47000000000E+01 0.  1.
        -11    1    3    3    0    0  0.13171011177E+02  0.70807253460E+02 -0.46620197963E+02  0.85793854885E+02  0.00000000000E+00 0. -1.
         11    1    3    3    0    0  0.14922293943E+02 -0.28512294681E+02 -0.13413960599E+02  0.34864884102E+02  0.00000000000E+00 0.  1.
<mgrwt>
<rscale>  0 0.12661955E+03</rscale>
<asrwt>0</asrwt>
<pdfrwt beam="1">  1        2 0.75145486E-02 0.13491784E+03</pdfrwt>
<pdfrwt beam="2">  1       -2 0.51677253E-01 0.13491784E+03</pdfrwt>
<totfact> 0.31692389E+03</totfact>
</mgrwt>
</event>
<event>
 7    1  0.5107591E-006  0.1501275E+03  0.7546771E-02  0.1207970E+00
          1   -1    0    0  501    0  0.00000000000E+00  0.00000000000E+00  0.90739334566E+02  0.90739334566E+02  0.00000000000E+00 0. -1.
         -1   -1    0    0    0  501 -0.00000000000E+00 -0.00000000000E+00 -0.21243813222E+03  0.21243813222E+03  0.00000000000E+00 0.  1.
         23    2    1    2    0    0  0.69404546815E+02  0.45780332287E+02 -0.62489123057E+02  0.14179575096E+03  0.96375902314E+02 0.  0.
          5    1    1    2  502    0  0.70625954225E+00 -0.68527640910E+02 -0.33417277957E+01  0.68773494283E+02  0.47000000000E+01 0. -1.
         -5    1    1    2    0  502 -0.70110806358E+02  0.22747308623E+02 -0.55867946802E+02  0.92608221545E+02  0.47000000000E+01 0. -1.
        -11    1    3    3    0    0  0.47368519169E+02 -0.25057503340E+00  0.14401771441E+02  0.49510104189E+02  0.00000000000E+00 0. -1.
         11    1    3    3    0    0  0.22036027646E+02  0.46030907320E+02 -0.76890894498E+02  0.92285646770E+02  0.00000000000E+00 0.  1.
<mgrwt>
<rscale>  0 0.14405835E+03</rscale>
<asrwt>0</asrwt>
<pdfrwt beam="1">  1        1 0.13959898E-01 0.15012752E+03</pdfrwt>
<pdfrwt beam="2">  1       -1 0.32682789E-01 0.15012752E+03</pdfrwt>
<totfact> 0.34936958E+03</totfact>
</mgrwt>
</event>
<event>
 7    1  0.5107591E-006  0.1991148E+03  0.7546771E-02  0.1154813E+00
         -2   -1    0    0    0  501 -0.00000000000E+00  0.00000000000E+00  0.54471698748E+02  0.54471698748E+02  0.00000000000E+00 0.  1.
          2   -1    0    0  501    0  0.00000000000E+00 -0.00000000000E+00 -0.69675523672E+03  0.69675523672E+03  0.00000000000E+00 0. -1.
         23    2    1    2    0    0 -0.88264452703E+02 -0.12740477313E+03 -0.39302727030E+03  0.43220435699E+03  0.91145933390E+02 0.  0.
          5    1    1    2  502    0  0.58694792689E+02 -0.46909345114E+00 -0.37389275819E+02  0.69752037130E+02  0.47000000000E+01 0.  1.
         -5    1    1    2    0  502  0.29569660014E+02  0.12787386658E+03 -0.21186699185E+03  0.24927054135E+03  0.47000000000E+01 0.  1.
        -11    1    3    3    0    0 -0.35878438336E+02 -0.11204034834E+03 -0.20442560934E+03  0.23586040733E+03  0.00000000000E+00 0.  1.
         11    1    3    3    0    0 -0.52386014367E+02 -0.15364424796E+02 -0.18860166095E+03  0.19634394965E+03  0.00000000000E+00 0. -1.
<mgrwt>
<rscale>  0 0.19410142E+03</rscale>
<asrwt>0</asrwt>
<pdfrwt beam="2">  1        2 0.10719310E+00 0.19911484E+03</pdfrwt>
<pdfrwt beam="1">  1       -2 0.83802621E-02 0.19911484E+03</pdfrwt>
<totfact> 0.36625489E+03</totfact>
</mgrwt>
</event>
<event>
 7    1  0.5107591E-006  0.1714936E+03  0.7546771E-02  0.1182752E+00
         -4   -1    0    0    0  501 -0.00000000000E+00  0.00000000000E+00  0.28290235246E+02  0.28290235246E+02  0.00000000000E+00 0. -1.
          4   -1    0    0  501    0  0.00000000000E+00 -0.00000000000E+00 -0.90718863329E+03  0.90718863329E+03  0.00000000000E+00 0.  1.
         23    2    1    2    0    0 -0.40768613893E+01  0.11735153636E+03 -0.43604520178E+03  0.46057993172E+03  0.90611542462E+02 0.  0.
          5    1    1    2  502    0  0.90192323077E+01 -0.30148211730E+02 -0.33280831941E+03  0.33432578227E+03  0.47000000000E+01 0.  1.
         -5    1    1    2    0  502 -0.49423709184E+01 -0.87203324628E+02 -0.11004487686E+03  0.14057315455E+03  0.47000000000E+01 0.  1.
        -11    1    3    3    0    0  0.38304396071E+02  0.41574336233E+02 -0.23282333001E+03  0.23958788614E+03  0.00000000000E+00 0.  1.
         11    1    3    3    0    0 -0.42381257460E+02  0.75777200125E+02 -0.20322187177E+03  0.22099204558E+03  0.00000000000E+00 0. -1.
<mgrwt>
<rscale>  0 0.16538073E+03</rscale>
<asrwt>0</asrwt>
<pdfrwt beam="2">  1        4 0.13956748E+00 0.17149358E+03</pdfrwt>
<pdfrwt beam="1">  1       -4 0.43523439E-02 0.17149358E+03</pdfrwt>
<totfact> 0.19840607E+02</totfact>
</mgrwt>
</event>
<event>
 7    1  0.5107591E-006  0.1936058E+03  0.7546771E-02  0.1159901E+00
         -1   -1    0    0    0  501 -0.00000000000E+00  0.00000000000E+00  0.55456913590E+02  0.55456913590E+02  0.00000000000E+00 0.  1.
          1   -1    0    0  501    0  0.00000000000E+00 -0.00000000000E+00 -0.68164095649E+03  0.68164095649E+03  0.00000000000E+00 0. -1.
         23    2    1    2    0    0  0.14068750643E+03 -0.45434294230E+02 -0.41886226149E+03  0.45343342915E+03  0.91099017612E+02 0.  0.
          5    1    1    2  502    0 -0.59200859871E+02 -0.11826716690E+02 -0.83723596058E+01  0.61129366450E+02  0.47000000000E+01 0.  1.
         -5    1    1    2    0  502 -0.81486646558E+02  0.57261010920E+02 -0.19894942180E+03  0.22253507448E+03  0.47000000000E+01 0.  1.
        -11    1    3    3    0    0  0.85584237562E+02 -0.72106559083E+02 -0.25351991815E+03  0.27712157347E+03  0.00000000000E+00 0.  1.
         11    1    3    3    0    0  0.55103268868E+02  0.26672264853E+02 -0.16534234334E+03  0.17631185568E+03  0.00000000000E+00 0. -1.
<mgrwt>
<rscale>  0 0.18841303E+03</rscale>
<asrwt>0</asrwt>
<pdfrwt beam="2">  1        1 0.10486784E+00 0.19360577E+03</pdfrwt>
<pdfrwt beam="1">  1       -1 0.85318330E-02 0.19360577E+03</pdfrwt>
<totfact> 0.22672107E+03</totfact>
</mgrwt>
</event>
<event>
 7    1  0.5107591E-006  0.1401445E+03  0.7546771E-02  0.1225009E+00
          2   -1    0    0  501    0  0.00000000000E+00  0.00000000000E+00  0.72798675125E+02  0.72798675125E+02  0.00000000000E+00 0. -1.
         -2   -1    0    0    0  501 -0.00000000000E+00 -0.00000000000E+00 -0.21346660705E+03  0.21346660705E+03  0.00000000000E+00 0.  1.
         23    2    1    2    0    0  0.57034177754E+02  0.27616376892E+02 -0.61302330010E+02  0.12520821517E+03  0.88901967227E+02 0.  0.
          5    1    1    2  502    0 -0.13452615482E+02 -0.72485616161E+02 -0.60698205193E+02  0.95611189341E+02  0.47000000000E+01 0. -1.
         -5    1    1    2    0  502 -0.43581562273E+02  0.44869239269E+02 -0.18667396721E+02  0.65445877662E+02  0.47000000000E+01 0. -1.
        -11    1    3    3    0    0  0.44508451479E+02 -0.15284432841E+02 -0.65130073756E+02  0.80352614443E+02  0.00000000000E+00 0.  1.
         11    1    3    3    0    0  0.12525726275E+02  0.42900809733E+02  0.38277437460E+01  0.44855600728E+02  0.00000000000E+00 0. -1.
<mgrwt>
<rscale>  0 0.13166264E+03</rscale>
<asrwt>0</asrwt>
<pdfrwt beam="1">  1        2 0.11199796E-01 0.14014450E+03</pdfrwt>
<pdfrwt beam="2">  1       -2 0.32841016E-01 0.14014450E+03</pdfrwt>
<totfact> 0.45977600E+03</totfact>
</mgrwt>
</event>
<event>
 7    1  0.5107591E-006  0.1524108E+03  0.7546771E-02  0.1207171E+00
         -2   -1    0    0    0  501 -0.00000000000E+00  0.00000000000E+00  0.18560101860E+03  0.18560101860E+03  0.00000000000E+00 0. -1.
          2   -1    0    0  501    0  0.00000000000E+00 -0.00000000000E+00 -0.11031697763E+03  0.11031697763E+03  0.00000000000E+00 0.  1.
         23    2    1    2    0    0  0.82678890349E+02 -0.27723877693E+02 -0.46070590215E+01  0.12383770591E+03  0.87807403501E+02 0.  0.
          5    1    1    2  502    0 -0.46096382832E+02  0.18802897080E+02 -0.28278842874E+02  0.57447440352E+02  0.47000000000E+01 0. -1.
         -5    1    1    2    0  502 -0.36582507518E+02  0.89209806130E+01  0.10816994286E+03  0.11463284996E+03  0.47000000000E+01 0. -1.
        -11    1    3    3    0    0  0.71316120524E+02 -0.16015283269E+02 -0.41105930186E+02  0.83858069625E+02  0.00000000000E+00 0.  1.
         11    1    3    3    0    0  0.11362769826E+02 -0.11708594424E+02  0.36498871165E+02  0.39979636289E+02  0.00000000000E+00 0. -1.
<mgrwt>
<rscale>  0 0.14467709E+03</rscale>
<asrwt>0</asrwt>
<pdfrwt beam="2">  1        2 0.16971843E-01 0.15241076E+03</pdfrwt>
<pdfrwt beam="1">  1       -2 0.28554003E-01 0.15241076E+03</pdfrwt>
<totfact> 0.36362014E+03</totfact>
</mgrwt>
</event>
<event>
 7    1  0.5107591E-006  0.1255620E+03  0.7546771E-02  0.1249753E+00
          2   -1    0    0  501    0  0.00000000000E+00  0.00000000000E+00  0.12913643105E+03  0.12913643105E+03  0.00000000000E+00 0. -1.
         -2   -1    0    0    0  501 -0.00000000000E+00 -0.00000000000E+00 -0.12153648163E+03  0.12153648163E+03  0.00000000000E+00 0.  1.
         23    2    1    2    0    0  0.11903884729E+02  0.37431663997E+00  0.65267053240E+02  0.11250161638E+03  0.90856936246E+02 0.  0.
          5    1    1    2  502    0 -0.19487727193E+02  0.56243197000E+02 -0.54379812136E+02  0.80760898261E+02  0.47000000000E+01 0.  1.
         -5    1    1    2    0  502  0.75838424645E+01 -0.56617513640E+02 -0.32872916843E+01  0.57410398047E+02  0.47000000000E+01 0.  1.
        -11    1    3    3    0    0  0.95752633411E+01 -0.23787678502E+02 -0.14268054230E+02  0.29344789794E+02  0.00000000000E+00 0.  1.
         11    1    3    3    0    0  0.23286213877E+01  0.24161995142E+02  0.79535107470E+02  0.83156826582E+02  0.00000000000E+00 0. -1.
<mgrwt>
<rscale>  0 0.11605344E+03</rscale>
<asrwt>0</asrwt>
<pdfrwt beam="1">  1        2 0.19867143E-01 0.12556199E+03</pdfrwt>
<pdfrwt beam="2">  1       -2 0.18697920E-01 0.12556199E+03</pdfrwt>
<totfact> 0.62358344E+03</totfact>
</mgrwt>
</event>
<event>
 7    1  0.5107591E-006  0.3087371E+03  0.7546771E-02  0.1082446E+00
         -2   -1    0    0    0  501 -0.00000000000E+00  0.00000000000E+00  0.95231893443E+02  0.95231893443E+02  0.00000000000E+00 0.  1.
          2   -1    0    0  501    0  0.00000000000E+00 -0.00000000000E+00 -0.10085559746E+04  0.10085559746E+04  0.00000000000E+00 0. -1.
         23    2    1    2    0    0  0.27185334927E+03  0.76088666662E+02 -0.56652329258E+03  0.63947181662E+03  0.91004585117E+02 0.  0.
          5    1    1    2  502    0 -0.49555527541E+01 -0.34588385058E+02 -0.20815716136E+02  0.40942617433E+02  0.47000000000E+01 0.  1.
         -5    1    1    2    0  502 -0.26689779651E+03 -0.41500281604E+02 -0.32598507245E+03  0.42337343400E+03  0.47000000000E+01 0.  1.
        -11    1    3    3    0    0  0.15779084388E+03 -0.21576381275E+01 -0.28369565634E+03  0.32463183954E+03  0.00000000000E+00 0.  1.
         11    1    3    3    0    0  0.11406250539E+03  0.78246304790E+02 -0.28282763624E+03  0.31483997709E+03  0.00000000000E+00 0. -1.
<mgrwt>
<rscale>  0 0.30565879E+03</rscale>
<asrwt>0</asrwt>
<pdfrwt beam="2">  1        2 0.15516245E+00 0.30873712E+03</pdfrwt>
<pdfrwt beam="1">  1       -2 0.14651061E-01 0.30873712E+03</pdfrwt>
<totfact> 0.92397817E+02</totfact>
</mgrwt>
</event>
<event>
 7    1  0.5107591E-006  0.1338718E+03  0.7546771E-02  0.1235192E+00
          2   -1    0    0  501    0  0.00000000000E+00  0.00000000000E+00  0.49894984727E+03  0.49894984727E+03  0.00000000000E+00 0. -1.
         -2   -1    0    0    0  501 -0.00000000000E+00 -0.00000000000E+00 -0.28532114200E+02  0.28532114200E+02  0.00000000000E+00 0.  1.
         23    2    1    2    0    0  0.26487422866E+02  0.39971591175E+02  0.24675469952E+03  0.26681586254E+03  0.89462344592E+02 0.  0.
          5    1    1    2  502    0 -0.13756272384E+02 -0.78375858257E+02  0.19555551633E+03  0.21117779276E+03  0.47000000000E+01 0.  1.
         -5    1    1    2    0  502 -0.12731150482E+02  0.38404267082E+02  0.28107517219E+02  0.49488306163E+02  0.47000000000E+01 0.  1.
        -11    1    3    3    0    0  0.43568028347E+02  0.51828280501E+02  0.23102902450E+03  0.24074624383E+03  0.00000000000E+00 0. -1.
         11    1    3    3    0    0 -0.17080605481E+02 -0.11856689326E+02  0.15725675013E+02  0.26069618716E+02  0.00000000000E+00 0.  1.
<mgrwt>
<rscale>  0 0.12492127E+03</rscale>
<asrwt>0</asrwt>
<pdfrwt beam="1">  1        2 0.76761508E-01 0.13387181E+03</pdfrwt>
<pdfrwt beam="2">  1       -2 0.43895564E-02 0.13387181E+03</pdfrwt>
<totfact> 0.14086003E+04</totfact>
</mgrwt>
</event>
<event>
 7    1  0.5107591E-006  0.1273131E+03  0.7546771E-02  0.1245446E+00
          2   -1    0    0  501    0  0.00000000000E+00  0.00000000000E+00  0.51358025547E+02  0.51358025547E+02  0.00000000000E+00 0. -1.
         -2   -1    0    0    0  501 -0.00000000000E+00 -0.00000000000E+00 -0.25318759027E+03  0.25318759027E+03  0.00000000000E+00 0.  1.
         23    2    1    2    0    0 -0.24068125348E+02 -0.21230758306E+01 -0.56150512955E+02  0.11107465112E+03  0.92741123066E+02 0.  0.
          5    1    1    2  502    0 -0.18264426884E+02 -0.37550516506E+02 -0.12471406582E+03  0.13160288292E+03  0.47000000000E+01 0. -1.
         -5    1    1    2    0  502  0.42332552231E+02  0.39673592336E+02 -0.20964985950E+02  0.61868081780E+02  0.47000000000E+01 0. -1.
        -11    1    3    3    0    0 -0.36713145267E+02  0.22626367944E+02  0.54752297707E+01  0.43471665517E+02  0.00000000000E+00 0. -1.
         11    1    3    3    0    0  0.12645019920E+02 -0.24749443775E+02 -0.61625742726E+02  0.67602985603E+02  0.00000000000E+00 0.  1.
<mgrwt>
<rscale>  0 0.11858724E+03</rscale>
<asrwt>0</asrwt>
<pdfrwt beam="1">  1        2 0.79012346E-02 0.12731311E+03</pdfrwt>
<pdfrwt beam="2">  1       -2 0.38951937E-01 0.12731311E+03</pdfrwt>
<totfact> 0.51195195E+03</totfact>
</mgrwt>
</event>
<event>
 7    1  0.5107591E-006  0.1347326E+03  0.7546771E-02  0.1233430E+00
          1   -1    0    0  501    0  0.00000000000E+00  0.00000000000E+00  0.45598013191E+03  0.45598013191E+03  0.00000000000E+00 0. -1.
         -1   -1    0    0    0  501 -0.00000000000E+00 -0.00000000000E+00 -0.31047966612E+02  0.31047966612E+02  0.00000000000E+00 0.  1.
         23    2    1    2    0    0  0.23040963509E+02  0.44744804703E+02  0.18334915141E+03  0.21041422127E+03  0.90134619558E+02 0.  0.
          5    1    1    2  502    0 -0.35571528113E+02 -0.83195429071E+02  0.19313397945E+03  0.21332987847E+03  0.47000000000E+01 0. -1.
         -5    1    1    2    0  502  0.12530564603E+02  0.38450624368E+02  0.48449034435E+02  0.63283998777E+02  0.47000000000E+01 0. -1.
        -11    1    3    3    0    0  0.29051752821E+02 -0.15304317929E+02  0.11325833196E+03  0.11792233142E+03  0.00000000000E+00 0. -1.
         11    1    3    3    0    0 -0.60107893120E+01  0.60049122632E+02  0.70090819453E+02  0.92491889854E+02  0.00000000000E+00 0.  1.
<mgrwt>
<rscale>  0 0.12605503E+03</rscale>
<asrwt>0</asrwt>
<pdfrwt beam="1">  1        1 0.70150785E-01 0.13473264E+03</pdfrwt>
<pdfrwt beam="2">  1       -1 0.47766106E-02 0.13473264E+03</pdfrwt>
<totfact> 0.91614855E+03</totfact>
</mgrwt>
</event>
<event>
 7    1  0.5107591E-006  0.1350789E+03  0.7546771E-02  0.1232171E+00
         -2   -1    0    0    0  501 -0.00000000000E+00  0.00000000000E+00  0.82009483055E+02  0.82009483055E+02  0.00000000000E+00 0.  1.
          2   -1    0    0  501    0  0.00000000000E+00 -0.00000000000E+00 -0.17594185852E+03  0.17594185852E+03  0.00000000000E+00 0. -1.
         23    2    1    2    0    0 -0.43292646763E+02 -0.27335234393E+02 -0.38907832893E+02  0.11209518637E+03  0.91815265856E+02 0.  0.
          5    1    1    2  502    0  0.85164796262E+02  0.32817406228E+02 -0.46420401692E+02  0.10250350417E+03  0.47000000000E+01 0.  1.
         -5    1    1    2    0  502 -0.41872149498E+02 -0.54821718349E+01 -0.86041408833E+01  0.43352651037E+02  0.47000000000E+01 0.  1.
        -11    1    3    3    0    0 -0.37212122285E+02 -0.50800286064E+02  0.36941533264E+01  0.63079773922E+02  0.00000000000E+00 0.  1.
         11    1    3    3    0    0 -0.60805244780E+01  0.23465051671E+02 -0.42601986219E+02  0.49015412450E+02  0.00000000000E+00 0. -1.
<mgrwt>
<rscale>  0 0.12687277E+03</rscale>
<asrwt>0</asrwt>
<pdfrwt beam="2">  1        2 0.27067978E-01 0.13507893E+03</pdfrwt>
<pdfrwt beam="1">  1       -2 0.12616844E-01 0.13507893E+03</pdfrwt>
<totfact> 0.84675017E+03</totfact>
</mgrwt>
</event>
<event>
 7    1  0.5107591E-006  0.3151300E+03  0.7546771E-02  0.1079194E+00
          2   -1    0    0  501    0  0.00000000000E+00  0.00000000000E+00  0.13380076330E+04  0.13380076330E+04  0.00000000000E+00 0. -1.
         -2   -1    0    0    0  501 -0.00000000000E+00 -0.00000000000E+00 -0.81420250193E+02  0.81420250193E+02  0.00000000000E+00 0.  1.
         23    2    1    2    0    0  0.58403309922E+02 -0.28332575731E+03  0.86369819907E+03  0.91577244895E+03  0.94763747329E+02 0.  0.
          5    1    1    2  502    0 -0.63104524598E+02  0.24953784471E+03  0.25810942233E+03  0.36454612995E+03  0.47000000000E+01 0.  1.
         -5    1    1    2    0  502  0.47012146764E+01  0.33787912597E+02  0.13477976145E+03  0.13910930434E+03  0.47000000000E+01 0.  1.
        -11    1    3    3    0    0  0.34122216207E+02 -0.72510124255E+02  0.36688797749E+03  0.37553805637E+03  0.00000000000E+00 0. -1.
         11    1    3    3    0    0  0.24281093715E+02 -0.21081563305E+03  0.49681022158E+03  0.54023439257E+03  0.00000000000E+00 0.  1.
<mgrwt>
<rscale>  0 0.31241472E+03</rscale>
<asrwt>0</asrwt>
<pdfrwt beam="1">  1        2 0.20584731E+00 0.31512995E+03</pdfrwt>
<pdfrwt beam="2">  1       -2 0.12526193E-01 0.31512995E+03</pdfrwt>
<totfact> 0.76983549E+02</totfact>
</mgrwt>
</event>
<event>
 7    1  0.5107591E-006  0.1308627E+03  0.7546771E-02  0.1231999E+00
          3   -1    0    0  501    0  0.00000000000E+00  0.00000000000E+00  0.10949027293E+03  0.10949027293E+03  0.00000000000E+00 0. -1.
         -3   -1    0    0    0  501 -0.00000000000E+00 -0.00000000000E+00 -0.14580103409E+03  0.14580103409E+03  0.00000000000E+00 0.  1.
         23    2    1    2    0    0  0.69569297736E+02 -0.73099191320E+01  0.10041491786E+02  0.11646198007E+03  0.92570184939E+02 0.  0.
          5    1    1    2  502    0  0.11982048595E+02 -0.10649075132E+02  0.24202010405E+02  0.29407475195E+02  0.47000000000E+01 0. -1.
         -5    1    1    2    0  502 -0.81551346331E+02  0.17958994264E+02 -0.70554263354E+02  0.10942185175E+03  0.47000000000E+01 0.  1.
        -11    1    3    3    0    0  0.49948113943E+02 -0.46393267615E+02  0.21086254108E+02  0.71356705913E+02  0.00000000000E+00 0.  1.
         11    1    3    3    0    0  0.19621183792E+02  0.39083348483E+02 -0.11044762322E+02  0.45105274157E+02  0.00000000000E+00 0. -1.
<mgrwt>
<rscale>  0 0.12698514E+03</rscale>
<asrwt>0</asrwt>
<pdfrwt beam="1">  1        3 0.16844657E-01 0.13086272E+03</pdfrwt>
<pdfrwt beam="2">  1       -3 0.22430928E-01 0.13086272E+03</pdfrwt>
<totfact> 0.12694655E+03</totfact>
</mgrwt>
</event>
<event>
 7    1  0.5107591E-006  0.1365103E+03  0.7546771E-02  0.1232811E+00
         -1   -1    0    0    0  501 -0.00000000000E+00  0.00000000000E+00  0.27609908850E+03  0.27609908850E+03  0.00000000000E+00 0.  1.
          1   -1    0    0  501    0  0.00000000000E+00 -0.00000000000E+00 -0.11161433957E+03  0.11161433957E+03  0.00000000000E+00 0. -1.
         23    2    1    2    0    0  0.12490532731E+02  0.53424376868E+02 -0.65704513949E+02  0.12009027261E+03  0.84228338283E+02 0.  0.
          5    1    1    2  502    0 -0.14962997799E+02 -0.70385533688E+02  0.52873160726E+02  0.89418542713E+02  0.47000000000E+01 0. -1.
         -5    1    1    2    0  502  0.24724650683E+01  0.16961156820E+02  0.17731610215E+03  0.17820461275E+03  0.47000000000E+01 0. -1.
        -11    1    3    3    0    0  0.41625350411E+02  0.43496744414E+02 -0.65966105965E+02  0.89309370772E+02  0.00000000000E+00 0.  1.
         11    1    3    3    0    0 -0.29134817680E+02  0.99276324543E+01  0.26159201592E+00  0.30780901835E+02  0.00000000000E+00 0. -1.
<mgrwt>
<rscale>  0 0.12645583E+03</rscale>
<asrwt>0</asrwt>
<pdfrwt beam="2">  1        1 0.17171437E-01 0.13651028E+03</pdfrwt>
<pdfrwt beam="1">  1       -1 0.42476783E-01 0.13651028E+03</pdfrwt>
<totfact> 0.16887058E+03</totfact>
</mgrwt>
</event>
<event>
 7    1  0.5107591E-006  0.2036101E+03  0.7546771E-02  0.1150938E+00
          1   -1    0    0  501    0  0.00000000000E+00  0.00000000000E+00  0.33038689553E+02  0.33038689553E+02  0.00000000000E+00 0. -1.
         -1   -1    0    0    0  501 -0.00000000000E+00 -0.00000000000E+00 -0.11416685195E+04  0.11416685195E+04  0.00000000000E+00 0.  1.
         23    2    1    2    0    0 -0.63423378184E+02 -0.14768197580E+03 -0.49480366254E+03  0.52799272304E+03  0.90073082811E+02 0.  0.
          5    1    1    2  502    0 -0.19627002646E+02  0.11078906587E+03 -0.34005088119E+03  0.35821240647E+03  0.47000000000E+01 0.  1.
         -5    1    1    2    0  502  0.83050380831E+02  0.36892909921E+02 -0.27377528626E+03  0.28850207959E+03  0.47000000000E+01 0.  1.
        -11    1    3    3    0    0  0.42119385390E+01 -0.10240461698E+03 -0.25927506630E+03  0.27879742827E+03  0.00000000000E+00 0. -1.
         11    1    3    3    0    0 -0.67635316723E+02 -0.45277358814E+02 -0.23552859624E+03  0.24919529477E+03  0.00000000000E+00 0.  1.
<mgrwt>
<rscale>  0 0.19858547E+03</rscale>
<asrwt>0</asrwt>
<pdfrwt beam="1">  1        1 0.50828766E-02 0.20361007E+03</pdfrwt>
<pdfrwt beam="2">  1       -1 0.17564127E+00 0.20361007E+03</pdfrwt>
<totfact> 0.39929875E+02</totfact>
</mgrwt>
</event>
<event>
 7    1  0.5107591E-006  0.1517034E+03  0.7546771E-02  0.1207295E+00
          2   -1    0    0  501    0  0.00000000000E+00  0.00000000000E+00  0.37364882155E+03  0.37364882155E+03  0.00000000000E+00 0. -1.
         -2   -1    0    0    0  501 -0.00000000000E+00 -0.00000000000E+00 -0.52883473498E+02  0.52883473498E+02  0.00000000000E+00 0.  1.
         23    2    1    2    0    0 -0.26936595169E+02 -0.81630859530E+02  0.18237280224E+03  0.22118765214E+03  0.90966813036E+02 0.  0.
          5    1    1    2  502    0  0.63331142685E+02  0.26559121993E+01  0.70500662651E+02  0.94922710336E+02  0.47000000000E+01 0. -1.
         -5    1    1    2    0  502 -0.36394547515E+02  0.78974947330E+02  0.67891883161E+02  0.11042193258E+03  0.47000000000E+01 0. -1.
        -11    1    3    3    0    0  0.73998831590E+01 -0.43984686432E+02  0.16322559188E+02  0.47495650851E+02  0.00000000000E+00 0.  1.
         11    1    3    3    0    0 -0.34336478328E+02 -0.37646173098E+02  0.16605024305E+03  0.17369200129E+03  0.00000000000E+00 0. -1.
<mgrwt>
<rscale>  0 0.14458054E+03</rscale>
<asrwt>0</asrwt>
<pdfrwt beam="1">  1        2 0.57484432E-01 0.15170341E+03</pdfrwt>
<pdfrwt beam="2">  1       -2 0.81359193E-02 0.15170341E+03</pdfrwt>
<totfact> 0.76065064E+03</totfact>
</mgrwt>
</event>
<event>
 7    1  0.5107591E-006  0.1435528E+03  0.7546771E-02  0.1218857E+00
          2   -1    0    0  501    0  0.00000000000E+00  0.00000000000E+00  0.39288170809E+02  0.39288170809E+02  0.00000000000E+00 0. -1.
         -2   -1    0    0    0  501 -0.00000000000E+00 -0.00000000000E+00 -0.42931946160E+03  0.42931946160E+03  0.00000000000E+00 0.  1.
         23    2    1    2    0    0  0.70223946141E+02  0.70718738089E+01 -0.19056338129E+03  0.22285399445E+03  0.91477246039E+02 0.  0.
          5    1    1    2  502    0 -0.44358988373E+02 -0.54664974861E+02 -0.49374019315E+02  0.86115405760E+02  0.47000000000E+01 0.  1.
         -5    1    1    2    0  502 -0.25864957768E+02  0.47593101052E+02 -0.15009389019E+03  0.15963823220E+03  0.47000000000E+01 0.  1.
        -11    1    3    3    0    0  0.33896872632E+02 -0.38009512194E+02 -0.12723505775E+03  0.13704919157E+03  0.00000000000E+00 0.  1.
         11    1    3    3    0    0  0.36327073509E+02  0.45081386003E+02 -0.63328323541E+02  0.85804802874E+02  0.00000000000E+00 0. -1.
<mgrwt>
<rscale>  0 0.13596961E+03</rscale>
<asrwt>0</asrwt>
<pdfrwt beam="1">  1        2 0.60443338E-02 0.14355279E+03</pdfrwt>
<pdfrwt beam="2">  1       -2 0.66049150E-01 0.14355279E+03</pdfrwt>
<totfact> 0.25437482E+03</totfact>
</mgrwt>
</event>
<event>
 7    1  0.5107591E-006  0.1290922E+03  0.7546771E-02  0.1243125E+00
          2   -1    0    0  501    0  0.00000000000E+00  0.00000000000E+00  0.76976010511E+02  0.76976010511E+02  0.00000000000E+00 0.  1.
         -2   -1    0    0    0  501 -0.00000000000E+00 -0.00000000000E+00 -0.16509071738E+03  0.16509071738E+03  0.00000000000E+00 0. -1.
         23    2    1    2    0    0 -0.31853745476E+02 -0.46788606542E+01 -0.39734344512E+02  0.10420648402E+03  0.90794384961E+02 0.  0.
          5    1    1    2  502    0  0.39063571205E+01  0.29581392633E+02  0.35065929483E+02  0.46282046482E+02  0.47000000000E+01 0. -1.
         -5    1    1    2    0  502  0.27947388356E+02 -0.24902531979E+02 -0.83446291837E+02  0.91578197384E+02  0.47000000000E+01 0. -1.
        -11    1    3    3    0    0 -0.14744620583E+02 -0.17339183080E+02  0.26326618288E+02  0.34801464574E+02  0.00000000000E+00 0.  1.
         11    1    3    3    0    0 -0.17109124893E+02  0.12660322426E+02 -0.66060962799E+02  0.69405019448E+02  0.00000000000E+00 0. -1.
<mgrwt>
<rscale>  0 0.11998292E+03</rscale>
<asrwt>0</asrwt>
<pdfrwt beam="1">  1        2 0.11842463E-01 0.12909217E+03</pdfrwt>
<pdfrwt beam="2">  1       -2 0.25398572E-01 0.12909217E+03</pdfrwt>
<totfact> 0.67636410E+03</totfact>
</mgrwt>
</event>
<event>
 7    1  0.5107591E-006  0.1198517E+03  0.7546771E-02  0.1256925E+00
          2   -1    0    0  501    0  0.00000000000E+00  0.00000000000E+00  0.21717325862E+02  0.21717325862E+02  0.00000000000E+00 0. -1.
         -2   -1    0    0    0  501 -0.00000000000E+00 -0.00000000000E+00 -0.51373461373E+03  0.51373461373E+03  0.00000000000E+00 0.  1.
         23    2    1    2    0    0  0.45164303830E+01 -0.74603338404E+01 -0.20843519121E+03  0.22758306033E+03  0.90954745293E+02 0.  0.
          5    1    1    2  502    0 -0.79183694605E+01 -0.48252746698E+02 -0.20841594473E+03  0.21412688798E+03  0.47000000000E+01 0. -1.
         -5    1    1    2    0  502  0.34019390776E+01  0.55713080539E+02 -0.75166151919E+02  0.93741991268E+02  0.47000000000E+01 0.  1.
        -11    1    3    3    0    0  0.45506047205E+02  0.84924988779E+01 -0.89254449144E+02  0.10054491316E+03  0.00000000000E+00 0.  1.
         11    1    3    3    0    0 -0.40989616822E+02 -0.15952832718E+02 -0.11918074207E+03  0.12703814718E+03  0.00000000000E+00 0. -1.
<mgrwt>
<rscale>  0 0.11199185E+03</rscale>
<asrwt>0</asrwt>
<pdfrwt beam="1">  1        2 0.33411270E-02 0.11985175E+03</pdfrwt>
<pdfrwt beam="2">  1       -2 0.79036095E-01 0.11985175E+03</pdfrwt>
<totfact> 0.37247483E+03</totfact>
</mgrwt>
</event>
<event>
 7    1  0.5107591E-006  0.2058392E+03  0.7546771E-02  0.1148892E+00
         -1   -1    0    0    0  501 -0.00000000000E+00  0.00000000000E+00  0.31898403800E+02  0.31898403800E+02  0.00000000000E+00 0.  1.
          1   -1    0    0  501    0  0.00000000000E+00 -0.00000000000E+00 -0.13330817580E+04  0.13330817580E+04  0.00000000000E+00 0. -1.
         23    2    1    2    0    0 -0.13437802489E+03 -0.93226197251E+02 -0.82919779978E+03  0.85006256950E+03  0.91042866129E+02 0.  0.
          5    1    1    2  502    0  0.11122333565E+03  0.32083211247E+02 -0.16883720677E+03  0.20476341282E+03  0.47000000000E+01 0. -1.
         -5    1    1    2    0  502  0.23154689239E+02  0.61142986003E+02 -0.30314834766E+03  0.31015417950E+03  0.47000000000E+01 0. -1.
        -11    1    3    3    0    0 -0.45392386967E+02  0.97991555550E+01 -0.13853556101E+03  0.14611158034E+03  0.00000000000E+00 0. -1.
         11    1    3    3    0    0 -0.88985637925E+02 -0.10302535281E+03 -0.69066223877E+03  0.70395098916E+03  0.00000000000E+00 0.  1.
<mgrwt>
<rscale>  0 0.20100760E+03</rscale>
<asrwt>0</asrwt>
<pdfrwt beam="2">  1        1 0.20508948E+00 0.20583917E+03</pdfrwt>
<pdfrwt beam="1">  1       -1 0.49074473E-02 0.20583917E+03</pdfrwt>
<totfact> 0.16782398E+03</totfact>
</mgrwt>
</event>
<event>
 7    1  0.5107591E-006  0.1302965E+03  0.7546771E-02  0.1241690E+00
         -1   -1    0    0    0  501 -0.00000000000E+00  0.00000000000E+00  0.17843626102E+03  0.17843626102E+03  0.00000000000E+00 0.  1.
          1   -1    0    0  501    0  0.00000000000E+00 -0.00000000000E+00 -0.73734703264E+02  0.73734703264E+02  0.00000000000E+00 0. -1.
         23    2    1    2    0    0 -0.13645185970E+02  0.34191025842E+02  0.25764133371E+02  0.99828291157E+02  0.89144151792E+02 0.  0.
          5    1    1    2  502    0 -0.14578841787E+02  0.29230174608E+02 -0.14333915187E+02  0.35979116999E+02  0.47000000000E+01 0.  1.
         -5    1    1    2    0  502  0.28224027758E+02 -0.63421200449E+02  0.93271339574E+02  0.11636355613E+03  0.47000000000E+01 0.  1.
        -11    1    3    3    0    0 -0.34760598057E+01 -0.14067616503E+02 -0.25098417733E+02  0.28981224932E+02  0.00000000000E+00 0. -1.
         11    1    3    3    0    0 -0.10169126165E+02  0.48258642345E+02  0.50862551103E+02  0.70847066225E+02  0.00000000000E+00 0.  1.
<mgrwt>
<rscale>  0 0.12085676E+03</rscale>
<asrwt>0</asrwt>
<pdfrwt beam="2">  1        1 0.11343801E-01 0.13029648E+03</pdfrwt>
<pdfrwt beam="1">  1       -1 0.27451732E-01 0.13029648E+03</pdfrwt>
<totfact> 0.60931784E+03</totfact>
</mgrwt>
</event>
<event>
 7    1  0.5107591E-006  0.1735907E+03  0.7546771E-02  0.1182046E+00
         -1   -1    0    0    0  501 -0.00000000000E+00  0.00000000000E+00  0.25347988095E+03  0.25347988095E+03  0.00000000000E+00 0.  1.
          1   -1    0    0  501    0  0.00000000000E+00 -0.00000000000E+00 -0.11923501147E+03  0.11923501147E+03  0.00000000000E+00 0. -1.
         23    2    1    2    0    0  0.11316619507E+03 -0.41267020146E+02 -0.11931491008E+02  0.14577600709E+03  0.81232561876E+02 0.  0.
          5    1    1    2  502    0 -0.10953048273E+02  0.79648344187E+01 -0.22609286753E+02  0.26770836768E+02  0.47000000000E+01 0.  1.
         -5    1    1    2    0  502 -0.10221314679E+03  0.33302185728E+02  0.16878564723E+03  0.20016804856E+03  0.47000000000E+01 0.  1.
        -11    1    3    3    0    0  0.22903344073E+02  0.16560238660E+02  0.19177765016E+02  0.34155399943E+02  0.00000000000E+00 0.  1.
         11    1    3    3    0    0  0.90262850994E+02 -0.57827258806E+02 -0.31109256024E+02  0.11162060715E+03  0.00000000000E+00 0. -1.
<mgrwt>
<rscale>  0 0.16603569E+03</rscale>
<asrwt>0</asrwt>
<pdfrwt beam="2">  1        1 0.18343848E-01 0.17359069E+03</pdfrwt>
<pdfrwt beam="1">  1       -1 0.38996905E-01 0.17359069E+03</pdfrwt>
<totfact> 0.18184168E+03</totfact>
</mgrwt>
</event>
<event>
 7    1  0.5107591E-006  0.2784360E+03  0.7546771E-02  0.1098540E+00
         -2   -1    0    0    0  501 -0.00000000000E+00  0.00000000000E+00  0.79483104427E+02  0.79483104427E+02  0.00000000000E+00 0.  1.
          2   -1    0    0  501    0  0.00000000000E+00 -0.00000000000E+00 -0.12265994051E+04  0.12265994051E+04  0.00000000000E+00 0. -1.
         23    2    1    2    0    0  0.24684132286E+03 -0.31173585550E+02 -0.23942597290E+03  0.35664671928E+03  0.89272922923E+02 0.  0.
          5    1    1    2  502    0 -0.12681129122E+03 -0.34961236196E+02 -0.56928831415E+03  0.58430699657E+03  0.47000000000E+01 0. -1.
         -5    1    1    2    0  502 -0.12003003164E+03  0.66134821746E+02 -0.33840201359E+03  0.36512879364E+03  0.47000000000E+01 0. -1.
        -11    1    3    3    0    0  0.59597359177E+02 -0.47724360596E+02 -0.70448476479E+02  0.10388670585E+03  0.00000000000E+00 0. -1.
         11    1    3    3    0    0  0.18724396368E+03  0.16550775046E+02 -0.16897749642E+03  0.25276001343E+03  0.00000000000E+00 0.  1.
<mgrwt>
<rscale>  0 0.27484128E+03</rscale>
<asrwt>0</asrwt>
<pdfrwt beam="2">  1        2 0.18870759E+00 0.27843597E+03</pdfrwt>
<pdfrwt beam="1">  1       -2 0.12228171E-01 0.27843597E+03</pdfrwt>
<totfact> 0.92670069E+02</totfact>
</mgrwt>
</event>
<event>
 7    1  0.5107591E-006  0.1284917E+03  0.7546771E-02  0.1243019E+00
          1   -1    0    0  501    0  0.00000000000E+00  0.00000000000E+00  0.28432499420E+03  0.28432499420E+03  0.00000000000E+00 0. -1.
         -1   -1    0    0    0  501 -0.00000000000E+00 -0.00000000000E+00 -0.46279087945E+02  0.46279087945E+02  0.00000000000E+00 0.  1.
         23    2    1    2    0    0 -0.10493043064E+01  0.29508147346E+02  0.12988909420E+03  0.16265164127E+03  0.93341029664E+02 0.  0.
          5    1    1    2  502    0  0.41966092229E+02  0.11994483790E+02 -0.12335369378E+01  0.43916194641E+02  0.47000000000E+01 0. -1.
         -5    1    1    2    0  502 -0.40916787923E+02 -0.41502631136E+02  0.10939034899E+03  0.12403624623E+03  0.47000000000E+01 0. -1.
        -11    1    3    3    0    0  0.16174144807E+02  0.59465275229E+02  0.97167655614E+02  0.11506204942E+03  0.00000000000E+00 0. -1.
         11    1    3    3    0    0 -0.17223449114E+02 -0.29957127883E+02  0.32721438583E+02  0.47589591859E+02  0.00000000000E+00 0.  1.
<mgrwt>
<rscale>  0 0.12004716E+03</rscale>
<asrwt>0</asrwt>
<pdfrwt beam="1">  1        1 0.43742306E-01 0.12849174E+03</pdfrwt>
<pdfrwt beam="2">  1       -1 0.71198599E-02 0.12849174E+03</pdfrwt>
<totfact> 0.91078823E+03</totfact>
</mgrwt>
</event>
<event>
 7    1  0.5107591E-006  0.1568748E+03  0.7546771E-02  0.1210690E+00
          2   -1    0    0  501    0  0.00000000000E+00  0.00000000000E+00  0.97349146378E+03  0.97349146378E+03  0.00000000000E+00 0. -1.
         -2   -1    0    0    0  501 -0.00000000000E+00 -0.00000000000E+00 -0.20412814334E+02  0.20412814334E+02  0.00000000000E+00 0.  1.
         23    2    1    2    0    0  0.79648801294E+02 -0.20843874596E+01  0.57529428623E+03  0.58484348976E+03  0.68775835282E+02 0.  0.
          5    1    1    2  502    0  0.25898448151E+02  0.30200978294E+01  0.20374932526E+03  0.20546466399E+03  0.47000000000E+01 0. -1.
         -5    1    1    2    0  502 -0.10554724944E+03 -0.93571036983E+00  0.17403503795E+03  0.20359612436E+03  0.47000000000E+01 0.  1.
        -11    1    3    3    0    0  0.63260240154E+02 -0.31931470059E+02  0.40996170944E+03  0.41604095948E+03  0.00000000000E+00 0. -1.
         11    1    3    3    0    0  0.16388561140E+02  0.29847082599E+02  0.16533257680E+03  0.16880253027E+03  0.00000000000E+00 0.  1.
<mgrwt>
<rscale>  0 0.14197912E+03</rscale>
<asrwt>0</asrwt>
<pdfrwt beam="1">  1        2 0.14976788E+00 0.15687480E+03</pdfrwt>
<pdfrwt beam="2">  1       -2 0.31404337E-02 0.15687480E+03</pdfrwt>
<totfact> 0.10473461E+04</totfact>
</mgrwt>
</event>
<event>
 7    1  0.5107591E-006  0.1127573E+03  0.7546771E-02  0.1265182E+00
         -1   -1    0    0    0  501 -0.00000000000E+00  0.00000000000E+00  0.69467538905E+02  0.69467538905E+02  0.00000000000E+00 0.  1.
          1   -1    0    0  501    0  0.00000000000E+00 -0.00000000000E+00 -0.16569814293E+03  0.16569814293E+03  0.00000000000E+00 0. -1.
         23    2    1    2    0    0 -0.64439351903E+01 -0.16170751418E+02 -0.76566570845E+02  0.12070658034E+03  0.91676721499E+02 0.  0.
          5    1    1    2  502    0  0.23290505334E+02  0.50268007472E+02 -0.42380453667E+02  0.69910750725E+02  0.47000000000E+01 0. -1.
         -5    1    1    2    0  502 -0.16846570144E+02 -0.34097256054E+02  0.22716420490E+02  0.44548350765E+02  0.47000000000E+01 0.  1.
        -11    1    3    3    0    0  0.18566205041E+02 -0.44520897248E+02 -0.19017199123E+02  0.51850439958E+02  0.00000000000E+00 0.  1.
         11    1    3    3    0    0 -0.25010140232E+02  0.28350145830E+02 -0.57549371722E+02  0.68856140384E+02  0.00000000000E+00 0. -1.
<mgrwt>
<rscale>  0 0.10754645E+03</rscale>
<asrwt>0</asrwt>
<pdfrwt beam="2">  1        1 0.25492022E-01 0.11275731E+03</pdfrwt>
<pdfrwt beam="1">  1       -1 0.10687314E-01 0.11275731E+03</pdfrwt>
<totfact> 0.95161347E+03</totfact>
</mgrwt>
</event>
<event>
 7    1  0.5107591E-006  0.2325320E+03  0.7546771E-02  0.1127553E+00
          1   -1    0    0  501    0  0.00000000000E+00  0.00000000000E+00  0.26362637184E+03  0.26362637184E+03  0.00000000000E+00 0. -1.
         -1   -1    0    0    0  501 -0.00000000000E+00 -0.00000000000E+00 -0.19254331743E+03  0.19254331743E+03  0.00000000000E+00 0.  1.
         23    2    1    2    0    0  0.26049466577E+01 -0.19606022107E+03  0.24102405344E+02  0.21893917041E+03  0.94377107204E+02 0.  0.
          5    1    1    2  502    0  0.39886969416E+02  0.43076858274E+02 -0.23552673858E+02  0.63430312106E+02  0.47000000000E+01 0.  1.
         -5    1    1    2    0  502 -0.42491916074E+02  0.15298336279E+03  0.70533322922E+02  0.17380020675E+03  0.47000000000E+01 0.  1.
        -11    1    3    3    0    0  0.42323751123E+02 -0.11618162949E+03 -0.85420755499E+01  0.12394530243E+03  0.00000000000E+00 0. -1.
         11    1    3    3    0    0 -0.39718804466E+02 -0.79878591576E+02  0.32644480894E+02  0.94993867976E+02  0.00000000000E+00 0.  1.
<mgrwt>
<rscale>  0 0.22870781E+03</rscale>
<asrwt>0</asrwt>
<pdfrwt beam="1">  1        1 0.40557903E-01 0.23253201E+03</pdfrwt>
<pdfrwt beam="2">  1       -1 0.29622049E-01 0.23253201E+03</pdfrwt>
<totfact> 0.10772375E+03</totfact>
</mgrwt>
</event>
<event>
 7    1  0.5107591E-006  0.1308883E+03  0.7546771E-02  0.1239434E+00
         -2   -1    0    0    0  501 -0.00000000000E+00  0.00000000000E+00  0.95841825264E+02  0.95841825264E+02  0.00000000000E+00 0.  1.
          2   -1    0    0  501    0  0.00000000000E+00 -0.00000000000E+00 -0.14269557762E+03  0.14269557762E+03  0.00000000000E+00 0. -1.
         23    2    1    2    0    0 -0.18904740371E+02  0.33912592438E+02 -0.40419668600E+02  0.10749105031E+03  0.91723078630E+02 0.  0.
          5    1    1    2  502    0 -0.22026408702E+02 -0.37866297764E+01  0.49991780719E+02  0.54961526405E+02  0.47000000000E+01 0.  1.
         -5    1    1    2    0  502  0.40931149073E+02 -0.30125962662E+02 -0.56425864472E+02  0.76084826162E+02  0.47000000000E+01 0.  1.
        -11    1    3    3    0    0  0.54325700743E+01  0.62024548523E+02 -0.28209130183E+02  0.68354315612E+02  0.00000000000E+00 0.  1.
         11    1    3    3    0    0 -0.24337310445E+02 -0.28111956085E+02 -0.12210538418E+02  0.39136734702E+02  0.00000000000E+00 0. -1.
<mgrwt>
<rscale>  0 0.12224828E+03</rscale>
<asrwt>0</asrwt>
<pdfrwt beam="2">  1        2 0.21953166E-01 0.13088831E+03</pdfrwt>
<pdfrwt beam="1">  1       -2 0.14744896E-01 0.13088831E+03</pdfrwt>
<totfact> 0.82764405E+03</totfact>
</mgrwt>
</event>
<event>
 7    1  0.5107591E-006  0.1181358E+03  0.7546771E-02  0.1258524E+00
          2   -1    0    0  501    0  0.00000000000E+00  0.00000000000E+00  0.14974582056E+03  0.14974582056E+03  0.00000000000E+00 0. -1.
         -2   -1    0    0    0  501 -0.00000000000E+00 -0.00000000000E+00 -0.75873630005E+02  0.75873630005E+02  0.00000000000E+00 0.  1.
         23    2    1    2    0    0 -0.11815639784E+02  0.12920179789E+01  0.49971746595E+02  0.10509023141E+03  0.91681528265E+02 0.  0.
          5    1    1    2  502    0  0.30474198650E+01  0.41318536725E+02  0.53405038845E+02  0.67754678207E+02  0.47000000000E+01 0. -1.
         -5    1    1    2    0  502  0.87682199190E+01 -0.42610554704E+02 -0.29504594888E+02  0.52774540948E+02  0.47000000000E+01 0.  1.
        -11    1    3    3    0    0 -0.50347731247E+02 -0.44425141146E+01  0.14955722355E+02  0.52709615864E+02  0.00000000000E+00 0.  1.
         11    1    3    3    0    0  0.38532091463E+02  0.57345320935E+01  0.35016024240E+02  0.52380615541E+02  0.00000000000E+00 0. -1.
<mgrwt>
<rscale>  0 0.11111211E+03</rscale>
<asrwt>0</asrwt>
<pdfrwt beam="1">  1        2 0.23037819E-01 0.11813578E+03</pdfrwt>
<pdfrwt beam="2">  1       -2 0.11672866E-01 0.11813578E+03</pdfrwt>
<totfact> 0.11324321E+04</totfact>
</mgrwt>
</event>
<event>
 7    1  0.5107591E-006  0.1319135E+03  0.7546771E-02  0.1237812E+00
         -1   -1    0    0    0  501 -0.00000000000E+00  0.00000000000E+00  0.22081538466E+03  0.22081538466E+03  0.00000000000E+00 0.  1.
          1   -1    0    0  501    0  0.00000000000E+00 -0.00000000000E+00 -0.61600253237E+02  0.61600253237E+02  0.00000000000E+00 0. -1.
         23    2    1    2    0    0  0.14737613009E+02 -0.39482218237E+02  0.57509485258E+02  0.11584673024E+03  0.91307618627E+02 0.  0.
          5    1    1    2  502    0  0.50305569576E+02  0.16029185578E+02  0.75987912074E+02  0.92649003783E+02  0.47000000000E+01 0. -1.
         -5    1    1    2    0  502 -0.65043182584E+02  0.23453032659E+02  0.25717734092E+02  0.73919903872E+02  0.47000000000E+01 0. -1.
        -11    1    3    3    0    0  0.74983607384E+00 -0.61990869859E+02  0.11944495383E+02  0.63135577688E+02  0.00000000000E+00 0. -1.
         11    1    3    3    0    0  0.13987776935E+02  0.22508651622E+02  0.45564989875E+02  0.52711152556E+02  0.00000000000E+00 0.  1.
<mgrwt>
<rscale>  0 0.12326152E+03</rscale>
<asrwt>0</asrwt>
<pdfrwt beam="2">  1        1 0.94769621E-02 0.13191347E+03</pdfrwt>
<pdfrwt beam="1">  1       -1 0.33971597E-01 0.13191347E+03</pdfrwt>
<totfact> 0.54041060E+03</totfact>
</mgrwt>
</event>
<event>
 7    1  0.5107591E-006  0.1263380E+03  0.7546771E-02  0.1250192E+00
         -1   -1    0    0    0  501 -0.00000000000E+00  0.00000000000E+00  0.87119736704E+02  0.87119736704E+02  0.00000000000E+00 0.  1.
          1   -1    0    0  501    0  0.00000000000E+00 -0.00000000000E+00 -0.13426975850E+03  0.13426975850E+03  0.00000000000E+00 0. -1.
         23    2    1    2    0    0 -0.17822107813E+02 -0.43501921073E+01 -0.28912825535E+02  0.93741968526E+02  0.87264273815E+02 0.  0.
          5    1    1    2  502    0  0.61718027420E+02 -0.12653780503E+02 -0.40828829889E+02  0.75221781551E+02  0.47000000000E+01 0. -1.
         -5    1    1    2    0  502 -0.43895919607E+02  0.17003972611E+02  0.22591633624E+02  0.52425745130E+02  0.47000000000E+01 0. -1.
        -11    1    3    3    0    0  0.16022636246E+02 -0.20017522094E+02 -0.46042955064E+02  0.52700851740E+02  0.00000000000E+00 0. -1.
         11    1    3    3    0    0 -0.33844744060E+02  0.15667329987E+02  0.17130129529E+02  0.41041116786E+02  0.00000000000E+00 0.  1.
<mgrwt>
<rscale>  0 0.11579969E+03</rscale>
<asrwt>0</asrwt>
<pdfrwt beam="2">  1        1 0.20656886E-01 0.12633802E+03</pdfrwt>
<pdfrwt beam="1">  1       -1 0.13403036E-01 0.12633802E+03</pdfrwt>
<totfact> 0.88304602E+03</totfact>
</mgrwt>
</event>
<event>
 7    1  0.5107591E-006  0.1286075E+03  0.7546771E-02  0.1243661E+00
          2   -1    0    0  501    0  0.00000000000E+00  0.00000000000E+00  0.21809146933E+03  0.21809146933E+03  0.00000000000E+00 0.  1.
         -2   -1    0    0    0  501 -0.00000000000E+00 -0.00000000000E+00 -0.85985649679E+02  0.85985649679E+02  0.00000000000E+00 0. -1.
         23    2    1    2    0    0  0.19119780249E+02  0.23498205354E+02  0.14576484726E+03  0.17474630830E+03  0.91493988412E+02 0.  0.
          5    1    1    2  502    0  0.60761754927E+01 -0.71991697180E+02 -0.17032786328E+02  0.74376946573E+02  0.47000000000E+01 0.  1.
         -5    1    1    2    0  502 -0.25195955742E+02  0.48493491826E+02  0.33737587132E+01  0.54953864132E+02  0.47000000000E+01 0.  1.
        -11    1    3    3    0    0  0.48040726095E+02 -0.15270844947E+01  0.40853583305E+02  0.63081365074E+02  0.00000000000E+00 0. -1.
         11    1    3    3    0    0 -0.28920945845E+02  0.25025289848E+02  0.10491126396E+03  0.11166494323E+03  0.00000000000E+00 0.  1.
<mgrwt>
<rscale>  0 0.11965894E+03</rscale>
<asrwt>0</asrwt>
<pdfrwt beam="1">  1        2 0.33552534E-01 0.12860750E+03</pdfrwt>
<pdfrwt beam="2">  1       -2 0.13228562E-01 0.12860750E+03</pdfrwt>
<totfact> 0.61983526E+03</totfact>
</mgrwt>
</event>
<event>
 7    1  0.5107591E-006  0.1266267E+03  0.7546771E-02  0.1248205E+00
          1   -1    0    0  501    0  0.00000000000E+00  0.00000000000E+00  0.10668695747E+02  0.10668695747E+02  0.00000000000E+00 0. -1.
         -1   -1    0    0    0  501 -0.00000000000E+00 -0.00000000000E+00 -0.11218761809E+04  0.11218761809E+04  0.00000000000E+00 0.  1.
         23    2    1    2    0    0 -0.98984818984E+01 -0.17651442184E+02 -0.47651051536E+03  0.48533968421E+03  0.89904307245E+02 0.  0.
          5    1    1    2  502    0  0.31691479705E+02 -0.13430597815E+02 -0.57660741231E+03  0.57765294839E+03  0.47000000000E+01 0. -1.
         -5    1    1    2    0  502 -0.21792997807E+02  0.31082039999E+02 -0.58089557432E+02  0.69552244008E+02  0.47000000000E+01 0. -1.
        -11    1    3    3    0    0 -0.28488434424E+02  0.29700668393E+02 -0.22591240583E+03  0.22963043288E+03  0.00000000000E+00 0.  1.
         11    1    3    3    0    0  0.18589952526E+02 -0.47352110578E+02 -0.25059810954E+03  0.25570925133E+03  0.00000000000E+00 0. -1.
<mgrwt>
<rscale>  0 0.11695595E+03</rscale>
<asrwt>0</asrwt>
<pdfrwt beam="1">  1        1 0.16413383E-02 0.12662669E+03</pdfrwt>
<pdfrwt beam="2">  1       -1 0.17259629E+00 0.12662669E+03</pdfrwt>
<totfact> 0.19949211E+03</totfact>
</mgrwt>
</event>
<event>
 7    1  0.5107591E-006  0.4044329E+03  0.7546771E-02  0.1057550E+00
          2   -1    0    0  501    0  0.00000000000E+00  0.00000000000E+00  0.10336410311E+04  0.10336410311E+04  0.00000000000E+00 0. -1.
         -2   -1    0    0    0  501 -0.00000000000E+00 -0.00000000000E+00 -0.11787571043E+03  0.11787571043E+03  0.00000000000E+00 0.  1.
         23    2    1    2    0    0 -0.51574415168E+02  0.23928267973E+03  0.53781780797E+03  0.59797331172E+03  0.91694960876E+02 0.  0.
          5    1    1    2  502    0 -0.10601666138E+03 -0.96356836827E+02  0.28959667856E+03  0.32312922914E+03  0.47000000000E+01 0. -1.
         -5    1    1    2    0  502  0.15759107655E+03 -0.14292584291E+03  0.88350834162E+02  0.23041420068E+03  0.47000000000E+01 0.  1.
        -11    1    3    3    0    0 -0.70543434608E+02  0.12989847916E+03  0.26511543278E+03  0.30353942702E+03  0.00000000000E+00 0. -1.
         11    1    3    3    0    0  0.18969019440E+02  0.10938420057E+03  0.27270237518E+03  0.29443388471E+03  0.00000000000E+00 0.  1.
<mgrwt>
<rscale>  0 0.36262407E+03</rscale>
<asrwt>0</asrwt>
<pdfrwt beam="1">  1        2 0.15902169E+00 0.40443294E+03</pdfrwt>
<pdfrwt beam="2">  1       -2 0.18134725E-01 0.40443294E+03</pdfrwt>
<totfact> 0.61964561E+02</totfact>
</mgrwt>
</event>
<event>
 7    1  0.5107591E-006  0.1266031E+03  0.7546771E-02  0.1246185E+00
          1   -1    0    0  501    0  0.00000000000E+00  0.00000000000E+00  0.13298401662E+03  0.13298401662E+03  0.00000000000E+00 0.  1.
         -1   -1    0    0    0  501 -0.00000000000E+00 -0.00000000000E+00 -0.11780101969E+03  0.11780101969E+03  0.00000000000E+00 0. -1.
         23    2    1    2    0    0  0.97492294596E+01 -0.17587658580E+02  0.63672259663E+02  0.11521382680E+03  0.93891938022E+02 0.  0.
          5    1    1    2  502    0  0.41021436117E+02  0.24084831899E+01 -0.67427230313E+02  0.79101709210E+02  0.47000000000E+01 0.  1.
         -5    1    1    2    0  502 -0.50770665576E+02  0.15179175390E+02  0.18937967577E+02  0.56469500304E+02  0.47000000000E+01 0.  1.
        -11    1    3    3    0    0  0.72951755141E+01  0.22770529473E+02 -0.13957054432E+02  0.27686024754E+02  0.00000000000E+00 0. -1.
         11    1    3    3    0    0  0.24540539455E+01 -0.40358188053E+02  0.77629314096E+02  0.87527802044E+02  0.00000000000E+00 0.  1.
<mgrwt>
<rscale>  0 0.11814763E+03</rscale>
<asrwt>0</asrwt>
<pdfrwt beam="1">  1        1 0.20459080E-01 0.12660310E+03</pdfrwt>
<pdfrwt beam="2">  1       -1 0.18123234E-01 0.12660310E+03</pdfrwt>
<totfact> 0.55685160E+03</totfact>
</mgrwt>
</event>
<event>
 7    1  0.5107591E-006  0.1361451E+03  0.7546771E-02  0.1230706E+00
         -1   -1    0    0    0  501 -0.00000000000E+00  0.00000000000E+00  0.32911531695E+03  0.32911531695E+03  0.00000000000E+00 0.  1.
          1   -1    0    0  501    0  0.00000000000E+00 -0.00000000000E+00 -0.44577528919E+02  0.44577528919E+02  0.00000000000E+00 0. -1.
         23    2    1    2    0    0 -0.53367462689E+02  0.79723592474E+01  0.11554925833E+03  0.15668452799E+03  0.91031673744E+02 0.  0.
          5    1    1    2  502    0 -0.18410014457E+02  0.27299392520E+01  0.13566098567E+03  0.13701231416E+03  0.47000000000E+01 0.  1.
         -5    1    1    2    0  502  0.71777477146E+02 -0.10702298499E+02  0.33327544029E+02  0.79996003711E+02  0.47000000000E+01 0.  1.
        -11    1    3    3    0    0 -0.77371847060E+02  0.92516167062E+01  0.68072930027E+02  0.10346941061E+03  0.00000000000E+00 0. -1.
         11    1    3    3    0    0  0.24004384371E+02 -0.12792574588E+01  0.47476328307E+02  0.53215117384E+02  0.00000000000E+00 0.  1.
<mgrwt>
<rscale>  0 0.12783390E+03</rscale>
<asrwt>0</asrwt>
<pdfrwt beam="2">  1        1 0.68580816E-02 0.13614509E+03</pdfrwt>
<pdfrwt beam="1">  1       -1 0.50633124E-01 0.13614509E+03</pdfrwt>
<totfact> 0.41298782E+03</totfact>
</mgrwt>
</event>
<event>
 7    1  0.5107591E-006  0.1363480E+03  0.7546771E-02  0.1229228E+00
          1   -1    0    0  501    0  0.00000000000E+00  0.00000000000E+00  0.22758843067E+02  0.22758843067E+02  0.00000000000E+00 0. -1.
         -1   -1    0    0    0  501 -0.00000000000E+00 -0.00000000000E+00 -0.65966851270E+03  0.65966851270E+03  0.00000000000E+00 0.  1.
         23    2    1    2    0    0  0.25773140634E+02 -0.47975415279E+02 -0.27306811605E+03  0.29387692013E+03  0.93976342405E+02 0.  0.
          5    1    1    2  502    0  0.33734805123E+02  0.44860308769E+02 -0.27983943477E+03  0.28545171857E+03  0.47000000000E+01 0.  1.
         -5    1    1    2    0  502 -0.59507945757E+02  0.31151065101E+01 -0.84002118805E+02  0.10309871707E+03  0.47000000000E+01 0.  1.
        -11    1    3    3    0    0  0.64315416499E+01  0.28216803190E+02 -0.92981434660E+02  0.97381209182E+02  0.00000000000E+00 0. -1.
         11    1    3    3    0    0  0.19341598984E+02 -0.76192218469E+02 -0.18008668139E+03  0.19649571095E+03  0.00000000000E+00 0.  1.
<mgrwt>
<rscale>  0 0.12881309E+03</rscale>
<asrwt>0</asrwt>
<pdfrwt beam="1">  1        1 0.35013601E-02 0.13634796E+03</pdfrwt>
<pdfrwt beam="2">  1       -1 0.10148747E+00 0.13634796E+03</pdfrwt>
<totfact> 0.25832200E+03</totfact>
</mgrwt>
</event>
<event>
 7    1  0.5107591E-006  0.2797407E+03  0.7546771E-02  0.1097664E+00
         -1   -1    0    0    0  501 -0.00000000000E+00  0.00000000000E+00  0.74768117981E+02  0.74768117981E+02  0.00000000000E+00 0.  1.
          1   -1    0    0  501    0  0.00000000000E+00 -0.00000000000E+00 -0.10069578055E+04  0.10069578055E+04  0.00000000000E+00 0. -1.
         23    2    1    2    0    0 -0.25024826202E+03 -0.22243008148E+01 -0.50516822486E+03  0.57123382825E+03  0.92108691095E+02 0.  0.
          5    1    1    2  502    0  0.25178455709E+03 -0.23449374952E+02 -0.37578043646E+03  0.45296618285E+03  0.47000000000E+01 0.  1.
         -5    1    1    2    0  502 -0.15362950749E+01  0.25673675766E+02 -0.51241026212E+02  0.57525912398E+02  0.47000000000E+01 0.  1.
        -11    1    3    3    0    0 -0.32945424911E+02 -0.32536063092E+02 -0.70792365714E+02  0.84590516416E+02  0.00000000000E+00 0.  1.
         11    1    3    3    0    0 -0.21730283710E+03  0.30311762277E+02 -0.43437585915E+03  0.48664331184E+03  0.00000000000E+00 0. -1.
<mgrwt>
<rscale>  0 0.27641427E+03</rscale>
<asrwt>0</asrwt>
<pdfrwt beam="2">  1        1 0.15491657E+00 0.27974068E+03</pdfrwt>
<pdfrwt beam="1">  1       -1 0.11502788E-01 0.27974068E+03</pdfrwt>
<totfact> 0.77520850E+02</totfact>
</mgrwt>
</event>
<event>
 7    1  0.5107591E-006  0.4311774E+03  0.7546771E-02  0.1034174E+00
         -2   -1    0    0    0  501 -0.00000000000E+00  0.00000000000E+00  0.16937372952E+03  0.16937372952E+03  0.00000000000E+00 0.  1.
          2   -1    0    0  501    0  0.00000000000E+00 -0.00000000000E+00 -0.12703648531E+04  0.12703648531E+04  0.00000000000E+00 0. -1.
         23    2    1    2    0    0  0.99411685144E+02  0.40050641209E+03 -0.82747570231E+03  0.92912655030E+03  0.90950751972E+02 0.  0.
          5    1    1    2  502    0 -0.11439144179E+03 -0.30337407874E+03 -0.25001418770E+03  0.40945136178E+03  0.47000000000E+01 0.  1.
         -5    1    1    2    0  502  0.14979756645E+02 -0.97132333352E+02 -0.23501233602E+02  0.10116067058E+03  0.47000000000E+01 0.  1.
        -11    1    3    3    0    0  0.65792012263E+02  0.30161155819E+03 -0.69460352677E+03  0.76011326809E+03  0.00000000000E+00 0. -1.
         11    1    3    3    0    0  0.33619672881E+02  0.98894853899E+02 -0.13287217554E+03  0.16901328221E+03  0.00000000000E+00 0.  1.
<mgrwt>
<rscale>  0 0.42900767E+03</rscale>
<asrwt>0</asrwt>
<pdfrwt beam="2">  1        2 0.19544075E+00 0.43117741E+03</pdfrwt>
<pdfrwt beam="1">  1       -2 0.26057496E-01 0.43117741E+03</pdfrwt>
<totfact> 0.23755493E+02</totfact>
</mgrwt>
</event>
<event>
 7    1  0.5107591E-006  0.1272838E+03  0.7546771E-02  0.1246807E+00
         -1   -1    0    0    0  501 -0.00000000000E+00  0.00000000000E+00  0.12472401165E+02  0.12472401165E+02  0.00000000000E+00 0.  1.
          1   -1    0    0  501    0  0.00000000000E+00 -0.00000000000E+00 -0.97584849368E+03  0.97584849368E+03  0.00000000000E+00 0. -1.
         23    2    1    2    0    0 -0.52803526631E+00  0.24001402891E+02 -0.39746157870E+03  0.40826881621E+03  0.90174129238E+02 0.  0.
          5    1    1    2  502    0  0.26962109161E+01  0.16659936971E+02 -0.58209902720E+01  0.18460687445E+02  0.47000000000E+01 0.  1.
         -5    1    1    2    0  502 -0.21681756498E+01 -0.40661339862E+02 -0.56009352354E+03  0.56159139118E+03  0.47000000000E+01 0.  1.
        -11    1    3    3    0    0 -0.16276170898E+02  0.55517632662E+02 -0.26066019986E+03  0.26700348512E+03  0.00000000000E+00 0. -1.
         11    1    3    3    0    0  0.15748135632E+02 -0.31516229771E+02 -0.13680137884E+03  0.14126533109E+03  0.00000000000E+00 0.  1.
<mgrwt>
<rscale>  0 0.11777904E+03</rscale>
<asrwt>0</asrwt>
<pdfrwt beam="2">  1        1 0.15013057E+00 0.12728384E+03</pdfrwt>
<pdfrwt beam="1">  1       -1 0.19188306E-02 0.12728384E+03</pdfrwt>
<totfact> 0.11637579E+04</totfact>
</mgrwt>
</event>
<event>
 7    1  0.5107591E-006  0.2197984E+03  0.7546771E-02  0.1134033E+00
          1   -1    0    0  501    0  0.00000000000E+00  0.00000000000E+00  0.26649021327E+03  0.26649021327E+03  0.00000000000E+00 0. -1.
         -1   -1    0    0    0  501 -0.00000000000E+00 -0.00000000000E+00 -0.45321858209E+02  0.45321858209E+02  0.00000000000E+00 0.  1.
         23    2    1    2    0    0  0.16622303621E+02  0.57737358795E+01  0.11067861351E+03  0.14406259459E+03  0.90524243536E+02 0.  0.
          5    1    1    2  502    0  0.51613185245E+02 -0.17348979247E+02  0.64395983854E+02  0.84462066684E+02  0.47000000000E+01 0.  1.
         -5    1    1    2    0  502 -0.68235488866E+02  0.11575243367E+02  0.46093757693E+02  0.83287410201E+02  0.47000000000E+01 0.  1.
        -11    1    3    3    0    0  0.70007922216E+01  0.47727349287E+02  0.68655484485E+02  0.83907606995E+02  0.00000000000E+00 0.  1.
         11    1    3    3    0    0  0.96215113993E+01 -0.41953613407E+02  0.42023129029E+02  0.60154987598E+02  0.00000000000E+00 0. -1.
<mgrwt>
<rscale>  0 0.21979838E+03</rscale>
<asrwt>0</asrwt>
<pdfrwt beam="1">  1        1 0.40998494E-01 0.21979838E+03</pdfrwt>
<pdfrwt beam="2">  1       -1 0.69725937E-02 0.21979838E+03</pdfrwt>
<totfact> 0.10578428E+04</totfact>
</mgrwt>
</event>
<event>
 7    1  0.5107591E-006  0.1664029E+03  0.7546771E-02  0.1188651E+00
         -1   -1    0    0    0  501 -0.00000000000E+00  0.00000000000E+00  0.20766381779E+03  0.20766381779E+03  0.00000000000E+00 0.  1.
          1   -1    0    0  501    0  0.00000000000E+00 -0.00000000000E+00 -0.12908420893E+03  0.12908420893E+03  0.00000000000E+00 0. -1.
         23    2    1    2    0    0 -0.10284475073E+03  0.38578113927E+02 -0.19320112600E+02  0.14368255569E+03  0.90587507036E+02 0.  0.
          5    1    1    2  502    0  0.88297196480E+02 -0.32638358496E+02  0.12789806747E+03  0.15887625063E+03  0.47000000000E+01 0. -1.
         -5    1    1    2    0  502  0.14547554252E+02 -0.59397554308E+01 -0.29998346006E+02  0.34189220412E+02  0.47000000000E+01 0. -1.
        -11    1    3    3    0    0 -0.60561297225E+02  0.38180007781E+01  0.32041477167E+02  0.68621455177E+02  0.00000000000E+00 0.  1.
         11    1    3    3    0    0 -0.42283453507E+02  0.34760113148E+02 -0.51361589768E+02  0.75061100512E+02  0.00000000000E+00 0. -1.
<mgrwt>
<rscale>  0 0.16004096E+03</rscale>
<asrwt>0</asrwt>
<pdfrwt beam="2">  1        1 0.19859109E-01 0.16640289E+03</pdfrwt>
<pdfrwt beam="1">  1       -1 0.31948280E-01 0.16640289E+03</pdfrwt>
<totfact> 0.23144406E+03</totfact>
</mgrwt>
</event>
<event>
 7    1  0.5107591E-006  0.1986363E+03  0.7546771E-02  0.1157269E+00
         -2   -1    0    0    0  501 -0.00000000000E+00  0.00000000000E+00  0.10261481479E+03  0.10261481479E+03  0.00000000000E+00 0.  1.
          2   -1    0    0  501    0  0.00000000000E+00 -0.00000000000E+00 -0.55288339231E+03  0.55288339231E+03  0.00000000000E+00 0. -1.
         23    2    1    2    0    0 -0.13579571143E+03  0.47550564492E+02 -0.42141294471E+03  0.45477696694E+03  0.92367138437E+02 0.  0.
          5    1    1    2  502    0  0.20853570417E+02 -0.45890421334E+02 -0.62897687684E+02  0.80740394385E+02  0.47000000000E+01 0. -1.
         -5    1    1    2    0  502  0.11494214101E+03 -0.16601431579E+01  0.34042054866E+02  0.11998084578E+03  0.47000000000E+01 0.  1.
        -11    1    3    3    0    0 -0.79352471812E+02  0.10944493832E+02 -0.10938465830E+03  0.13557876013E+03  0.00000000000E+00 0. -1.
         11    1    3    3    0    0 -0.56443239614E+02  0.36606070660E+02 -0.31202828641E+03  0.31919820680E+03  0.00000000000E+00 0.  1.
<mgrwt>
<rscale>  0 0.19132799E+03</rscale>
<asrwt>0</asrwt>
<pdfrwt beam="2">  1        2 0.85058983E-01 0.19863627E+03</pdfrwt>
<pdfrwt beam="1">  1       -2 0.15786895E-01 0.19863627E+03</pdfrwt>
<totfact> 0.17336560E+03</totfact>
</mgrwt>
</event>
<event>
 7    1  0.5107591E-006  0.2678699E+03  0.7546771E-02  0.1104560E+00
          1   -1    0    0  501    0  0.00000000000E+00  0.00000000000E+00  0.12005154523E+04  0.12005154523E+04  0.00000000000E+00 0.  1.
         -1   -1    0    0    0  501 -0.00000000000E+00 -0.00000000000E+00 -0.67325725477E+02  0.67325725477E+02  0.00000000000E+00 0. -1.
         23    2    1    2    0    0  0.20633604842E+03 -0.11641646483E+03  0.80542108191E+03  0.84453684612E+03  0.91716994707E+02 0.  0.
          5    1    1    2  502    0 -0.70381855592E+02  0.21820752479E+02  0.20263744151E+03  0.21567052079E+03  0.47000000000E+01 0. -1.
         -5    1    1    2    0  502 -0.13595419283E+03  0.94595712355E+02  0.12513120337E+03  0.20763381083E+03  0.47000000000E+01 0. -1.
        -11    1    3    3    0    0  0.16157179410E+03 -0.43190142346E+02  0.49624927188E+03  0.52367372751E+03  0.00000000000E+00 0.  1.
         11    1    3    3    0    0  0.44764254320E+02 -0.73226322488E+02  0.30917181003E+03  0.32086311861E+03  0.00000000000E+00 0. -1.
<mgrwt>
<rscale>  0 0.26434494E+03</rscale>
<asrwt>0</asrwt>
<pdfrwt beam="1">  1        1 0.18469467E+00 0.26786988E+03</pdfrwt>
<pdfrwt beam="2">  1       -1 0.10357805E-01 0.26786988E+03</pdfrwt>
<totfact> 0.66201386E+02</totfact>
</mgrwt>
</event>
<event>
 7    1  0.5107591E-006  0.2383923E+03  0.7546771E-02  0.1125114E+00
         -1   -1    0    0    0  501 -0.00000000000E+00  0.00000000000E+00  0.57691243737E+02  0.57691243737E+02  0.00000000000E+00 0.  1.
          1   -1    0    0  501    0  0.00000000000E+00 -0.00000000000E+00 -0.90890333775E+03  0.90890333775E+03  0.00000000000E+00 0. -1.
         23    2    1    2    0    0 -0.84614135785E+02  0.18451455877E+03 -0.47535134206E+03  0.52150786091E+03  0.69328033407E+02 0.  0.
          5    1    1    2  502    0  0.13713668107E+02  0.18265192766E+02 -0.31569241973E+02  0.39247789727E+02  0.47000000000E+01 0. -1.
         -5    1    1    2    0  502  0.70900467678E+02 -0.20277975154E+03 -0.34429150998E+03  0.40583893085E+03  0.47000000000E+01 0. -1.
        -11    1    3    3    0    0 -0.39194931529E+02  0.59109742620E+02 -0.24778736692E+03  0.25773781937E+03  0.00000000000E+00 0. -1.
         11    1    3    3    0    0 -0.45419204256E+02  0.12540481615E+03 -0.22756397514E+03  0.26377004154E+03  0.00000000000E+00 0.  1.
<mgrwt>
<rscale>  0 0.23218145E+03</rscale>
<asrwt>0</asrwt>
<pdfrwt beam="2">  1        1 0.13983127E+00 0.23839229E+03</pdfrwt>
<pdfrwt beam="1">  1       -1 0.88755771E-02 0.23839229E+03</pdfrwt>
<totfact> 0.13788925E+03</totfact>
</mgrwt>
</event>
<event>
 7    1  0.5107591E-006  0.1232964E+03  0.7546771E-02  0.1253681E+00
         -4   -1    0    0    0  501 -0.00000000000E+00  0.00000000000E+00  0.69037561559E+02  0.69037561559E+02  0.00000000000E+00 0.  1.
          4   -1    0    0  501    0  0.00000000000E+00 -0.00000000000E+00 -0.21883741752E+03  0.21883741752E+03  0.00000000000E+00 0. -1.
         23    2    1    2    0    0  0.73718866323E+01 -0.30853067917E+01 -0.13737345049E+03  0.16395392503E+03  0.89137875237E+02 0.  0.
          5    1    1    2  502    0 -0.47234201034E+02 -0.41282826426E+02 -0.12255787140E+02  0.64090840402E+02  0.47000000000E+01 0. -1.
         -5    1    1    2    0  502  0.39862314402E+02  0.44368133218E+02 -0.17061833170E+00  0.59830213649E+02  0.47000000000E+01 0.  1.
        -11    1    3    3    0    0  0.41079281520E+02  0.86262953212E+01 -0.32234168780E+02  0.52924115279E+02  0.00000000000E+00 0.  1.
         11    1    3    3    0    0 -0.33707394888E+02 -0.11711602113E+02 -0.10513928171E+03  0.11102980975E+03  0.00000000000E+00 0. -1.
<mgrwt>
<rscale>  0 0.11380545E+03</rscale>
<asrwt>0</asrwt>
<pdfrwt beam="2">  1        4 0.33667295E-01 0.12329644E+03</pdfrwt>
<pdfrwt beam="1">  1       -4 0.10621163E-01 0.12329644E+03</pdfrwt>
<totfact> 0.94446173E+02</totfact>
</mgrwt>
</event>
<event>
 7    1  0.5107591E-006  0.4344078E+03  0.7546771E-02  0.1033110E+00
          2   -1    0    0  501    0  0.00000000000E+00  0.00000000000E+00  0.11287606513E+04  0.11287606513E+04  0.00000000000E+00 0. -1.
         -2   -1    0    0    0  501 -0.00000000000E+00 -0.00000000000E+00 -0.28807884713E+03  0.28807884713E+03  0.00000000000E+00 0.  1.
         23    2    1    2    0    0 -0.14683521051E+03 -0.38926450712E+03  0.88282579762E+03  0.98039222989E+03  0.93274326296E+02 0.  0.
          5    1    1    2  502    0  0.14668580900E+03  0.36722358770E+03 -0.80111813857E+01  0.39554539430E+03  0.47000000000E+01 0. -1.
         -5    1    1    2    0  502  0.14940151177E+00  0.22040919423E+02 -0.34132812108E+02  0.40901874190E+02  0.47000000000E+01 0. -1.
        -11    1    3    3    0    0 -0.60348635675E+02 -0.24025163236E+03  0.43532608852E+03  0.50087084965E+03  0.00000000000E+00 0.  1.
         11    1    3    3    0    0 -0.86486574838E+02 -0.14901287476E+03  0.44749970910E+03  0.47952138025E+03  0.00000000000E+00 0. -1.
<mgrwt>
<rscale>  0 0.43238308E+03</rscale>
<asrwt>0</asrwt>
<pdfrwt beam="1">  1        2 0.17365548E+00 0.43440776E+03</pdfrwt>
<pdfrwt beam="2">  1       -2 0.44319823E-01 0.43440776E+03</pdfrwt>
<totfact> 0.10572764E+02</totfact>
</mgrwt>
</event>
<event>
 7    1  0.5107591E-006  0.1261989E+03  0.7546771E-02  0.1247884E+00
         -2   -1    0    0    0  501 -0.00000000000E+00  0.00000000000E+00  0.11016611797E+03  0.11016611797E+03  0.00000000000E+00 0.  1.
          2   -1    0    0  501    0  0.00000000000E+00 -0.00000000000E+00 -0.11358780345E+03  0.11358780345E+03  0.00000000000E+00 0. -1.
         23    2    1    2    0    0  0.94040649840E+01 -0.14585037099E+02 -0.21872967850E+02  0.96213283284E+02  0.92072848399E+02 0.  0.
          5    1    1    2  502    0  0.14138150390E+02  0.63190240478E+02 -0.10997342944E+02  0.65847743621E+02  0.47000000000E+01 0. -1.
         -5    1    1    2    0  502 -0.23542215374E+02 -0.48605203379E+02  0.29448625315E+02  0.61692894512E+02  0.47000000000E+01 0. -1.
        -11    1    3    3    0    0 -0.39386485406E+01 -0.43090155348E+02 -0.40812713015E+02  0.59480685806E+02  0.00000000000E+00 0.  1.
         11    1    3    3    0    0  0.13342713525E+02  0.28505118249E+02  0.18939745165E+02  0.36732597479E+02  0.00000000000E+00 0. -1.
<mgrwt>
<rscale>  0 0.11714390E+03</rscale>
<asrwt>0</asrwt>
<pdfrwt beam="2">  1        2 0.17475047E-01 0.12619891E+03</pdfrwt>
<pdfrwt beam="1">  1       -2 0.16948634E-01 0.12619891E+03</pdfrwt>
<totfact> 0.85002066E+03</totfact>
</mgrwt>
</event>
<event>
 7    1  0.5107591E-006  0.1843900E+03  0.7546771E-02  0.1168785E+00
         -2   -1    0    0    0  501 -0.00000000000E+00  0.00000000000E+00  0.26984463362E+02  0.26984463362E+02  0.00000000000E+00 0.  1.
          2   -1    0    0  501    0  0.00000000000E+00 -0.00000000000E+00 -0.12515021567E+04  0.12515021567E+04  0.00000000000E+00 0. -1.
         23    2    1    2    0    0  0.71646967370E+02 -0.11506179441E+03 -0.78442158243E+03  0.80132388709E+03  0.91816385113E+02 0.  0.
          5    1    1    2  502    0 -0.16041098971E+02  0.20682034070E+02 -0.29036280526E+03  0.29157796911E+03  0.47000000000E+01 0.  1.
         -5    1    1    2    0  502 -0.55605868399E+02  0.94379760339E+02 -0.14973330570E+03  0.18558476392E+03  0.47000000000E+01 0.  1.
        -11    1    3    3    0    0 -0.16805669080E+02 -0.49920656512E+01 -0.40688935516E+02  0.44305086684E+02  0.00000000000E+00 0.  1.
         11    1    3    3    0    0  0.88452636450E+02 -0.11006972876E+03 -0.74373264691E+03  0.75701880040E+03  0.00000000000E+00 0. -1.
<mgrwt>
<rscale>  0 0.17898866E+03</rscale>
<asrwt>0</asrwt>
<pdfrwt beam="2">  1        2 0.19253882E+00 0.18439004E+03</pdfrwt>
<pdfrwt beam="1">  1       -2 0.41514554E-02 0.18439004E+03</pdfrwt>
<totfact> 0.48076221E+03</totfact>
</mgrwt>
</event>
<event>
 7    1  0.5107591E-006  0.1413576E+03  0.7546771E-02  0.1222256E+00
         -2   -1    0    0    0  501 -0.00000000000E+00  0.00000000000E+00  0.46793137037E+02  0.46793137037E+02  0.00000000000E+00 0.  1.
          2   -1    0    0  501    0  0.00000000000E+00 -0.00000000000E+00 -0.40943673045E+03  0.40943673045E+03  0.00000000000E+00 0. -1.
         23    2    1    2    0    0 -0.20293189246E+02 -0.62809519603E+02 -0.25424107236E+03  0.27809204833E+03  0.91322588595E+02 0.  0.
          5    1    1    2  502    0 -0.51971907099E+02  0.23201042216E+02 -0.58140357490E+02  0.81496985566E+02  0.47000000000E+01 0.  1.
         -5    1    1    2    0  502  0.72265096345E+02  0.39608477388E+02 -0.50262163564E+02  0.96640833589E+02  0.47000000000E+01 0.  1.
        -11    1    3    3    0    0  0.18733908329E+02 -0.33615821653E+02 -0.20583090696E+03  0.20939757651E+03  0.00000000000E+00 0. -1.
         11    1    3    3    0    0 -0.39027097576E+02 -0.29193697950E+02 -0.48410165399E+02  0.68694471823E+02  0.00000000000E+00 0.  1.
<mgrwt>
<rscale>  0 0.13356744E+03</rscale>
<asrwt>0</asrwt>
<pdfrwt beam="2">  1        2 0.62990267E-01 0.14135762E+03</pdfrwt>
<pdfrwt beam="1">  1       -2 0.71989441E-02 0.14135762E+03</pdfrwt>
<totfact> 0.82922812E+03</totfact>
</mgrwt>
</event>
<event>
 7    1  0.5107591E-006  0.1143515E+03  0.7546771E-02  0.1263988E+00
         -1   -1    0    0    0  501 -0.00000000000E+00  0.00000000000E+00  0.33237045043E+03  0.33237045043E+03  0.00000000000E+00 0.  1.
          1   -1    0    0  501    0  0.00000000000E+00 -0.00000000000E+00 -0.19840645780E+03  0.19840645780E+03  0.00000000000E+00 0. -1.
         23    2    1    2    0    0  0.13586437236E+02  0.10498808018E+01 -0.17709197949E+03  0.19936767159E+03  0.90554987445E+02 0.  0.
          5    1    1    2  502    0 -0.52865076643E+02 -0.32267969958E+02  0.14171835454E+03  0.15473241492E+03  0.47000000000E+01 0. -1.
         -5    1    1    2    0  502  0.39278639408E+02  0.31218089156E+02  0.16933761758E+03  0.17667682172E+03  0.47000000000E+01 0.  1.
        -11    1    3    3    0    0 -0.18252332815E+02 -0.11529228370E+02 -0.28281577704E+01  0.21773131065E+02  0.00000000000E+00 0.  1.
         11    1    3    3    0    0  0.31838770051E+02  0.12579109172E+02 -0.17426382172E+03  0.17759454053E+03  0.00000000000E+00 0. -1.
<mgrwt>
<rscale>  0 0.10817455E+03</rscale>
<asrwt>0</asrwt>
<pdfrwt beam="2">  1        1 0.30524070E-01 0.11435149E+03</pdfrwt>
<pdfrwt beam="1">  1       -1 0.51133915E-01 0.11435149E+03</pdfrwt>
<totfact> 0.58427651E+02</totfact>
</mgrwt>
</event>
<event>
 7    1  0.5107591E-006  0.1916600E+03  0.7546771E-02  0.1161578E+00
          2   -1    0    0  501    0  0.00000000000E+00  0.00000000000E+00  0.84038772022E+03  0.84038772022E+03  0.00000000000E+00 0. -1.
         -2   -1    0    0    0  501 -0.00000000000E+00 -0.00000000000E+00 -0.39514385358E+02  0.39514385358E+02  0.00000000000E+00 0.  1.
         23    2    1    2    0    0 -0.10825773209E+03  0.96876734411E+02  0.40515601301E+03  0.44021386179E+03  0.92368885509E+02 0.  0.
          5    1    1    2  502    0  0.11885344758E+03 -0.10939230998E+03  0.28468988506E+03  0.32735796941E+03  0.47000000000E+01 0. -1.
         -5    1    1    2    0  502 -0.10595715490E+02  0.12515575569E+02  0.11102743680E+03  0.11233027437E+03  0.47000000000E+01 0. -1.
        -11    1    3    3    0    0 -0.49061574450E+02  0.79882971775E+02  0.32994517957E+03  0.34300459004E+03  0.00000000000E+00 0. -1.
         11    1    3    3    0    0 -0.59196157642E+02  0.16993762636E+02  0.75210833432E+02  0.97209271747E+02  0.00000000000E+00 0.  1.
<mgrwt>
<rscale>  0 0.18658538E+03</rscale>
<asrwt>0</asrwt>
<pdfrwt beam="1">  1        2 0.12929041E+00 0.19165999E+03</pdfrwt>
<pdfrwt beam="2">  1       -2 0.60791368E-02 0.19165999E+03</pdfrwt>
<totfact> 0.47605521E+03</totfact>
</mgrwt>
</event>
<event>
 7    1  0.5107591E-006  0.1494856E+03  0.7546771E-02  0.1210193E+00
          2   -1    0    0  501    0  0.00000000000E+00  0.00000000000E+00  0.20366830964E+03  0.20366830964E+03  0.00000000000E+00 0. -1.
         -2   -1    0    0    0  501 -0.00000000000E+00 -0.00000000000E+00 -0.91344165890E+02  0.91344165890E+02  0.00000000000E+00 0.  1.
         23    2    1    2    0    0 -0.78561465856E+02  0.23454114880E+02  0.58260192472E+02  0.13605066358E+03  0.91616230066E+02 0.  0.
          5    1    1    2  502    0 -0.22322497786E+02 -0.14539717371E+02  0.50764185093E+02  0.57522080775E+02  0.47000000000E+01 0. -1.
         -5    1    1    2    0  502  0.10088396364E+03 -0.89143975093E+01  0.32997661823E+01  0.10143973117E+03  0.47000000000E+01 0. -1.
        -11    1    3    3    0    0 -0.85403294015E+02 -0.91616596770E+01  0.26182819149E+02  0.89795315330E+02  0.00000000000E+00 0.  1.
         11    1    3    3    0    0  0.68418281588E+01  0.32615774557E+02  0.32077373322E+02  0.46255348250E+02  0.00000000000E+00 0. -1.
<mgrwt>
<rscale>  0 0.14235655E+03</rscale>
<asrwt>0</asrwt>
<pdfrwt beam="1">  1        2 0.31333586E-01 0.14948561E+03</pdfrwt>
<pdfrwt beam="2">  1       -2 0.14052949E-01 0.14948561E+03</pdfrwt>
<totfact> 0.61098965E+03</totfact>
</mgrwt>
</event>
<event>
 7    1  0.5107591E-006  0.1253907E+03  0.7546771E-02  0.1250132E+00
         -2   -1    0    0    0  501 -0.00000000000E+00  0.00000000000E+00  0.48396920321E+03  0.48396920321E+03  0.00000000000E+00 0. -1.
          2   -1    0    0  501    0  0.00000000000E+00 -0.00000000000E+00 -0.25016817108E+02  0.25016817108E+02  0.00000000000E+00 0.  1.
         23    2    1    2    0    0 -0.79902360709E+01  0.59497933428E+01  0.15072407443E+03  0.17622857739E+03  0.90771807090E+02 0.  0.
          5    1    1    2  502    0  0.35045673414E+02 -0.56480668191E+02  0.14190064086E+03  0.15676781232E+03  0.47000000000E+01 0.  1.
         -5    1    1    2    0  502 -0.27055437343E+02  0.50530874848E+02  0.16632767081E+03  0.17598963060E+03  0.47000000000E+01 0.  1.
        -11    1    3    3    0    0 -0.46280672792E+02 -0.11834116189E+02  0.64929614948E+02  0.80608944152E+02  0.00000000000E+00 0.  1.
         11    1    3    3    0    0  0.38290436721E+02  0.17783909531E+02  0.85794459486E+02  0.95619633240E+02  0.00000000000E+00 0. -1.
<mgrwt>
<rscale>  0 0.11583416E+03</rscale>
<asrwt>0</asrwt>
<pdfrwt beam="2">  1        2 0.38487415E-02 0.12539068E+03</pdfrwt>
<pdfrwt beam="1">  1       -2 0.74456794E-01 0.12539068E+03</pdfrwt>
<totfact> 0.35250914E+03</totfact>
</mgrwt>
</event>
<event>
 7    1  0.5107591E-006  0.1299078E+03  0.7546771E-02  0.1246192E+00
         -2   -1    0    0    0  501 -0.00000000000E+00  0.00000000000E+00  0.66447236849E+03  0.66447236849E+03  0.00000000000E+00 0.  1.
          2   -1    0    0  501    0  0.00000000000E+00 -0.00000000000E+00 -0.19942485309E+02  0.19942485309E+02  0.00000000000E+00 0. -1.
         23    2    1    2    0    0 -0.18473225943E+02 -0.30098264377E+02  0.16277510594E+03  0.18545223643E+03  0.81545271384E+02 0.  0.
          5    1    1    2  502    0  0.84933194524E+01 -0.53741776495E+01  0.44987145994E+03  0.45000826518E+03  0.47000000000E+01 0.  1.
         -5    1    1    2    0  502  0.99799064906E+01  0.35472442027E+02  0.31883317296E+02  0.48954352193E+02  0.47000000000E+01 0.  1.
        -11    1    3    3    0    0 -0.43462213397E+02 -0.41817293453E+02  0.12360368043E+03  0.13753370439E+03  0.00000000000E+00 0.  1.
         11    1    3    3    0    0  0.24988987454E+02  0.11719029076E+02  0.39171425509E+02  0.47918532040E+02  0.00000000000E+00 0. -1.
<mgrwt>
<rscale>  0 0.11814292E+03</rscale>
<asrwt>0</asrwt>
<pdfrwt beam="2">  1        2 0.30680752E-02 0.12990777E+03</pdfrwt>
<pdfrwt beam="1">  1       -2 0.10222650E+00 0.12990777E+03</pdfrwt>
<totfact> 0.23593335E+03</totfact>
</mgrwt>
</event>
<event>
 7    1  0.5107591E-006  0.1935589E+03  0.7546771E-02  0.1162677E+00
          2   -1    0    0  501    0  0.00000000000E+00  0.00000000000E+00  0.52826587100E+03  0.52826587100E+03  0.00000000000E+00 0. -1.
         -2   -1    0    0    0  501 -0.00000000000E+00 -0.00000000000E+00 -0.94394800960E+02  0.94394800960E+02  0.00000000000E+00 0.  1.
         23    2    1    2    0    0  0.10739032724E+03  0.10152057900E+03  0.39215858495E+03  0.42465820273E+03  0.68608476488E+02 0.  0.
          5    1    1    2  502    0 -0.57995738004E+02 -0.12187158305E+03  0.93658830798E+01  0.13537355040E+03  0.47000000000E+01 0. -1.
         -5    1    1    2    0  502 -0.49394589241E+02  0.20351004052E+02  0.32346602005E+02  0.62628918827E+02  0.47000000000E+01 0. -1.
        -11    1    3    3    0    0  0.10174566030E+03  0.55656970084E+02  0.29800375203E+03  0.31977509898E+03  0.00000000000E+00 0. -1.
         11    1    3    3    0    0  0.56446669494E+01  0.45863608917E+02  0.94154832927E+02  0.10488310375E+03  0.00000000000E+00 0.  1.
<mgrwt>
<rscale>  0 0.18540021E+03</rscale>
<asrwt>0</asrwt>
<pdfrwt beam="1">  1        2 0.81271670E-01 0.19355890E+03</pdfrwt>
<pdfrwt beam="2">  1       -2 0.14522277E-01 0.19355890E+03</pdfrwt>
<totfact> 0.20934766E+03</totfact>
</mgrwt>
</event>
<event>
 7    1  0.5107591E-006  0.2002229E+03  0.7546771E-02  0.1153659E+00
         -2   -1    0    0    0  501 -0.00000000000E+00  0.00000000000E+00  0.18335100340E+03  0.18335100340E+03  0.00000000000E+00 0.  1.
          2   -1    0    0  501    0  0.00000000000E+00 -0.00000000000E+00 -0.19958419625E+03  0.19958419625E+03  0.00000000000E+00 0. -1.
         23    2    1    2    0    0 -0.15258557143E+03  0.34377023107E+02 -0.18992223610E+02  0.18269332041E+03  0.92477069796E+02 0.  0.
          5    1    1    2  502    0  0.15522521959E+03 -0.64977904937E+02  0.88656124992E+01  0.16857546088E+03  0.47000000000E+01 0. -1.
         -5    1    1    2    0  502 -0.26396481617E+01  0.30600881831E+02 -0.61065817482E+01  0.31666418362E+02  0.47000000000E+01 0. -1.
        -11    1    3    3    0    0 -0.10857882109E+03  0.46572196385E+02  0.23335793831E+02  0.12042794169E+03  0.00000000000E+00 0.  1.
         11    1    3    3    0    0 -0.44006750339E+02 -0.12195173278E+02 -0.42328017441E+02  0.62265378720E+02  0.00000000000E+00 0. -1.
<mgrwt>
<rscale>  0 0.19542317E+03</rscale>
<asrwt>0</asrwt>
<pdfrwt beam="2">  1        2 0.30705261E-01 0.20022287E+03</pdfrwt>
<pdfrwt beam="1">  1       -2 0.28207847E-01 0.20022287E+03</pdfrwt>
<totfact> 0.19328453E+03</totfact>
</mgrwt>
</event>
<event>
 7    1  0.5107591E-006  0.2476157E+03  0.7546771E-02  0.1117458E+00
          2   -1    0    0  501    0  0.00000000000E+00  0.00000000000E+00  0.78087500105E+03  0.78087500105E+03  0.00000000000E+00 0. -1.
         -2   -1    0    0    0  501 -0.00000000000E+00 -0.00000000000E+00 -0.96669390023E+02  0.96669390023E+02  0.00000000000E+00 0.  1.
         23    2    1    2    0    0  0.21343705087E+03  0.11428414334E+02  0.54792642798E+03  0.59490403921E+03  0.89450891831E+02 0.  0.
          5    1    1    2  502    0 -0.21702404723E+03  0.14419213210E+02  0.10479273489E+03  0.24147662014E+03  0.47000000000E+01 0. -1.
         -5    1    1    2    0  502  0.35869963647E+01 -0.25847627544E+02  0.31486448154E+02  0.41163731730E+02  0.47000000000E+01 0. -1.
        -11    1    3    3    0    0  0.50956058920E+02 -0.35418013523E+01  0.25054957874E+03  0.25570325712E+03  0.00000000000E+00 0. -1.
         11    1    3    3    0    0  0.16248099195E+03  0.14970215686E+02  0.29737684924E+03  0.33920078208E+03  0.00000000000E+00 0.  1.
<mgrwt>
<rscale>  0 0.24353858E+03</rscale>
<asrwt>0</asrwt>
<pdfrwt beam="1">  1        2 0.12013461E+00 0.24761574E+03</pdfrwt>
<pdfrwt beam="2">  1       -2 0.14872214E-01 0.24761574E+03</pdfrwt>
<totfact> 0.12713544E+03</totfact>
</mgrwt>
</event>
<event>
 7    1  0.5107591E-006  0.1303035E+03  0.7546771E-02  0.1240423E+00
          1   -1    0    0  501    0  0.00000000000E+00  0.00000000000E+00  0.30362535084E+03  0.30362535084E+03  0.00000000000E+00 0. -1.
         -1   -1    0    0    0  501 -0.00000000000E+00 -0.00000000000E+00 -0.43608950520E+02  0.43608950520E+02  0.00000000000E+00 0.  1.
         23    2    1    2    0    0 -0.14788647960E+02  0.33691702786E+02  0.12749145204E+03  0.16137987810E+03  0.91845303456E+02 0.  0.
          5    1    1    2  502    0  0.42556255301E+02 -0.18974259757E+02 -0.27361525267E+01  0.46910914820E+02  0.47000000000E+01 0.  1.
         -5    1    1    2    0  502 -0.27767607341E+02 -0.14717443029E+02  0.13526110080E+03  0.13894350844E+03  0.47000000000E+01 0.  1.
        -11    1    3    3    0    0 -0.52908994713E+02  0.24331108660E+02  0.89318696755E+02  0.10662642337E+03  0.00000000000E+00 0.  1.
         11    1    3    3    0    0  0.38120346754E+02  0.93605941258E+01  0.38172755290E+02  0.54753454735E+02  0.00000000000E+00 0. -1.
<mgrwt>
<rscale>  0 0.12163584E+03</rscale>
<asrwt>0</asrwt>
<pdfrwt beam="1">  1        1 0.46711591E-01 0.13030351E+03</pdfrwt>
<pdfrwt beam="2">  1       -1 0.67090695E-02 0.13030351E+03</pdfrwt>
<totfact> 0.91890990E+03</totfact>
</mgrwt>
</event>
<event>
 7    1  0.5107591E-006  0.2142802E+03  0.7546771E-02  0.1141562E+00
          1   -1    0    0  501    0  0.00000000000E+00  0.00000000000E+00  0.19909928515E+03  0.19909928515E+03  0.00000000000E+00 0. -1.
         -1   -1    0    0    0  501 -0.00000000000E+00 -0.00000000000E+00 -0.22202687516E+03  0.22202687516E+03  0.00000000000E+00 0.  1.
         23    2    1    2    0    0  0.15106692028E+03 -0.86421722184E+02  0.31155806203E+02  0.20012609905E+03  0.93754161469E+02 0.  0.
          5    1    1    2  502    0 -0.10478557182E+03 -0.48749165538E+01 -0.54988013724E+02  0.11853080834E+03  0.47000000000E+01 0.  1.
         -5    1    1    2    0  502 -0.46281348466E+02  0.91296638738E+02  0.90461751471E+00  0.10246925292E+03  0.47000000000E+01 0.  1.
        -11    1    3    3    0    0  0.12133717645E+02 -0.39794468929E+02 -0.18309997223E+02  0.45454184180E+02  0.00000000000E+00 0.  1.
         11    1    3    3    0    0  0.13893320264E+03 -0.46627253255E+02  0.49465803426E+02  0.15467191487E+03  0.00000000000E+00 0. -1.
<mgrwt>
<rscale>  0 0.21000545E+03</rscale>
<asrwt>0</asrwt>
<pdfrwt beam="1">  1        1 0.30630659E-01 0.21428022E+03</pdfrwt>
<pdfrwt beam="2">  1       -1 0.34157981E-01 0.21428022E+03</pdfrwt>
<totfact> 0.11994278E+03</totfact>
</mgrwt>
</event>
<event>
 7    1  0.5107591E-006  0.2748370E+03  0.7546771E-02  0.1100537E+00
         -1   -1    0    0    0  501 -0.00000000000E+00  0.00000000000E+00  0.55349895087E+03  0.55349895087E+03  0.00000000000E+00 0.  1.
          1   -1    0    0  501    0  0.00000000000E+00 -0.00000000000E+00 -0.13307787863E+03  0.13307787863E+03  0.00000000000E+00 0. -1.
         23    2    1    2    0    0 -0.19037815860E+03  0.15387546276E+03  0.14998679055E+03  0.30099926658E+03  0.90460045508E+02 0.  0.
          5    1    1    2  502    0  0.79160655203E+02 -0.11833029871E+03  0.83469257939E+02  0.16509898832E+03  0.47000000000E+01 0. -1.
         -5    1    1    2    0  502  0.11121750340E+03 -0.35545164049E+02  0.18696502375E+03  0.22047857459E+03  0.47000000000E+01 0. -1.
        -11    1    3    3    0    0 -0.12183586882E+03  0.67605973349E+02  0.39191710126E+02  0.14474300227E+03  0.00000000000E+00 0. -1.
         11    1    3    3    0    0 -0.68542289783E+02  0.86269489408E+02  0.11079508042E+03  0.15625626432E+03  0.00000000000E+00 0.  1.
<mgrwt>
<rscale>  0 0.27130222E+03</rscale>
<asrwt>0</asrwt>
<pdfrwt beam="2">  1        1 0.20473520E-01 0.27483696E+03</pdfrwt>
<pdfrwt beam="1">  1       -1 0.85153684E-01 0.27483696E+03</pdfrwt>
<totfact> 0.35555865E+02</totfact>
</mgrwt>
</event>
<event>
 6    1  0.2004874E-005  0.1271816E+03  0.7546771E-02  0.1271834E+00
          2   -1    0    0  501    0  0.00000000000E+00  0.00000000000E+00  0.23331037169E+03  0.23331037169E+03  0.00000000000E+00 0. -1.
         -2   -1    0    0    0  501 -0.00000000000E+00 -0.00000000000E+00 -0.68792944064E+02  0.68792944064E+02  0.00000000000E+00 0.  1.
          5    1    1    2  502    0  0.26194200323E+02  0.49113988231E+01  0.43588834428E+02  0.51306280860E+02  0.47000000000E+01 0. -1.
         -5    1    1    2    0  502 -0.13700886941E+02 -0.59811705505E+02 -0.44386932566E+02  0.75877824171E+02  0.47000000000E+01 0.  1.
        -11    1    1    2    0    0 -0.47012581971E+01  0.94582140628E+01  0.40697622579E+02  0.42045881195E+02  0.00000000000E+00 0.  1.
         11    1    1    2    0    0 -0.77920551850E+01  0.45442092619E+02  0.12461790318E+03  0.13287332953E+03  0.00000000000E+00 0. -1.
<mgrwt>
<rscale>  0 0.10413466E+03</rscale>
<asrwt>0</asrwt>
<pdfrwt beam="1">  1        2 0.35893903E-01 0.12718160E+03</pdfrwt>
<pdfrwt beam="2">  1       -2 0.10583530E-01 0.12718160E+03</pdfrwt>
<totfact> 0.82202066E+03</totfact>
</mgrwt>
</event>
<event>
 7    1  0.5107591E-006  0.1334175E+03  0.7546771E-02  0.1228944E+00
         -1   -1    0    0    0  501 -0.00000000000E+00  0.00000000000E+00  0.25130332378E+03  0.25130332378E+03  0.00000000000E+00 0.  1.
          1   -1    0    0  501    0  0.00000000000E+00 -0.00000000000E+00 -0.11485201206E+03  0.11485201206E+03  0.00000000000E+00 0. -1.
         23    2    1    2    0    0 -0.57093974237E+02  0.44141437553E+02 -0.58074195105E+02  0.13027316383E+03  0.91598562619E+02 0.  0.
          5    1    1    2  502    0  0.40080613911E+02 -0.35901319464E+02  0.20621036018E+03  0.21316698384E+03  0.47000000000E+01 0. -1.
         -5    1    1    2    0  502  0.17013360326E+02 -0.82401180893E+01 -0.11684853363E+02  0.22715188175E+02  0.47000000000E+01 0.  1.
        -11    1    3    3    0    0 -0.53742631895E+02  0.78408936702E+01 -0.72909654283E+02  0.90915168065E+02  0.00000000000E+00 0.  1.
         11    1    3    3    0    0 -0.33513423422E+01  0.36300543883E+02  0.14835459178E+02  0.39357995766E+02  0.00000000000E+00 0. -1.
<mgrwt>
<rscale>  0 0.12900183E+03</rscale>
<asrwt>0</asrwt>
<pdfrwt beam="2">  1        1 0.17669540E-01 0.13341749E+03</pdfrwt>
<pdfrwt beam="1">  1       -1 0.38662050E-01 0.13341749E+03</pdfrwt>
<totfact> 0.19189281E+03</totfact>
</mgrwt>
</event>
<event>
 7    1  0.5107591E-006  0.1488013E+03  0.7546771E-02  0.1211324E+00
          2   -1    0    0  501    0  0.00000000000E+00  0.00000000000E+00  0.13728514739E+03  0.13728514739E+03  0.00000000000E+00 0. -1.
         -2   -1    0    0    0  501 -0.00000000000E+00 -0.00000000000E+00 -0.14297273748E+03  0.14297273748E+03  0.00000000000E+00 0.  1.
         23    2    1    2    0    0  0.74210108229E+02  0.31764853741E+02  0.33841456190E+02  0.12629559701E+03  0.91044975543E+02 0.  0.
          5    1    1    2  502    0 -0.37340363759E+02 -0.44480965674E+02 -0.79073765328E+02  0.98222245118E+02  0.47000000000E+01 0. -1.
         -5    1    1    2    0  502 -0.36869744469E+02  0.12716111933E+02  0.39544719050E+02  0.55740042741E+02  0.47000000000E+01 0. -1.
        -11    1    3    3    0    0 -0.12938421201E+00  0.12624510905E+02  0.46775676885E+02  0.48449550710E+02  0.00000000000E+00 0. -1.
         11    1    3    3    0    0  0.74339492441E+02  0.19140342836E+02 -0.12934220696E+02  0.77846046305E+02  0.00000000000E+00 0.  1.
<mgrwt>
<rscale>  0 0.14150032E+03</rscale>
<asrwt>0</asrwt>
<pdfrwt beam="1">  1        2 0.21120792E-01 0.14880135E+03</pdfrwt>
<pdfrwt beam="2">  1       -2 0.21995806E-01 0.14880135E+03</pdfrwt>
<totfact> 0.44678712E+03</totfact>
</mgrwt>
</event>
<event>
 7    1  0.5107591E-006  0.1464271E+03  0.7546771E-02  0.1212379E+00
         -1   -1    0    0    0  501 -0.00000000000E+00  0.00000000000E+00  0.71313956003E+02  0.71313956003E+02  0.00000000000E+00 0.  1.
          1   -1    0    0  501    0  0.00000000000E+00 -0.00000000000E+00 -0.27608165278E+03  0.27608165278E+03  0.00000000000E+00 0. -1.
         23    2    1    2    0    0  0.58377125463E+02  0.49078698423E+02 -0.13909791884E+03  0.18691694549E+03  0.98859021183E+02 0.  0.
          5    1    1    2  502    0 -0.72828593725E+02 -0.91926874449E+01 -0.86029469973E+02  0.11318864462E+03  0.47000000000E+01 0.  1.
         -5    1    1    2    0  502  0.14451468262E+02 -0.39886010979E+02  0.20359692034E+02  0.47290018677E+02  0.47000000000E+01 0.  1.
        -11    1    3    3    0    0  0.33608009383E+01 -0.27123970096E+02 -0.14788572208E+02  0.31075820257E+02  0.00000000000E+00 0. -1.
         11    1    3    3    0    0  0.55016324525E+02  0.76202668519E+02 -0.12430934663E+03  0.15584112523E+03  0.00000000000E+00 0.  1.
<mgrwt>
<rscale>  0 0.14070864E+03</rscale>
<asrwt>0</asrwt>
<pdfrwt beam="2">  1        1 0.42474100E-01 0.14642705E+03</pdfrwt>
<pdfrwt beam="1">  1       -1 0.10971378E-01 0.14642705E+03</pdfrwt>
<totfact> 0.49436346E+03</totfact>
</mgrwt>
</event>
<event>
 7    1  0.5107591E-006  0.1980484E+03  0.7546771E-02  0.1154401E+00
         -1   -1    0    0    0  501 -0.00000000000E+00  0.00000000000E+00  0.19045465212E+03  0.19045465212E+03  0.00000000000E+00 0.  1.
          1   -1    0    0  501    0  0.00000000000E+00 -0.00000000000E+00 -0.22233218907E+03  0.22233218907E+03  0.00000000000E+00 0. -1.
         23    2    1    2    0    0  0.96748372205E+02 -0.11933853631E+03 -0.91512488888E+02  0.20595480172E+03  0.10218077586E+03 0.  0.
          5    1    1    2  502    0  0.37086706096E+01 -0.23995271000E+01  0.48074031836E+02  0.48504788475E+02  0.47000000000E+01 0. -1.
         -5    1    1    2    0  502 -0.10045704281E+03  0.12173806341E+03  0.11560920102E+02  0.15832725100E+03  0.47000000000E+01 0. -1.
        -11    1    3    3    0    0  0.42161360806E+02 -0.41780288608E+02 -0.93894693667E+02  0.11108279057E+03  0.00000000000E+00 0. -1.
         11    1    3    3    0    0  0.54587011399E+02 -0.77558247704E+02  0.23822047792E+01  0.94872011152E+02  0.00000000000E+00 0.  1.
<mgrwt>
<rscale>  0 0.19457262E+03</rscale>
<asrwt>0</asrwt>
<pdfrwt beam="2">  1        1 0.34204952E-01 0.19804839E+03</pdfrwt>
<pdfrwt beam="1">  1       -1 0.29300716E-01 0.19804839E+03</pdfrwt>
<totfact> 0.13552072E+03</totfact>
</mgrwt>
</event>
<event>
 7    1  0.5107591E-006  0.1956779E+03  0.7546771E-02  0.1157925E+00
          2   -1    0    0  501    0  0.00000000000E+00  0.00000000000E+00  0.78216523793E+03  0.78216523793E+03  0.00000000000E+00 0. -1.
         -2   -1    0    0    0  501 -0.00000000000E+00 -0.00000000000E+00 -0.44303850933E+02  0.44303850933E+02  0.00000000000E+00 0.  1.
         23    2    1    2    0    0  0.49854871420E+02 -0.14207417861E+03  0.32822017929E+03  0.37249138520E+03  0.91382523076E+02 0.  0.
          5    1    1    2  502    0 -0.87514833282E+02  0.12807214319E+03  0.32846512037E+03  0.36328053238E+03  0.47000000000E+01 0. -1.
         -5    1    1    2    0  502  0.37659961862E+02  0.14002035419E+02  0.81176087335E+02  0.90697171281E+02  0.47000000000E+01 0. -1.
        -11    1    3    3    0    0  0.36097891571E+02 -0.15150400215E+03  0.31428044176E+03  0.35075449607E+03  0.00000000000E+00 0.  1.
         11    1    3    3    0    0  0.13756979849E+02  0.94298235365E+01  0.13939737523E+02  0.21736889122E+02  0.00000000000E+00 0. -1.
<mgrwt>
<rscale>  0 0.19059605E+03</rscale>
<asrwt>0</asrwt>
<pdfrwt beam="1">  1        2 0.12033310E+00 0.19567789E+03</pdfrwt>
<pdfrwt beam="2">  1       -2 0.68159777E-02 0.19567789E+03</pdfrwt>
<totfact> 0.43774202E+03</totfact>
</mgrwt>
</event>
<event>
 7    1  0.5107591E-006  0.2987751E+03  0.7546771E-02  0.1087565E+00
         -1   -1    0    0    0  501 -0.00000000000E+00  0.00000000000E+00  0.82563801717E+02  0.82563801717E+02  0.00000000000E+00 0.  1.
          1   -1    0    0  501    0  0.00000000000E+00 -0.00000000000E+00 -0.14558451877E+04  0.14558451877E+04  0.00000000000E+00 0. -1.
         23    2    1    2    0    0 -0.64526927370E+01 -0.27129167391E+03 -0.10897128248E+04  0.11264894827E+04  0.88677531094E+02 0.  0.
          5    1    1    2  502    0  0.65375471491E+02  0.13116015534E+03 -0.14336688039E+03  0.20506850322E+03  0.47000000000E+01 0. -1.
         -5    1    1    2    0  502 -0.58922778754E+02  0.14013151856E+03 -0.14020168082E+03  0.20685100351E+03  0.47000000000E+01 0. -1.
        -11    1    3    3    0    0  0.27022529996E+02 -0.17661811075E+03 -0.57681724432E+03  0.60385619771E+03  0.00000000000E+00 0.  1.
         11    1    3    3    0    0 -0.33475222733E+02 -0.94673563163E+02 -0.51289558051E+03  0.52263328502E+03  0.00000000000E+00 0. -1.
<mgrwt>
<rscale>  0 0.29539694E+03</rscale>
<asrwt>0</asrwt>
<pdfrwt beam="2">  1        1 0.22397619E+00 0.29877508E+03</pdfrwt>
<pdfrwt beam="1">  1       -1 0.12702123E-01 0.29877508E+03</pdfrwt>
<totfact> 0.32067861E+02</totfact>
</mgrwt>
</event>
<event>
 7    1  0.5107591E-006  0.1382347E+03  0.7546771E-02  0.1228093E+00
         -1   -1    0    0    0  501 -0.00000000000E+00  0.00000000000E+00  0.30201347954E+02  0.30201347954E+02  0.00000000000E+00 0.  1.
          1   -1    0    0  501    0  0.00000000000E+00 -0.00000000000E+00 -0.49875015462E+03  0.49875015462E+03  0.00000000000E+00 0. -1.
         23    2    1    2    0    0 -0.54903056681E+02 -0.21682954720E+02 -0.22134904076E+03  0.24572620518E+03  0.88890235164E+02 0.  0.
          5    1    1    2  502    0 -0.17138892113E+02 -0.38245151368E+02 -0.54635038501E+02  0.69018190776E+02  0.47000000000E+01 0.  1.
         -5    1    1    2    0  502  0.72041948794E+02  0.59928106089E+02 -0.19256472741E+03  0.21420710662E+03  0.47000000000E+01 0.  1.
        -11    1    3    3    0    0 -0.41451487502E+02  0.29958288570E+02 -0.13321416586E+03  0.14269456491E+03  0.00000000000E+00 0.  1.
         11    1    3    3    0    0 -0.13451569179E+02 -0.51641243290E+02 -0.88134874902E+02  0.10303164027E+03  0.00000000000E+00 0. -1.
<mgrwt>
<rscale>  0 0.12957140E+03</rscale>
<asrwt>0</asrwt>
<pdfrwt beam="2">  1        1 0.76730788E-01 0.13823475E+03</pdfrwt>
<pdfrwt beam="1">  1       -1 0.46463615E-02 0.13823475E+03</pdfrwt>
<totfact> 0.85130013E+03</totfact>
</mgrwt>
</event>
<event>
 7    1  0.5107591E-006  0.1363968E+03  0.7546771E-02  0.1230236E+00
          4   -1    0    0  501    0  0.00000000000E+00  0.00000000000E+00  0.86052675914E+02  0.86052675914E+02  0.00000000000E+00 0.  1.
         -4   -1    0    0    0  501 -0.00000000000E+00 -0.00000000000E+00 -0.20660452617E+03  0.20660452617E+03  0.00000000000E+00 0. -1.
         23    2    1    2    0    0  0.22121891410E+02 -0.49892415832E+02  0.62209998550E+01  0.10644377123E+03  0.91175349501E+02 0.  0.
          5    1    1    2  502    0 -0.35924764853E+02  0.29075104470E+02  0.96473246005E+01  0.47445877604E+02  0.47000000000E+01 0.  1.
         -5    1    1    2    0  502  0.13802873443E+02  0.20817311362E+02 -0.13642017471E+03  0.13876755326E+03  0.47000000000E+01 0.  1.
        -11    1    3    3    0    0 -0.34209950432E+02 -0.25915724839E+02  0.13009579215E+02  0.44846344933E+02  0.00000000000E+00 0.  1.
         11    1    3    3    0    0  0.56331841842E+02 -0.23976690993E+02 -0.67885793599E+01  0.61597426294E+02  0.00000000000E+00 0. -1.
<mgrwt>
<rscale>  0 0.12814376E+03</rscale>
<asrwt>0</asrwt>
<pdfrwt beam="1">  1        4 0.13238873E-01 0.13639680E+03</pdfrwt>
<pdfrwt beam="2">  1       -4 0.31785311E-01 0.13639680E+03</pdfrwt>
<totfact> 0.73925223E+02</totfact>
</mgrwt>
</event>
<event>
 7    1  0.5107591E-006  0.2047971E+03  0.7546771E-02  0.1145754E+00
          1   -1    0    0  501    0  0.00000000000E+00  0.00000000000E+00  0.12190361852E+03  0.12190361852E+03  0.00000000000E+00 0. -1.
         -1   -1    0    0    0  501 -0.00000000000E+00 -0.00000000000E+00 -0.86014347745E+02  0.86014347745E+02  0.00000000000E+00 0.  1.
         23    2    1    2    0    0  0.64114124364E+01 -0.10767657101E+02  0.24873382418E+02  0.95354202980E+02  0.91195889294E+02 0.  0.
          5    1    1    2  502    0 -0.45571985582E+02  0.40161639217E+02 -0.42128235660E+01  0.61070459445E+02  0.47000000000E+01 0. -1.
         -5    1    1    2    0  502  0.39160573145E+02 -0.29393982116E+02  0.15228711927E+02  0.51493303843E+02  0.47000000000E+01 0.  1.
        -11    1    3    3    0    0  0.29357381004E+02  0.25401943523E+02  0.33946040304E+02  0.51569838146E+02  0.00000000000E+00 0.  1.
         11    1    3    3    0    0 -0.22945968567E+02 -0.36169600624E+02 -0.90726578856E+01  0.43784364834E+02  0.00000000000E+00 0. -1.
<mgrwt>
<rscale>  0 0.20479707E+03</rscale>
<asrwt>0</asrwt>
<pdfrwt beam="1">  1        1 0.18754403E-01 0.20479707E+03</pdfrwt>
<pdfrwt beam="2">  1       -1 0.13232977E-01 0.20479707E+03</pdfrwt>
<totfact> 0.10568394E+04</totfact>
</mgrwt>
</event>
<event>
 7    1  0.5107591E-006  0.1341483E+03  0.7546771E-02  0.1233780E+00
          1   -1    0    0  501    0  0.00000000000E+00  0.00000000000E+00  0.44778192960E+02  0.44778192960E+02  0.00000000000E+00 0. -1.
         -1   -1    0    0    0  501 -0.00000000000E+00 -0.00000000000E+00 -0.33179164471E+03  0.33179164471E+03  0.00000000000E+00 0.  1.
         23    2    1    2    0    0  0.45327928888E+02 -0.17794145133E+02 -0.85607732893E+02  0.13457805065E+03  0.91713221767E+02 0.  0.
          5    1    1    2  502    0 -0.59889281551E+02  0.59367514917E+02 -0.97243769198E+02  0.12880088711E+03  0.47000000000E+01 0.  1.
         -5    1    1    2    0  502  0.14561352663E+02 -0.41573369785E+02 -0.10416194966E+03  0.11319089991E+03  0.47000000000E+01 0.  1.
        -11    1    3    3    0    0  0.62702589677E+02 -0.10659113449E+02 -0.94409875988E+02  0.11383521483E+03  0.00000000000E+00 0.  1.
         11    1    3    3    0    0 -0.17374660788E+02 -0.71350316841E+01  0.88021430949E+01  0.20742835816E+02  0.00000000000E+00 0. -1.
<mgrwt>
<rscale>  0 0.12582853E+03</rscale>
<asrwt>0</asrwt>
<pdfrwt beam="1">  1        1 0.68889525E-02 0.13414828E+03</pdfrwt>
<pdfrwt beam="2">  1       -1 0.51044870E-01 0.13414828E+03</pdfrwt>
<totfact> 0.40408254E+03</totfact>
</mgrwt>
</event>
<event>
 7    1  0.5107591E-006  0.1352570E+03  0.7546771E-02  0.1232799E+00
          1   -1    0    0  501    0  0.00000000000E+00  0.00000000000E+00  0.25301505757E+02  0.25301505757E+02  0.00000000000E+00 0. -1.
         -1   -1    0    0    0  501 -0.00000000000E+00 -0.00000000000E+00 -0.72050523856E+03  0.72050523856E+03  0.00000000000E+00 0.  1.
         23    2    1    2    0    0 -0.94323707044E+01  0.50808799925E+02 -0.13799842309E+03  0.17242013502E+03  0.89524490609E+02 0.  0.
          5    1    1    2  502    0 -0.31571688264E+01 -0.71714328997E+02 -0.16027326750E+03  0.17567732629E+03  0.47000000000E+01 0.  1.
         -5    1    1    2    0  502  0.12589539531E+02  0.20905529072E+02 -0.39693204221E+03  0.39770928300E+03  0.47000000000E+01 0.  1.
        -11    1    3    3    0    0  0.25990290204E+02  0.40258632511E+02 -0.12393185358E+03  0.13287346240E+03  0.00000000000E+00 0.  1.
         11    1    3    3    0    0 -0.35422660908E+02  0.10550167414E+02 -0.14066569511E+02  0.39546672630E+02  0.00000000000E+00 0. -1.
<mgrwt>
<rscale>  0 0.12646410E+03</rscale>
<asrwt>0</asrwt>
<pdfrwt beam="1">  1        1 0.38925392E-02 0.13525696E+03</pdfrwt>
<pdfrwt beam="2">  1       -1 0.11084696E+00 0.13525696E+03</pdfrwt>
<totfact> 0.18302468E+03</totfact>
</mgrwt>
</event>
<event>
 7    1  0.5107591E-006  0.1841901E+03  0.7546771E-02  0.1168729E+00
          4   -1    0    0  501    0  0.00000000000E+00  0.00000000000E+00  0.55329844740E+03  0.55329844740E+03  0.00000000000E+00 0. -1.
         -4   -1    0    0    0  501 -0.00000000000E+00 -0.00000000000E+00 -0.68561805740E+02  0.68561805740E+02  0.00000000000E+00 0.  1.
         23    2    1    2    0    0 -0.12709019208E+03 -0.46358807438E+02  0.36987717802E+03  0.40479189646E+03  0.93521637455E+02 0.  0.
          5    1    1    2  502    0  0.11428203923E+03 -0.20151312905E+02  0.68166183623E+02  0.13466691685E+03  0.47000000000E+01 0.  1.
         -5    1    1    2    0  502  0.12808152842E+02  0.66510120342E+02  0.46693280012E+02  0.82401439826E+02  0.47000000000E+01 0.  1.
        -11    1    3    3    0    0 -0.46794642828E+02  0.28104283642E+02  0.11058348701E+03  0.12332192407E+03  0.00000000000E+00 0.  1.
         11    1    3    3    0    0 -0.80295549248E+02 -0.74463091079E+02  0.25929369101E+03  0.28146997239E+03  0.00000000000E+00 0. -1.
<mgrwt>
<rscale>  0 0.17904625E+03</rscale>
<asrwt>0</asrwt>
<pdfrwt beam="1">  1        4 0.85122835E-01 0.18419005E+03</pdfrwt>
<pdfrwt beam="2">  1       -4 0.10547970E-01 0.18419005E+03</pdfrwt>
<totfact> 0.15057458E+02</totfact>
</mgrwt>
</event>
<event>
 7    1  0.5107591E-006  0.1494361E+03  0.7546771E-02  0.1210181E+00
         -3   -1    0    0    0  501 -0.00000000000E+00  0.00000000000E+00  0.20700062912E+03  0.20700062912E+03  0.00000000000E+00 0.  1.
          3   -1    0    0  501    0  0.00000000000E+00 -0.00000000000E+00 -0.10731604516E+03  0.10731604516E+03  0.00000000000E+00 0. -1.
         23    2    1    2    0    0  0.10366706362E+01  0.81858451298E+02 -0.17601573155E+02  0.12435040811E+03  0.91931104007E+02 0.  0.
          5    1    1    2  502    0 -0.55069719134E+00 -0.20248916859E+02  0.12587560239E+03  0.12758165690E+03  0.47000000000E+01 0.  1.
         -5    1    1    2    0  502 -0.48597344483E+00 -0.61609534439E+02 -0.85894452665E+01  0.62384609271E+02  0.47000000000E+01 0.  1.
        -11    1    3    3    0    0  0.12198324834E+02  0.66898450275E+02  0.29168635308E+02  0.73993317696E+02  0.00000000000E+00 0.  1.
         11    1    3    3    0    0 -0.11161654198E+02  0.14960001023E+02 -0.46770208462E+02  0.50357090411E+02  0.00000000000E+00 0. -1.
<mgrwt>
<rscale>  0 0.14236547E+03</rscale>
<asrwt>0</asrwt>
<pdfrwt beam="2">  1        3 0.16510161E-01 0.14943607E+03</pdfrwt>
<pdfrwt beam="1">  1       -3 0.31846250E-01 0.14943607E+03</pdfrwt>
<totfact> 0.70789298E+02</totfact>
</mgrwt>
</event>
<event>
 7    1  0.5107591E-006  0.1488902E+03  0.7546771E-02  0.1211363E+00
         -2   -1    0    0    0  501 -0.00000000000E+00  0.00000000000E+00  0.94531061872E+02  0.94531061872E+02  0.00000000000E+00 0.  1.
          2   -1    0    0  501    0  0.00000000000E+00 -0.00000000000E+00 -0.19392658969E+03  0.19392658969E+03  0.00000000000E+00 0. -1.
         23    2    1    2    0    0 -0.77044111457E+02  0.24464471152E+02 -0.35571646574E+02  0.12646450808E+03  0.90518640653E+02 0.  0.
          5    1    1    2  502    0 -0.38979632280E+01  0.77608543596E+01 -0.73545397782E+02  0.74205394094E+02  0.47000000000E+01 0. -1.
         -5    1    1    2    0  502  0.80942074685E+02 -0.32225325512E+02  0.97215165356E+01  0.87787749387E+02  0.47000000000E+01 0. -1.
        -11    1    3    3    0    0 -0.79579277358E+02  0.47620301689E+02 -0.12324022089E+02  0.93554454935E+02  0.00000000000E+00 0.  1.
         11    1    3    3    0    0  0.25351659006E+01 -0.23155830537E+02 -0.23247624485E+02  0.32910053148E+02  0.00000000000E+00 0. -1.
<mgrwt>
<rscale>  0 0.14147096E+03</rscale>
<asrwt>0</asrwt>
<pdfrwt beam="2">  1        2 0.29834860E-01 0.14889020E+03</pdfrwt>
<pdfrwt beam="1">  1       -2 0.14543240E-01 0.14889020E+03</pdfrwt>
<totfact> 0.60917734E+03</totfact>
</mgrwt>
</event>
<event>
 7    1  0.5107591E-006  0.3141792E+03  0.7546771E-02  0.1079907E+00
          1   -1    0    0  501    0  0.00000000000E+00  0.00000000000E+00  0.10562089998E+04  0.10562089998E+04  0.00000000000E+00 0. -1.
         -1   -1    0    0    0  501 -0.00000000000E+00 -0.00000000000E+00 -0.95287903125E+02  0.95287903125E+02  0.00000000000E+00 0.  1.
         23    2    1    2    0    0 -0.11428891092E+03 -0.26463789766E+03  0.61074434499E+03  0.68103721180E+03  0.87794401205E+02 0.  0.
          5    1    1    2  502    0  0.11758937900E+03  0.11851678647E+03  0.20464105031E+03  0.26414681561E+03  0.47000000000E+01 0. -1.
         -5    1    1    2    0  502 -0.33004680805E+01  0.14612111119E+03  0.14553570137E+03  0.20631287551E+03  0.47000000000E+01 0. -1.
        -11    1    3    3    0    0 -0.53826202509E+01 -0.53200039225E+02  0.55851070901E+02  0.77321141320E+02  0.00000000000E+00 0. -1.
         11    1    3    3    0    0 -0.10890629067E+03 -0.21143785843E+03  0.55489327409E+03  0.60371607048E+03  0.00000000000E+00 0.  1.
<mgrwt>
<rscale>  0 0.31091781E+03</rscale>
<asrwt>0</asrwt>
<pdfrwt beam="1">  1        1 0.16249368E+00 0.31417919E+03</pdfrwt>
<pdfrwt beam="2">  1       -1 0.14659678E-01 0.31417919E+03</pdfrwt>
<totfact> 0.48448282E+02</totfact>
</mgrwt>
</event>
<event>
 7    1  0.5107591E-006  0.1260386E+03  0.7546771E-02  0.1248606E+00
          2   -1    0    0  501    0  0.00000000000E+00  0.00000000000E+00  0.21021245839E+02  0.21021245839E+02  0.00000000000E+00 0. -1.
         -2   -1    0    0    0  501 -0.00000000000E+00 -0.00000000000E+00 -0.59102110655E+03  0.59102110655E+03  0.00000000000E+00 0.  1.
         23    2    1    2    0    0  0.98836122787E+01 -0.12760864484E+02 -0.18482541491E+03  0.20677075020E+03  0.91286273280E+02 0.  0.
          5    1    1    2  502    0  0.21474915072E+02  0.13322752033E+02 -0.36858624928E+03  0.36948150273E+03  0.47000000000E+01 0. -1.
         -5    1    1    2    0  502 -0.31358527351E+02 -0.56188754907E+00 -0.16588196518E+02  0.35790099455E+02  0.47000000000E+01 0. -1.
        -11    1    3    3    0    0  0.32537050166E+02  0.20022312172E+02 -0.35262592435E+02  0.51990412996E+02  0.00000000000E+00 0. -1.
         11    1    3    3    0    0 -0.22653437888E+02 -0.32783176656E+02 -0.14956282247E+03  0.15478033721E+03  0.00000000000E+00 0.  1.
<mgrwt>
<rscale>  0 0.11672131E+03</rscale>
<asrwt>0</asrwt>
<pdfrwt beam="1">  1        2 0.32340378E-02 0.12603856E+03</pdfrwt>
<pdfrwt beam="2">  1       -2 0.90926326E-01 0.12603856E+03</pdfrwt>
<totfact> 0.28651182E+03</totfact>
</mgrwt>
</event>
<event>
 7    1  0.5107591E-006  0.1259081E+03  0.7546771E-02  0.1249042E+00
         -2   -1    0    0    0  501 -0.00000000000E+00  0.00000000000E+00  0.11010526669E+03  0.11010526669E+03  0.00000000000E+00 0.  1.
          2   -1    0    0  501    0  0.00000000000E+00 -0.00000000000E+00 -0.11051131107E+03  0.11051131107E+03  0.00000000000E+00 0. -1.
         23    2    1    2    0    0  0.13437492242E+02 -0.80626914852E+01 -0.16619640100E+02  0.93668852573E+02  0.90840895601E+02 0.  0.
          5    1    1    2  502    0 -0.34176068801E+02 -0.43597568471E+02  0.37613262892E+02  0.67123760328E+02  0.47000000000E+01 0.  1.
         -5    1    1    2    0  502  0.20738576559E+02  0.51660259956E+02 -0.21399667167E+02  0.59823964857E+02  0.47000000000E+01 0.  1.
        -11    1    3    3    0    0  0.35718381257E+02  0.16742953175E+02  0.19928942415E+02  0.44196063020E+02  0.00000000000E+00 0.  1.
         11    1    3    3    0    0 -0.22280889015E+02 -0.24805644660E+02 -0.36548582515E+02  0.49472789553E+02  0.00000000000E+00 0. -1.
<mgrwt>
<rscale>  0 0.11646690E+03</rscale>
<asrwt>0</asrwt>
<pdfrwt beam="2">  1        2 0.17001740E-01 0.12590808E+03</pdfrwt>
<pdfrwt beam="1">  1       -2 0.16939272E-01 0.12590808E+03</pdfrwt>
<totfact> 0.87790022E+03</totfact>
</mgrwt>
</event>
<event>
 7    1  0.5107591E-006  0.1414026E+03  0.7546771E-02  0.1221941E+00
          2   -1    0    0  501    0  0.00000000000E+00  0.00000000000E+00  0.33678088852E+03  0.33678088852E+03  0.00000000000E+00 0. -1.
         -2   -1    0    0    0  501 -0.00000000000E+00 -0.00000000000E+00 -0.54175946216E+02  0.54175946216E+02  0.00000000000E+00 0.  1.
         23    2    1    2    0    0  0.59551499969E+02  0.28690139961E+02  0.19222096185E+03  0.22313563985E+03  0.92038634919E+02 0.  0.
          5    1    1    2  502    0 -0.56195462371E+02 -0.71421697963E+02  0.84716902055E+02  0.12433033590E+03  0.47000000000E+01 0. -1.
         -5    1    1    2    0  502 -0.33560375980E+01  0.42731558002E+02  0.56670783971E+01  0.43490858984E+02  0.47000000000E+01 0. -1.
        -11    1    3    3    0    0  0.22155620500E+02  0.24549397217E+02  0.18082404014E+03  0.18382295264E+03  0.00000000000E+00 0. -1.
         11    1    3    3    0    0  0.37395879468E+02  0.41407427443E+01  0.11396921712E+02  0.39312687217E+02  0.00000000000E+00 0.  1.
<mgrwt>
<rscale>  0 0.13378771E+03</rscale>
<asrwt>0</asrwt>
<pdfrwt beam="1">  1        2 0.51812443E-01 0.14140258E+03</pdfrwt>
<pdfrwt beam="2">  1       -2 0.83347612E-02 0.14140258E+03</pdfrwt>
<totfact> 0.81474874E+03</totfact>
</mgrwt>
</event>
<event>
 7    1  0.5107591E-006  0.1531499E+03  0.7546771E-02  0.1209359E+00
          2   -1    0    0  501    0  0.00000000000E+00  0.00000000000E+00  0.67547821048E+03  0.67547821048E+03  0.00000000000E+00 0. -1.
         -2   -1    0    0    0  501 -0.00000000000E+00 -0.00000000000E+00 -0.27256646362E+02  0.27256646362E+02  0.00000000000E+00 0.  1.
         23    2    1    2    0    0  0.62605151928E+02 -0.62555199166E+02  0.32099361023E+03  0.34144130338E+03  0.75582457309E+02 0.  0.
          5    1    1    2  502    0  0.12115745093E+02  0.12495589968E+02 -0.36356264522E+01  0.18391270416E+02  0.47000000000E+01 0.  1.
         -5    1    1    2    0  502 -0.74720897021E+02  0.50059609198E+02  0.33086358034E+03  0.34290228305E+03  0.47000000000E+01 0.  1.
        -11    1    3    3    0    0  0.45455332433E+01 -0.12930947562E+02  0.25188959358E+01  0.13936144160E+02  0.00000000000E+00 0.  1.
         11    1    3    3    0    0  0.58059618684E+02 -0.49624251604E+02  0.31847471430E+03  0.32750515922E+03  0.00000000000E+00 0. -1.
<mgrwt>
<rscale>  0 0.14299176E+03</rscale>
<asrwt>0</asrwt>
<pdfrwt beam="1">  1        2 0.10391971E+00 0.15314992E+03</pdfrwt>
<pdfrwt beam="2">  1       -2 0.41933307E-02 0.15314992E+03</pdfrwt>
<totfact> 0.10798228E+04</totfact>
</mgrwt>
</event>
<event>
 7    1  0.5107591E-006  0.1324937E+03  0.7546771E-02  0.1236997E+00
         -2   -1    0    0    0  501 -0.00000000000E+00  0.00000000000E+00  0.39367306090E+03  0.39367306090E+03  0.00000000000E+00 0.  1.
          2   -1    0    0  501    0  0.00000000000E+00 -0.00000000000E+00 -0.56135861945E+02  0.56135861945E+02  0.00000000000E+00 0. -1.
         23    2    1    2    0    0 -0.42674981757E+02  0.10420202536E+02  0.16167623831E+02  0.10219851939E+03  0.90848283510E+02 0.  0.
          5    1    1    2  502    0  0.12742522023E+02  0.56761968129E+02  0.15605984098E+03  0.16661649636E+03  0.47000000000E+01 0. -1.
         -5    1    1    2    0  502  0.29932459734E+02 -0.67182170665E+02  0.16530973415E+03  0.18099390709E+03  0.47000000000E+01 0. -1.
        -11    1    3    3    0    0 -0.55068592794E+02  0.40513422830E+02  0.11075533419E+02  0.69257164122E+02  0.00000000000E+00 0.  1.
         11    1    3    3    0    0  0.12393611037E+02 -0.30093220295E+02  0.50920904123E+01  0.32941355270E+02  0.00000000000E+00 0. -1.
<mgrwt>
<rscale>  0 0.12377466E+03</rscale>
<asrwt>0</asrwt>
<pdfrwt beam="2">  1        2 0.86362867E-02 0.13249373E+03</pdfrwt>
<pdfrwt beam="1">  1       -2 0.60565085E-01 0.13249373E+03</pdfrwt>
<totfact> 0.19287198E+03</totfact>
</mgrwt>
</event>
<event>
 7    1  0.5107591E-006  0.1263573E+03  0.7546771E-02  0.1245851E+00
         -1   -1    0    0    0  501 -0.00000000000E+00  0.00000000000E+00  0.25235144400E+03  0.25235144400E+03  0.00000000000E+00 0.  1.
          1   -1    0    0  501    0  0.00000000000E+00 -0.00000000000E+00 -0.63618224000E+02  0.63618224000E+02  0.00000000000E+00 0. -1.
         23    2    1    2    0    0 -0.63459853134E+01 -0.17302721664E+02  0.10935836596E+02  0.97845655346E+02  0.95470016453E+02 0.  0.
          5    1    1    2  502    0 -0.64901468046E+01 -0.92159692658E+01 -0.17068431516E+02  0.20987554633E+02  0.47000000000E+01 0. -1.
         -5    1    1    2    0  502  0.12836132118E+02  0.26518690929E+02  0.19486581492E+03  0.19713645802E+03  0.47000000000E+01 0. -1.
        -11    1    3    3    0    0  0.15105533421E+02 -0.13359756463E+02 -0.38694604216E+02  0.43634076456E+02  0.00000000000E+00 0. -1.
         11    1    3    3    0    0 -0.21451518734E+02 -0.39429652004E+01  0.49630440812E+02  0.54211578890E+02  0.00000000000E+00 0.  1.
<mgrwt>
<rscale>  0 0.11834593E+03</rscale>
<asrwt>0</asrwt>
<pdfrwt beam="2">  1        1 0.97874192E-02 0.12635733E+03</pdfrwt>
<pdfrwt beam="1">  1       -1 0.38823299E-01 0.12635733E+03</pdfrwt>
<totfact> 0.41018708E+03</totfact>
</mgrwt>
</event>
<event>
 7    1  0.5107591E-006  0.3242780E+03  0.7546771E-02  0.1117641E+00
         -1   -1    0    0    0  501 -0.00000000000E+00  0.00000000000E+00  0.63504562232E+03  0.63504562232E+03  0.00000000000E+00 0.  1.
          1   -1    0    0  501    0  0.00000000000E+00 -0.00000000000E+00 -0.13055766237E+03  0.13055766237E+03  0.00000000000E+00 0. -1.
         23    2    1    2    0    0 -0.43912393007E+02  0.23753083816E+02 -0.56818286440E+02  0.11735876791E+03  0.89734360651E+02 0.  0.
          5    1    1    2  502    0  0.10602232031E+03  0.10238684371E+03  0.13721810101E+03  0.20143161473E+03  0.47000000000E+01 0. -1.
         -5    1    1    2    0  502 -0.62109927301E+02 -0.12613992752E+03  0.42408814538E+03  0.44681290205E+03  0.47000000000E+01 0.  1.
        -11    1    3    3    0    0 -0.63882873437E+02 -0.36562296866E+01 -0.53272860789E+02  0.83260958622E+02  0.00000000000E+00 0.  1.
         11    1    3    3    0    0  0.19970480430E+02  0.27409313503E+02 -0.35454256510E+01  0.34097809290E+02  0.00000000000E+00 0. -1.
<mgrwt>
<rscale>  0 0.24325835E+03</rscale>
<asrwt>0</asrwt>
<pdfrwt beam="2">  1        1 0.20085795E-01 0.32427805E+03</pdfrwt>
<pdfrwt beam="1">  1       -1 0.97699325E-01 0.32427805E+03</pdfrwt>
<totfact> 0.26984694E+02</totfact>
</mgrwt>
</event>
<event>
 7    1  0.5107591E-006  0.1625602E+03  0.7546771E-02  0.1193523E+00
          2   -1    0    0  501    0  0.00000000000E+00  0.00000000000E+00  0.22409991442E+02  0.22409991442E+02  0.00000000000E+00 0. -1.
         -2   -1    0    0    0  501 -0.00000000000E+00 -0.00000000000E+00 -0.10958100814E+04  0.10958100814E+04  0.00000000000E+00 0.  1.
         23    2    1    2    0    0  0.69933950601E+02  0.76878804626E+02 -0.33214836884E+03  0.35935254453E+03  0.89501979248E+02 0.  0.
          5    1    1    2  502    0 -0.72688168097E+01 -0.81061797710E+02 -0.23553465622E+03  0.24924388664E+03  0.47000000000E+01 0. -1.
         -5    1    1    2    0  502 -0.62665133791E+02  0.41829930836E+01 -0.50571706485E+03  0.50962364163E+03  0.47000000000E+01 0. -1.
        -11    1    3    3    0    0  0.47930407484E+02  0.93819253099E+02 -0.29292021793E+03  0.31129026693E+03  0.00000000000E+00 0.  1.
         11    1    3    3    0    0  0.22003543117E+02 -0.16940448472E+02 -0.39228150908E+02  0.48062277596E+02  0.00000000000E+00 0. -1.
<mgrwt>
<rscale>  0 0.15579882E+03</rscale>
<asrwt>0</asrwt>
<pdfrwt beam="1">  1        2 0.34476910E-02 0.16256018E+03</pdfrwt>
<pdfrwt beam="2">  1       -2 0.16858616E+00 0.16256018E+03</pdfrwt>
<totfact> 0.59324043E+02</totfact>
</mgrwt>
</event>
<event>
 7    1  0.5107591E-006  0.1487554E+03  0.7546771E-02  0.1224892E+00
         -1   -1    0    0    0  501 -0.00000000000E+00  0.00000000000E+00  0.33837192296E+02  0.33837192296E+02  0.00000000000E+00 0.  1.
          1   -1    0    0  501    0  0.00000000000E+00 -0.00000000000E+00 -0.44659578513E+03  0.44659578513E+03  0.00000000000E+00 0. -1.
         23    2    1    2    0    0  0.62805709514E+01  0.78273789568E+00 -0.20894772732E+03  0.22810967553E+03  0.91295197393E+02 0.  0.
          5    1    1    2  502    0  0.43335242261E+01 -0.73350350647E+02 -0.12066332578E+03  0.14135339246E+03  0.47000000000E+01 0. -1.
         -5    1    1    2    0  502 -0.10614095178E+02  0.72567612751E+02 -0.83147539735E+02  0.11096990944E+03  0.47000000000E+01 0.  1.
        -11    1    3    3    0    0 -0.38938144883E+02  0.39056994057E+01 -0.54138147663E+02  0.66800992860E+02  0.00000000000E+00 0.  1.
         11    1    3    3    0    0  0.45218715834E+02 -0.31229615100E+01 -0.15480957966E+03  0.16130868267E+03  0.00000000000E+00 0. -1.
<mgrwt>
<rscale>  0 0.13174280E+03</rscale>
<asrwt>0</asrwt>
<pdfrwt beam="2">  1        1 0.68707043E-01 0.14875544E+03</pdfrwt>
<pdfrwt beam="1">  1       -1 0.52057220E-02 0.14875544E+03</pdfrwt>
<totfact> 0.83382856E+03</totfact>
</mgrwt>
</event>
<event>
 7    1  0.5107591E-006  0.1915101E+03  0.7546771E-02  0.1162368E+00
          2   -1    0    0  501    0  0.00000000000E+00  0.00000000000E+00  0.19559134367E+03  0.19559134367E+03  0.00000000000E+00 0. -1.
         -2   -1    0    0    0  501 -0.00000000000E+00 -0.00000000000E+00 -0.28474039302E+03  0.28474039302E+03  0.00000000000E+00 0.  1.
         23    2    1    2    0    0  0.11970130215E+03  0.81994780986E+02  0.11160773027E+03  0.20288009932E+03  0.87478588234E+02 0.  0.
          5    1    1    2  502    0  0.15405874180E+02 -0.48197787756E+02 -0.68842060787E+02  0.85566857118E+02  0.47000000000E+01 0.  1.
         -5    1    1    2    0  502 -0.13510717633E+03 -0.33796993230E+02 -0.13191471883E+03  0.19188478025E+03  0.47000000000E+01 0.  1.
        -11    1    3    3    0    0 -0.63269136545E+01  0.18930554710E+02 -0.42925088245E+01  0.20416203615E+02  0.00000000000E+00 0.  1.
         11    1    3    3    0    0  0.12602821580E+03  0.63064226275E+02  0.11590023909E+03  0.18246389570E+03  0.00000000000E+00 0. -1.
<mgrwt>
<rscale>  0 0.18573198E+03</rscale>
<asrwt>0</asrwt>
<pdfrwt beam="1">  1        2 0.30090976E-01 0.19151012E+03</pdfrwt>
<pdfrwt beam="2">  1       -2 0.43806214E-01 0.19151012E+03</pdfrwt>
<totfact> 0.86922639E+02</totfact>
</mgrwt>
</event>
<event>
 7    1  0.5107591E-006  0.1439925E+03  0.7546771E-02  0.1218100E+00
         -1   -1    0    0    0  501 -0.00000000000E+00  0.00000000000E+00  0.57941662776E+03  0.57941662776E+03  0.00000000000E+00 0.  1.
          1   -1    0    0  501    0  0.00000000000E+00 -0.00000000000E+00 -0.36507585912E+02  0.36507585912E+02  0.00000000000E+00 0. -1.
         23    2    1    2    0    0  0.56346751346E+02 -0.43879401368E+02  0.11155174714E+03  0.16116828799E+03  0.91820839204E+02 0.  0.
          5    1    1    2  502    0 -0.18029072158E+02  0.78032521578E+02  0.16515399734E+03  0.18360842765E+03  0.47000000000E+01 0. -1.
         -5    1    1    2    0  502 -0.38317679188E+02 -0.34153120210E+02  0.26620329737E+03  0.27114749804E+03  0.47000000000E+01 0. -1.
        -11    1    3    3    0    0  0.11812396806E+02  0.24404503630E+02  0.56876436047E+02  0.63008265276E+02  0.00000000000E+00 0.  1.
         11    1    3    3    0    0  0.44534354540E+02 -0.68283904998E+02  0.54675311090E+02  0.98160022712E+02  0.00000000000E+00 0. -1.
<mgrwt>
<rscale>  0 0.13651262E+03</rscale>
<asrwt>0</asrwt>
<pdfrwt beam="2">  1        1 0.56165521E-02 0.14399249E+03</pdfrwt>
<pdfrwt beam="1">  1       -1 0.89141013E-01 0.14399249E+03</pdfrwt>
<totfact> 0.17921373E+03</totfact>
</mgrwt>
</event>
<event>
 7    1  0.5107591E-006  0.1827255E+03  0.7546771E-02  0.1170623E+00
         -3   -1    0    0    0  501 -0.00000000000E+00  0.00000000000E+00  0.36445399204E+03  0.36445399204E+03  0.00000000000E+00 0.  1.
          3   -1    0    0  501    0  0.00000000000E+00 -0.00000000000E+00 -0.85771883628E+02  0.85771883628E+02  0.00000000000E+00 0. -1.
         23    2    1    2    0    0 -0.81735117376E+02  0.10527739659E+03  0.79175986703E+02  0.17968697744E+03  0.90854902701E+02 0.  0.
          5    1    1    2  502    0 -0.27430408797E+02 -0.51347570183E+02  0.86372318141E+02  0.10426537120E+03  0.47000000000E+01 0. -1.
         -5    1    1    2    0  502  0.10916552617E+03 -0.53929826409E+02  0.11313380356E+03  0.16627352703E+03  0.47000000000E+01 0. -1.
        -11    1    3    3    0    0 -0.64823102600E+02  0.61303198109E+02  0.94673739032E+02  0.13008932928E+03  0.00000000000E+00 0.  1.
         11    1    3    3    0    0 -0.16912014776E+02  0.43974198482E+02 -0.15497752329E+02  0.49597648162E+02  0.00000000000E+00 0. -1.
<mgrwt>
<rscale>  0 0.17711681E+03</rscale>
<asrwt>0</asrwt>
<pdfrwt beam="2">  1        3 0.13195675E-01 0.18272548E+03</pdfrwt>
<pdfrwt beam="1">  1       -3 0.56069844E-01 0.18272548E+03</pdfrwt>
<totfact> 0.35366286E+02</totfact>
</mgrwt>
</event>
<event>
 7    1  0.5107591E-006  0.2519155E+03  0.7546771E-02  0.1114447E+00
          1   -1    0    0  501    0  0.00000000000E+00  0.00000000000E+00  0.19856527481E+03  0.19856527481E+03  0.00000000000E+00 0. -1.
         -1   -1    0    0    0  501 -0.00000000000E+00 -0.00000000000E+00 -0.31930795806E+03  0.31930795806E+03  0.00000000000E+00 0.  1.
         23    2    1    2    0    0 -0.20531783534E+03 -0.75380180710E+02  0.25622983212E+01  0.23739947138E+03  0.92273281553E+02 0.  0.
          5    1    1    2  502    0  0.80702310561E+02 -0.86406566633E+01  0.68662244150E+01  0.81588963195E+02  0.47000000000E+01 0.  1.
         -5    1    1    2    0  502  0.12461552477E+03  0.84020837374E+02 -0.13017120598E+03  0.19888479830E+03  0.47000000000E+01 0.  1.
        -11    1    3    3    0    0 -0.70377221073E+02  0.91480108463E+01  0.27728003884E+02  0.76193710684E+02  0.00000000000E+00 0.  1.
         11    1    3    3    0    0 -0.13494061426E+03 -0.84528191557E+02 -0.25165705563E+02  0.16120576070E+03  0.00000000000E+00 0. -1.
<mgrwt>
<rscale>  0 0.24820171E+03</rscale>
<asrwt>0</asrwt>
<pdfrwt beam="1">  1        1 0.30548504E-01 0.25191549E+03</pdfrwt>
<pdfrwt beam="2">  1       -1 0.49124301E-01 0.25191549E+03</pdfrwt>
<totfact> 0.63022145E+02</totfact>
</mgrwt>
</event>
<event>
 7    1  0.5107591E-006  0.1478018E+03  0.7546771E-02  0.1211575E+00
          1   -1    0    0  501    0  0.00000000000E+00  0.00000000000E+00  0.18596293333E+03  0.18596293333E+03  0.00000000000E+00 0. -1.
         -1   -1    0    0    0  501 -0.00000000000E+00 -0.00000000000E+00 -0.13633640326E+03  0.13633640326E+03  0.00000000000E+00 0.  1.
         23    2    1    2    0    0 -0.78524545595E+02 -0.73850901648E+01  0.10734113375E+03  0.16362872714E+03  0.95034717512E+02 0.  0.
          5    1    1    2  502    0 -0.65938062861E+01  0.26159659680E+02 -0.65538730918E+02  0.71029721429E+02  0.47000000000E+01 0. -1.
         -5    1    1    2    0  502  0.85118351881E+02 -0.18774569516E+02  0.78241272388E+01  0.87640888029E+02  0.47000000000E+01 0. -1.
        -11    1    3    3    0    0 -0.65870180462E+02  0.34363551258E+02  0.42842762922E+02  0.85762676404E+02  0.00000000000E+00 0.  1.
         11    1    3    3    0    0 -0.12654365133E+02 -0.41748641423E+02  0.64498370828E+02  0.77866050734E+02  0.00000000000E+00 0. -1.
<mgrwt>
<rscale>  0 0.14131121E+03</rscale>
<asrwt>0</asrwt>
<pdfrwt beam="1">  1        1 0.28609682E-01 0.14780185E+03</pdfrwt>
<pdfrwt beam="2">  1       -1 0.20974831E-01 0.14780185E+03</pdfrwt>
<totfact> 0.29150965E+03</totfact>
</mgrwt>
</event>
<event>
 7    1  0.5107591E-006  0.1509494E+03  0.7546771E-02  0.1208462E+00
         -1   -1    0    0    0  501 -0.00000000000E+00  0.00000000000E+00  0.72874991750E+02  0.72874991750E+02  0.00000000000E+00 0.  1.
          1   -1    0    0  501    0  0.00000000000E+00 -0.00000000000E+00 -0.26828496586E+03  0.26828496586E+03  0.00000000000E+00 0. -1.
         23    2    1    2    0    0 -0.80569013585E+02 -0.25861934766E+02 -0.11973244191E+03  0.17230263402E+03  0.90510410590E+02 0.  0.
          5    1    1    2  502    0 -0.16904869973E+02  0.37413938068E+02  0.51165432763E+01  0.41639481332E+02  0.47000000000E+01 0.  1.
         -5    1    1    2    0  502  0.97473883558E+02 -0.11552003302E+02 -0.80794075473E+02  0.12721784225E+03  0.47000000000E+01 0.  1.
        -11    1    3    3    0    0 -0.70124318335E+02  0.13074299046E+02 -0.37197674046E+02  0.80448892298E+02  0.00000000000E+00 0.  1.
         11    1    3    3    0    0 -0.10444695250E+02 -0.38936233812E+02 -0.82534767865E+02  0.91853741725E+02  0.00000000000E+00 0. -1.
<mgrwt>
<rscale>  0 0.14367965E+03</rscale>
<asrwt>0</asrwt>
<pdfrwt beam="2">  1        1 0.41274609E-01 0.15094935E+03</pdfrwt>
<pdfrwt beam="1">  1       -1 0.11211537E-01 0.15094935E+03</pdfrwt>
<totfact> 0.49628513E+03</totfact>
</mgrwt>
</event>
<event>
 7    1  0.5107591E-006  0.1535879E+03  0.7546771E-02  0.1203954E+00
         -1   -1    0    0    0  501 -0.00000000000E+00  0.00000000000E+00  0.24386453254E+02  0.24386453254E+02  0.00000000000E+00 0.  1.
          1   -1    0    0  501    0  0.00000000000E+00 -0.00000000000E+00 -0.84400617327E+03  0.84400617327E+03  0.00000000000E+00 0. -1.
         23    2    1    2    0    0 -0.24547136148E+02  0.85812515884E+02 -0.44571699774E+03  0.46417424623E+03  0.93956048315E+02 0.  0.
          5    1    1    2  502    0  0.73825267130E+02 -0.34386572281E+02 -0.21758739094E+03  0.23237678265E+03  0.47000000000E+01 0.  1.
         -5    1    1    2    0  502 -0.49278130982E+02 -0.51425943603E+02 -0.15631533134E+03  0.17184159764E+03  0.47000000000E+01 0.  1.
        -11    1    3    3    0    0  0.10998003809E+02  0.21792258600E+01 -0.21775850288E+01  0.11421339225E+02  0.00000000000E+00 0.  1.
         11    1    3    3    0    0 -0.35545139957E+02  0.83633290024E+02 -0.44353941271E+03  0.45275290701E+03  0.00000000000E+00 0. -1.
<mgrwt>
<rscale>  0 0.14720155E+03</rscale>
<asrwt>0</asrwt>
<pdfrwt beam="2">  1        1 0.12984712E+00 0.15358793E+03</pdfrwt>
<pdfrwt beam="1">  1       -1 0.37517615E-02 0.15358793E+03</pdfrwt>
<totfact> 0.55969455E+03</totfact>
</mgrwt>
</event>
<event>
 7    1  0.5107591E-006  0.1738160E+03  0.7546771E-02  0.1179971E+00
          2   -1    0    0  501    0  0.00000000000E+00  0.00000000000E+00  0.96414342242E+03  0.96414342242E+03  0.00000000000E+00 0. -1.
         -2   -1    0    0    0  501 -0.00000000000E+00 -0.00000000000E+00 -0.27467320333E+02  0.27467320333E+02  0.00000000000E+00 0.  1.
         23    2    1    2    0    0 -0.11085504968E+03 -0.47881982461E+02  0.44324171748E+03  0.46845732133E+03  0.91692505205E+02 0.  0.
          5    1    1    2  502    0  0.22907258272E+02 -0.31910960540E+02  0.48335282317E+02  0.62461519360E+02  0.47000000000E+01 0.  1.
         -5    1    1    2    0  502  0.87947791403E+02  0.79792943001E+02  0.44509910229E+03  0.46069190206E+03  0.47000000000E+01 0.  1.
        -11    1    3    3    0    0 -0.36648335459E+02 -0.23613736710E+02  0.45079302157E+02  0.62712459179E+02  0.00000000000E+00 0.  1.
         11    1    3    3    0    0 -0.74206714216E+02 -0.24268245751E+02  0.39816241532E+03  0.40574486215E+03  0.00000000000E+00 0. -1.
<mgrwt>
<rscale>  0 0.16797996E+03</rscale>
<asrwt>0</asrwt>
<pdfrwt beam="1">  1        2 0.14832973E+00 0.17381602E+03</pdfrwt>
<pdfrwt beam="2">  1       -2 0.42257423E-02 0.17381602E+03</pdfrwt>
<totfact> 0.68568364E+03</totfact>
</mgrwt>
</event>
<event>
 7    1  0.5107591E-006  0.1843650E+03  0.7546771E-02  0.1169238E+00
          1   -1    0    0  501    0  0.00000000000E+00  0.00000000000E+00  0.46385673774E+02  0.46385673774E+02  0.00000000000E+00 0. -1.
         -1   -1    0    0    0  501 -0.00000000000E+00 -0.00000000000E+00 -0.93753675351E+03  0.93753675351E+03  0.00000000000E+00 0.  1.
         23    2    1    2    0    0  0.13235252650E+03 -0.29113029172E+02 -0.15230269027E+03  0.22241905517E+03  0.88934621500E+02 0.  0.
          5    1    1    2  502    0 -0.78104958764E+02 -0.33648701169E+02 -0.52883868225E+03  0.53565386353E+03  0.47000000000E+01 0.  1.
         -5    1    1    2    0  502 -0.54247567735E+02  0.62761730341E+02 -0.21000970722E+03  0.22584950858E+03  0.47000000000E+01 0.  1.
        -11    1    3    3    0    0  0.11120242215E+03  0.16972424286E+01 -0.14751605633E+03  0.18474264857E+03  0.00000000000E+00 0.  1.
         11    1    3    3    0    0  0.21150104346E+02 -0.30810271601E+02 -0.47866339373E+01  0.37676406602E+02  0.00000000000E+00 0. -1.
<mgrwt>
<rscale>  0 0.17852533E+03</rscale>
<asrwt>0</asrwt>
<pdfrwt beam="1">  1        1 0.71362569E-02 0.18436497E+03</pdfrwt>
<pdfrwt beam="2">  1       -1 0.14423644E+00 0.18436497E+03</pdfrwt>
<totfact> 0.42597448E+02</totfact>
</mgrwt>
</event>
<event>
 7    1  0.5107591E-006  0.1942828E+03  0.7546771E-02  0.1159134E+00
         -2   -1    0    0    0  501 -0.00000000000E+00  0.00000000000E+00  0.51708795501E+02  0.51708795501E+02  0.00000000000E+00 0.  1.
          2   -1    0    0  501    0  0.00000000000E+00 -0.00000000000E+00 -0.78852359598E+03  0.78852359598E+03  0.00000000000E+00 0. -1.
         23    2    1    2    0    0 -0.30017524922E+02 -0.14566924736E+03 -0.52227622632E+03  0.55079739774E+03  0.92112623208E+02 0.  0.
          5    1    1    2  502    0 -0.35670109936E+02  0.11130667925E+03 -0.15528917162E+03  0.19441797862E+03  0.47000000000E+01 0. -1.
         -5    1    1    2    0  502  0.65687634858E+02  0.34362568115E+02 -0.59249402545E+02  0.95017015122E+02  0.47000000000E+01 0. -1.
        -11    1    3    3    0    0  0.96601443987E+01 -0.16421410933E+02 -0.11113009810E+02  0.22056294201E+02  0.00000000000E+00 0.  1.
         11    1    3    3    0    0 -0.39677669320E+02 -0.12924783643E+03 -0.51116321651E+03  0.52874110354E+03  0.00000000000E+00 0. -1.
<mgrwt>
<rscale>  0 0.18925633E+03</rscale>
<asrwt>0</asrwt>
<pdfrwt beam="2">  1        2 0.12131132E+00 0.19428282E+03</pdfrwt>
<pdfrwt beam="1">  1       -2 0.79551998E-02 0.19428282E+03</pdfrwt>
<totfact> 0.34098694E+03</totfact>
</mgrwt>
</event>
<event>
 7    1  0.5107591E-006  0.1458729E+03  0.7546771E-02  0.1215643E+00
         -1   -1    0    0    0  501 -0.00000000000E+00  0.00000000000E+00  0.24686414003E+03  0.24686414003E+03  0.00000000000E+00 0.  1.
          1   -1    0    0  501    0  0.00000000000E+00 -0.00000000000E+00 -0.84932706345E+02  0.84932706345E+02  0.00000000000E+00 0. -1.
         23    2    1    2    0    0 -0.35961636483E+02  0.65998691845E+02  0.55908327382E+01  0.11797149343E+03  0.90757640050E+02 0.  0.
          5    1    1    2  502    0  0.72332744584E+02 -0.78346264376E+02  0.10716360404E+03  0.15124910284E+03  0.47000000000E+01 0.  1.
         -5    1    1    2    0  502 -0.36371108100E+02  0.12347572531E+02  0.49176996911E+02  0.62576250104E+02  0.47000000000E+01 0.  1.
        -11    1    3    3    0    0  0.24292261548E+02  0.36169724841E+02 -0.17399870475E+02  0.46916078894E+02  0.00000000000E+00 0.  1.
         11    1    3    3    0    0 -0.60253898032E+02  0.29828967004E+02  0.22990703214E+02  0.71055414535E+02  0.00000000000E+00 0. -1.
<mgrwt>
<rscale>  0 0.13829393E+03</rscale>
<asrwt>0</asrwt>
<pdfrwt beam="2">  1        1 0.13066570E-01 0.14587288E+03</pdfrwt>
<pdfrwt beam="1">  1       -1 0.37979098E-01 0.14587288E+03</pdfrwt>
<totfact> 0.29367000E+03</totfact>
</mgrwt>
</event>
<event>
 7    1  0.5107591E-006  0.1461851E+03  0.7546771E-02  0.1215387E+00
          1   -1    0    0  501    0  0.00000000000E+00  0.00000000000E+00  0.10314890917E+03  0.10314890917E+03  0.00000000000E+00 0. -1.
         -1   -1    0    0    0  501 -0.00000000000E+00 -0.00000000000E+00 -0.18595535702E+03  0.18595535702E+03  0.00000000000E+00 0.  1.
         23    2    1    2    0    0 -0.59269331188E+02 -0.47209241334E+02  0.63203130652E+01  0.11789189279E+03  0.90094316916E+02 0.  0.
          5    1    1    2  502    0  0.22431359680E+02  0.59761844731E+02  0.98464434311E+01  0.64758678422E+02  0.47000000000E+01 0. -1.
         -5    1    1    2    0  502  0.36837971507E+02 -0.12552603397E+02 -0.98973204343E+02  0.10645369498E+03  0.47000000000E+01 0. -1.
        -11    1    3    3    0    0 -0.66134905967E+02  0.35780714040E+01 -0.18124159176E+00  0.66231874734E+02  0.00000000000E+00 0.  1.
         11    1    3    3    0    0  0.68655747793E+01 -0.50787312738E+02  0.65015546569E+01  0.51660018052E+02  0.00000000000E+00 0. -1.
<mgrwt>
<rscale>  0 0.13848163E+03</rscale>
<asrwt>0</asrwt>
<pdfrwt beam="1">  1        1 0.15869063E-01 0.14618515E+03</pdfrwt>
<pdfrwt beam="2">  1       -1 0.28608516E-01 0.14618515E+03</pdfrwt>
<totfact> 0.36982101E+03</totfact>
</mgrwt>
</event>
<event>
 7    1  0.5107591E-006  0.1662292E+03  0.7546771E-02  0.1189260E+00
          1   -1    0    0  501    0  0.00000000000E+00  0.00000000000E+00  0.19240634484E+03  0.19240634484E+03  0.00000000000E+00 0. -1.
         -1   -1    0    0    0  501 -0.00000000000E+00 -0.00000000000E+00 -0.13625696794E+03  0.13625696794E+03  0.00000000000E+00 0.  1.
         23    2    1    2    0    0  0.44694817030E+02 -0.10003946118E+03 -0.25928241812E+02  0.14327482339E+03  0.88599553230E+02 0.  0.
          5    1    1    2  502    0 -0.33241612493E+02  0.67229493908E+02  0.11494288262E+03  0.13732722205E+03  0.47000000000E+01 0.  1.
         -5    1    1    2    0  502 -0.11453204537E+02  0.32809967267E+02 -0.32865263904E+02  0.48061267334E+02  0.47000000000E+01 0.  1.
        -11    1    3    3    0    0  0.36746596942E+02 -0.42284977933E+02  0.29081810631E+02  0.63119596443E+02  0.00000000000E+00 0. -1.
         11    1    3    3    0    0  0.79482200882E+01 -0.57754483242E+02 -0.55010052444E+02  0.80155226947E+02  0.00000000000E+00 0.  1.
<mgrwt>
<rscale>  0 0.15950172E+03</rscale>
<asrwt>0</asrwt>
<pdfrwt beam="1">  1        1 0.29600976E-01 0.16622923E+03</pdfrwt>
<pdfrwt beam="2">  1       -1 0.20962610E-01 0.16622923E+03</pdfrwt>
<totfact> 0.28105226E+03</totfact>
</mgrwt>
</event>
<event>
 7    1  0.5107591E-006  0.3739088E+03  0.7546771E-02  0.1054302E+00
          1   -1    0    0  501    0  0.00000000000E+00  0.00000000000E+00  0.23188516740E+04  0.23188516740E+04  0.00000000000E+00 0. -1.
         -1   -1    0    0    0  501 -0.00000000000E+00 -0.00000000000E+00 -0.58708538426E+02  0.58708538426E+02  0.00000000000E+00 0.  1.
         23    2    1    2    0    0  0.34269908785E+03  0.82091812023E+02  0.11888985095E+04  0.12429356744E+04  0.85015848014E+02 0.  0.
          5    1    1    2  502    0 -0.20252118956E+03 -0.10613928056E+03  0.72712697172E+03  0.76224412238E+03  0.47000000000E+01 0.  1.
         -5    1    1    2    0  502 -0.14017789829E+03  0.24047468538E+02  0.34411765437E+03  0.37238041565E+03  0.47000000000E+01 0.  1.
        -11    1    3    3    0    0  0.24027171905E+03  0.54620453131E+02  0.95224456688E+03  0.98360744610E+03  0.00000000000E+00 0. -1.
         11    1    3    3    0    0  0.10242736879E+03  0.27471358892E+02  0.23665394258E+03  0.25932822826E+03  0.00000000000E+00 0.  1.
<mgrwt>
<rscale>  0 0.37102449E+03</rscale>
<asrwt>0</asrwt>
<pdfrwt beam="1">  1        1 0.35674634E+00 0.37390880E+03</pdfrwt>
<pdfrwt beam="2">  1       -1 0.90320846E-02 0.37390880E+03</pdfrwt>
<totfact> 0.14601975E+02</totfact>
</mgrwt>
</event>
<event>
 7    1  0.5107591E-006  0.1316135E+03  0.7546771E-02  0.1238596E+00
         -2   -1    0    0    0  501 -0.00000000000E+00  0.00000000000E+00  0.39231552034E+02  0.39231552034E+02  0.00000000000E+00 0.  1.
          2   -1    0    0  501    0  0.00000000000E+00 -0.00000000000E+00 -0.34662222368E+03  0.34662222368E+03  0.00000000000E+00 0. -1.
         23    2    1    2    0    0  0.36623425512E+02 -0.18866837127E+02 -0.15755379190E+03  0.18642160040E+03  0.90733582066E+02 0.  0.
          5    1    1    2  502    0 -0.48889765396E+02  0.64574280145E+02 -0.73388392340E+02  0.10939832241E+03  0.47000000000E+01 0.  1.
         -5    1    1    2    0  502  0.12266339884E+02 -0.45707443018E+02 -0.76448487409E+02  0.90033852903E+02  0.47000000000E+01 0.  1.
        -11    1    3    3    0    0  0.64243117008E+02 -0.65596234454E+01 -0.13152876933E+03  0.14652652970E+03  0.00000000000E+00 0. -1.
         11    1    3    3    0    0 -0.27619691496E+02 -0.12307213682E+02 -0.26025022567E+02  0.39895070705E+02  0.00000000000E+00 0.  1.
<mgrwt>
<rscale>  0 0.12277017E+03</rscale>
<asrwt>0</asrwt>
<pdfrwt beam="2">  1        2 0.53326495E-01 0.13161346E+03</pdfrwt>
<pdfrwt beam="1">  1       -2 0.60356235E-02 0.13161346E+03</pdfrwt>
<totfact> 0.12890192E+04</totfact>
</mgrwt>
</event>
<event>
 7    1  0.5107591E-006  0.1250333E+03  0.7546771E-02  0.1247798E+00
         -1   -1    0    0    0  501 -0.00000000000E+00  0.00000000000E+00  0.11562454925E+03  0.11562454925E+03  0.00000000000E+00 0.  1.
          1   -1    0    0  501    0  0.00000000000E+00 -0.00000000000E+00 -0.10613527929E+03  0.10613527929E+03  0.00000000000E+00 0. -1.
         23    2    1    2    0    0  0.65043998222E+00  0.27655298400E+01  0.27335368612E+01  0.96544191615E+02  0.96463658874E+02 0.  0.
          5    1    1    2  502    0  0.51179806922E+02  0.58863345431E+01 -0.31028996111E+02  0.60323379967E+02  0.47000000000E+01 0. -1.
         -5    1    1    2    0  502 -0.51830246904E+02 -0.86518643832E+01  0.37784729209E+02  0.64892256956E+02  0.47000000000E+01 0. -1.
        -11    1    3    3    0    0 -0.18085958536E+02 -0.94143499915E+01 -0.41917316609E+02  0.46613231101E+02  0.00000000000E+00 0. -1.
         11    1    3    3    0    0  0.18736398519E+02  0.12179879831E+02  0.44650853471E+02  0.49930960514E+02  0.00000000000E+00 0.  1.
<mgrwt>
<rscale>  0 0.11719448E+03</rscale>
<asrwt>0</asrwt>
<pdfrwt beam="2">  1        1 0.16328505E-01 0.12503326E+03</pdfrwt>
<pdfrwt beam="1">  1       -1 0.17788392E-01 0.12503326E+03</pdfrwt>
<totfact> 0.76404723E+03</totfact>
</mgrwt>
</event>
<event>
 7    1  0.5107591E-006  0.1256181E+03  0.7546771E-02  0.1249215E+00
         -4   -1    0    0    0  501 -0.00000000000E+00  0.00000000000E+00  0.23231171274E+02  0.23231171274E+02  0.00000000000E+00 0.  1.
          4   -1    0    0  501    0  0.00000000000E+00 -0.00000000000E+00 -0.55380064479E+03  0.55380064479E+03  0.00000000000E+00 0. -1.
         23    2    1    2    0    0  0.11812422193E+02 -0.39699013599E+01 -0.30647344685E+03  0.32012923725E+03  0.91659486575E+02 0.  0.
          5    1    1    2  502    0  0.41204469774E+02  0.21525308033E+02 -0.31584322939E+02  0.56398640682E+02  0.47000000000E+01 0. -1.
         -5    1    1    2    0  502 -0.53016891967E+02 -0.17555406673E+02 -0.19251170372E+03  0.20050393813E+03  0.47000000000E+01 0. -1.
        -11    1    3    3    0    0  0.48035232719E+02 -0.16569547369E+02 -0.13090910677E+03  0.14042481162E+03  0.00000000000E+00 0.  1.
         11    1    3    3    0    0 -0.36222810527E+02  0.12599646009E+02 -0.17556434008E+03  0.17970442563E+03  0.00000000000E+00 0. -1.
<mgrwt>
<rscale>  0 0.11636645E+03</rscale>
<asrwt>0</asrwt>
<pdfrwt beam="2">  1        4 0.85200100E-01 0.12561810E+03</pdfrwt>
<pdfrwt beam="1">  1       -4 0.35740263E-02 0.12561810E+03</pdfrwt>
<totfact> 0.82277684E+02</totfact>
</mgrwt>
</event>
<event>
 7    1  0.5107591E-006  0.1374242E+03  0.7546771E-02  0.1231316E+00
         -2   -1    0    0    0  501 -0.00000000000E+00  0.00000000000E+00  0.22656667292E+02  0.22656667292E+02  0.00000000000E+00 0.  1.
          2   -1    0    0  501    0  0.00000000000E+00 -0.00000000000E+00 -0.65931981135E+03  0.65931981135E+03  0.00000000000E+00 0. -1.
         23    2    1    2    0    0  0.55795129978E+02  0.11962626590E+02 -0.34328916964E+03  0.35801089969E+03  0.84072286382E+02 0.  0.
          5    1    1    2  502    0 -0.73094246450E+02  0.15465164382E+02 -0.85994654907E+02  0.11401364324E+03  0.47000000000E+01 0. -1.
         -5    1    1    2    0  502  0.17299116472E+02 -0.27427790972E+02 -0.20737931951E+03  0.20995193571E+03  0.47000000000E+01 0. -1.
        -11    1    3    3    0    0  0.75119717215E+02  0.21544057423E+02 -0.29399597523E+03  0.30420511465E+03  0.00000000000E+00 0. -1.
         11    1    3    3    0    0 -0.19324587237E+02 -0.95814308332E+01 -0.49293194409E+02  0.53805785039E+02  0.00000000000E+00 0.  1.
<mgrwt>
<rscale>  0 0.12743251E+03</rscale>
<asrwt>0</asrwt>
<pdfrwt beam="2">  1        2 0.10143382E+00 0.13742419E+03</pdfrwt>
<pdfrwt beam="1">  1       -2 0.34856411E-02 0.13742419E+03</pdfrwt>
<totfact> 0.14513000E+04</totfact>
</mgrwt>
</event>
<event>
 7    1  0.5107591E-006  0.1342468E+03  0.7546771E-02  0.1233777E+00
         -1   -1    0    0    0  501 -0.00000000000E+00  0.00000000000E+00  0.15284492917E+03  0.15284492917E+03  0.00000000000E+00 0.  1.
          1   -1    0    0  501    0  0.00000000000E+00 -0.00000000000E+00 -0.95200712974E+02  0.95200712974E+02  0.00000000000E+00 0. -1.
         23    2    1    2    0    0  0.39821247803E+02 -0.28478483580E+02  0.46639608164E+01  0.10372268689E+03  0.91322984190E+02 0.  0.
          5    1    1    2  502    0 -0.35748107920E+02 -0.27935083186E+02 -0.21710997471E+02  0.50514883981E+02  0.47000000000E+01 0.  1.
         -5    1    1    2    0  502 -0.40731398826E+01  0.56413566766E+02  0.74691252849E+02  0.93808071273E+02  0.47000000000E+01 0.  1.
        -11    1    3    3    0    0  0.47166022377E+02 -0.38230000793E+02 -0.29457768675E+02  0.67482788641E+02  0.00000000000E+00 0. -1.
         11    1    3    3    0    0 -0.73447745747E+01  0.97515172131E+01  0.34121729491E+02  0.36239898248E+02  0.00000000000E+00 0.  1.
<mgrwt>
<rscale>  0 0.12583069E+03</rscale>
<asrwt>0</asrwt>
<pdfrwt beam="2">  1        1 0.14646264E-01 0.13424682E+03</pdfrwt>
<pdfrwt beam="1">  1       -1 0.23514604E-01 0.13424682E+03</pdfrwt>
<totfact> 0.56423963E+03</totfact>
</mgrwt>
</event>
<event>
 7    1  0.5107591E-006  0.1245898E+03  0.7546771E-02  0.1248124E+00
         -3   -1    0    0    0  501 -0.00000000000E+00  0.00000000000E+00  0.80803823239E+02  0.80803823239E+02  0.00000000000E+00 0.  1.
          3   -1    0    0  501    0  0.00000000000E+00 -0.00000000000E+00 -0.15526534657E+03  0.15526534657E+03  0.00000000000E+00 0. -1.
         23    2    1    2    0    0 -0.19628628840E+02 -0.24224298685E+02 -0.50214684816E+02  0.10914193605E+03  0.91751555386E+02 0.  0.
          5    1    1    2  502    0 -0.35461405792E+02  0.41215075379E+02 -0.39188668072E+02  0.67186571906E+02  0.47000000000E+01 0. -1.
         -5    1    1    2    0  502  0.55090034632E+02 -0.16990776694E+02  0.14941829557E+02  0.59740661856E+02  0.47000000000E+01 0.  1.
        -11    1    3    3    0    0 -0.27452036750E+02  0.25938448231E+02 -0.44011718862E+02  0.57995248215E+02  0.00000000000E+00 0. -1.
         11    1    3    3    0    0  0.78234079098E+01 -0.50162746916E+02 -0.62029659537E+01  0.51146687831E+02  0.00000000000E+00 0.  1.
<mgrwt>
<rscale>  0 0.11700316E+03</rscale>
<asrwt>0</asrwt>
<pdfrwt beam="2">  1        3 0.23886976E-01 0.12458978E+03</pdfrwt>
<pdfrwt beam="1">  1       -3 0.12431357E-01 0.12458978E+03</pdfrwt>
<totfact> 0.18868502E+03</totfact>
</mgrwt>
</event>
<event>
 7    1  0.5107591E-006  0.1622396E+03  0.7546771E-02  0.1195013E+00
         -2   -1    0    0    0  501 -0.00000000000E+00  0.00000000000E+00  0.17918189536E+03  0.17918189536E+03  0.00000000000E+00 0.  1.
          2   -1    0    0  501    0  0.00000000000E+00 -0.00000000000E+00 -0.12238418180E+03  0.12238418180E+03  0.00000000000E+00 0. -1.
         23    2    1    2    0    0  0.95851467499E+02 -0.16778857015E+02  0.17914718754E+02  0.13473207382E+03  0.91448131223E+02 0.  0.
          5    1    1    2  502    0 -0.61851087505E+02 -0.23734077955E+02 -0.35605750445E+02  0.75357301880E+02  0.47000000000E+01 0. -1.
         -5    1    1    2    0  502 -0.34000379994E+02  0.40512934970E+02  0.74488745250E+02  0.91476701452E+02  0.47000000000E+01 0.  1.
        -11    1    3    3    0    0  0.25040622883E+02 -0.31870154799E+02  0.42060438771E+02  0.58410787282E+02  0.00000000000E+00 0.  1.
         11    1    3    3    0    0  0.70810844616E+02  0.15091297784E+02 -0.24145720018E+02  0.76321286541E+02  0.00000000000E+00 0. -1.
<mgrwt>
<rscale>  0 0.15453153E+03</rscale>
<asrwt>0</asrwt>
<pdfrwt beam="2">  1        2 0.18828336E-01 0.16223963E+03</pdfrwt>
<pdfrwt beam="1">  1       -2 0.27566445E-01 0.16223963E+03</pdfrwt>
<totfact> 0.34475661E+03</totfact>
</mgrwt>
</event>
<event>
 7    1  0.5107591E-006  0.2055719E+03  0.7546771E-02  0.1149107E+00
         -1   -1    0    0    0  501 -0.00000000000E+00  0.00000000000E+00  0.27460676338E+02  0.27460676338E+02  0.00000000000E+00 0.  1.
          1   -1    0    0  501    0  0.00000000000E+00 -0.00000000000E+00 -0.14053719113E+04  0.14053719113E+04  0.00000000000E+00 0. -1.
         23    2    1    2    0    0 -0.99158712525E+02  0.12963266046E+03 -0.68751014321E+03  0.71247609044E+03  0.91186103675E+02 0.  0.
          5    1    1    2  502    0  0.18416391351E+02  0.21064457354E+02 -0.17590144512E+03  0.17817486699E+03  0.47000000000E+01 0.  1.
         -5    1    1    2    0  502  0.80742321174E+02 -0.15069711781E+03 -0.51449964668E+03  0.54218163025E+03  0.47000000000E+01 0.  1.
        -11    1    3    3    0    0 -0.79561319777E+02  0.46783304349E+02 -0.24409238122E+03  0.26095932967E+03  0.00000000000E+00 0.  1.
         11    1    3    3    0    0 -0.19597392748E+02  0.82849356112E+02 -0.44341776199E+03  0.45151676077E+03  0.00000000000E+00 0. -1.
<mgrwt>
<rscale>  0 0.20075059E+03</rscale>
<asrwt>0</asrwt>
<pdfrwt beam="2">  1        1 0.21621115E+00 0.20557192E+03</pdfrwt>
<pdfrwt beam="1">  1       -1 0.42247177E-02 0.20557192E+03</pdfrwt>
<totfact> 0.18764898E+03</totfact>
</mgrwt>
</event>
<event>
 7    1  0.5107591E-006  0.2151180E+03  0.7546771E-02  0.1141062E+00
          2   -1    0    0  501    0  0.00000000000E+00  0.00000000000E+00  0.84655961998E+03  0.84655961998E+03  0.00000000000E+00 0. -1.
         -2   -1    0    0    0  501 -0.00000000000E+00 -0.00000000000E+00 -0.87442917712E+02  0.87442917712E+02  0.00000000000E+00 0.  1.
         23    2    1    2    0    0  0.12141145575E+03 -0.12613493297E+03  0.67441541921E+03  0.70280985870E+03  0.91949860864E+02 0.  0.
          5    1    1    2  502    0  0.29106555160E+01  0.26179083604E+02 -0.25729291449E+02  0.37120112774E+02  0.47000000000E+01 0. -1.
         -5    1    1    2    0  502 -0.12432211127E+03  0.99955849363E+02  0.11043057451E+03  0.19407256622E+03  0.47000000000E+01 0. -1.
        -11    1    3    3    0    0  0.89953530437E+02 -0.35148038670E+02  0.41548089349E+03  0.42655761054E+03  0.00000000000E+00 0.  1.
         11    1    3    3    0    0  0.31457925317E+02 -0.90986894297E+02  0.25893452573E+03  0.27625224816E+03  0.00000000000E+00 0. -1.
<mgrwt>
<rscale>  0 0.21063829E+03</rscale>
<asrwt>0</asrwt>
<pdfrwt beam="1">  1        2 0.13023994E+00 0.21511798E+03</pdfrwt>
<pdfrwt beam="2">  1       -2 0.13452757E-01 0.21511798E+03</pdfrwt>
<totfact> 0.13514653E+03</totfact>
</mgrwt>
</event>
<event>
 7    1  0.5107591E-006  0.1623782E+03  0.7546771E-02  0.1193677E+00
          1   -1    0    0  501    0  0.00000000000E+00  0.00000000000E+00  0.23859868783E+03  0.23859868783E+03  0.00000000000E+00 0. -1.
         -1   -1    0    0    0  501 -0.00000000000E+00 -0.00000000000E+00 -0.26354360694E+03  0.26354360694E+03  0.00000000000E+00 0.  1.
         23    2    1    2    0    0  0.12312801216E+02 -0.10108265531E+03  0.18902147915E+03  0.23353795388E+03  0.91877897464E+02 0.  0.
          5    1    1    2  502    0 -0.27349207911E+02 -0.22540746186E+02 -0.66755838859E+02  0.75726457951E+02  0.47000000000E+01 0. -1.
         -5    1    1    2    0  502  0.15036406695E+02  0.12362340150E+03 -0.14721055941E+03  0.19287788293E+03  0.47000000000E+01 0.  1.
        -11    1    3    3    0    0 -0.12563326934E+02 -0.33871432675E+02  0.14499527187E+03  0.14942804288E+03  0.00000000000E+00 0. -1.
         11    1    3    3    0    0  0.24876128149E+02 -0.67211222637E+02  0.44026207282E+02  0.84109910996E+02  0.00000000000E+00 0.  1.
<mgrwt>
<rscale>  0 0.15566709E+03</rscale>
<asrwt>0</asrwt>
<pdfrwt beam="1">  1        1 0.36707490E-01 0.16237818E+03</pdfrwt>
<pdfrwt beam="2">  1       -1 0.40545170E-01 0.16237818E+03</pdfrwt>
<totfact> 0.70664100E+02</totfact>
</mgrwt>
</event>
<event>
 7    1  0.5107591E-006  0.1423203E+03  0.7546771E-02  0.1220275E+00
         -2   -1    0    0    0  501 -0.00000000000E+00  0.00000000000E+00  0.29943444099E+02  0.29943444099E+02  0.00000000000E+00 0.  1.
          2   -1    0    0  501    0  0.00000000000E+00 -0.00000000000E+00 -0.58344983022E+03  0.58344983022E+03  0.00000000000E+00 0. -1.
         23    2    1    2    0    0  0.22506390020E+02  0.64216000889E+02 -0.31845461006E+03  0.33861263701E+03  0.92816738324E+02 0.  0.
          5    1    1    2  502    0  0.46235839974E+02 -0.27794211217E+02 -0.14973033410E+03  0.15922165061E+03  0.47000000000E+01 0. -1.
         -5    1    1    2    0  502 -0.68742229994E+02 -0.36421789672E+02 -0.85321441971E+02  0.11555898670E+03  0.47000000000E+01 0. -1.
        -11    1    3    3    0    0  0.27087305594E+02 -0.93040740549E+01 -0.32483766574E+02  0.43306847140E+02  0.00000000000E+00 0. -1.
         11    1    3    3    0    0 -0.45809155740E+01  0.73520074943E+02 -0.28597084348E+03  0.29530578987E+03  0.00000000000E+00 0.  1.
<mgrwt>
<rscale>  0 0.13496070E+03</rscale>
<asrwt>0</asrwt>
<pdfrwt beam="2">  1        2 0.89761516E-01 0.14232028E+03</pdfrwt>
<pdfrwt beam="1">  1       -2 0.46066835E-02 0.14232028E+03</pdfrwt>
<totfact> 0.11058349E+04</totfact>
</mgrwt>
</event>
<event>
 7    1  0.5107591E-006  0.1343935E+03  0.7546771E-02  0.1232741E+00
          2   -1    0    0  501    0  0.00000000000E+00  0.00000000000E+00  0.61518628068E+03  0.61518628068E+03  0.00000000000E+00 0. -1.
         -2   -1    0    0    0  501 -0.00000000000E+00 -0.00000000000E+00 -0.23603867250E+02  0.23603867250E+02  0.00000000000E+00 0.  1.
         23    2    1    2    0    0  0.61187592676E+01  0.48968774426E+02  0.29090023240E+03  0.30944020549E+03  0.93246530654E+02 0.  0.
          5    1    1    2  502    0 -0.48635976122E+02 -0.50660717901E+02  0.26320487767E+03  0.27245341646E+03  0.47000000000E+01 0.  1.
         -5    1    1    2    0  502  0.42517216854E+02  0.16919434755E+01  0.37477303364E+02  0.56896525985E+02  0.47000000000E+01 0.  1.
        -11    1    3    3    0    0  0.17376278663E+01  0.76764569994E+02  0.22648872677E+03  0.23915050054E+03  0.00000000000E+00 0. -1.
         11    1    3    3    0    0  0.43811314013E+01 -0.27795795568E+02  0.64411505639E+02  0.70289704952E+02  0.00000000000E+00 0.  1.
<mgrwt>
<rscale>  0 0.12650189E+03</rscale>
<asrwt>0</asrwt>
<pdfrwt beam="1">  1        2 0.94644031E-01 0.13439349E+03</pdfrwt>
<pdfrwt beam="2">  1       -2 0.36313647E-02 0.13439349E+03</pdfrwt>
<totfact> 0.14774162E+04</totfact>
</mgrwt>
</event>
<event>
 7    1  0.5107591E-006  0.2153795E+03  0.7546771E-02  0.1140866E+00
         -3   -1    0    0    0  501 -0.00000000000E+00  0.00000000000E+00  0.10411652829E+03  0.10411652829E+03  0.00000000000E+00 0.  1.
          3   -1    0    0  501    0  0.00000000000E+00 -0.00000000000E+00 -0.41461376795E+03  0.41461376795E+03  0.00000000000E+00 0. -1.
         23    2    1    2    0    0 -0.16658595159E+03 -0.54869067398E+02 -0.17539253156E+03  0.26448310932E+03  0.91800224215E+02 0.  0.
          5    1    1    2  502    0  0.24438303515E+01 -0.29849156557E+02 -0.23757574385E+02  0.38515669469E+02  0.47000000000E+01 0. -1.
         -5    1    1    2    0  502  0.16414212123E+03  0.84718223955E+02 -0.11134713372E+03  0.21573151745E+03  0.47000000000E+01 0. -1.
        -11    1    3    3    0    0 -0.79848362337E+02 -0.31613762850E+02 -0.25214317375E+02  0.89503926004E+02  0.00000000000E+00 0.  1.
         11    1    3    3    0    0 -0.86737589249E+02 -0.23255304548E+02 -0.15017821419E+03  0.17497918332E+03  0.00000000000E+00 0. -1.
<mgrwt>
<rscale>  0 0.21088639E+03</rscale>
<asrwt>0</asrwt>
<pdfrwt beam="2">  1        3 0.63786732E-01 0.21537955E+03</pdfrwt>
<pdfrwt beam="1">  1       -3 0.16017928E-01 0.21537955E+03</pdfrwt>
<totfact> 0.19764920E+02</totfact>
</mgrwt>
</event>
<event>
 6    1  0.5107591E-006  0.1912662E+03  0.7546771E-02  0.1159487E+00
          2   -1    0    0  501    0  0.00000000000E+00  0.00000000000E+00  0.17821336261E+03  0.17821336261E+03  0.00000000000E+00 0. -1.
         -2   -1    0    0    0  501 -0.00000000000E+00 -0.00000000000E+00 -0.21401679308E+03  0.21401679308E+03  0.00000000000E+00 0.  1.
          5    1    1    2  502    0 -0.91446379770E+02 -0.24511051165E+02 -0.51948608353E+02  0.10809246001E+03  0.47000000000E+01 0. -1.
         -5    1    1    2    0  502 -0.28052450942E+02  0.80763406641E+02 -0.23529858420E+02  0.88799842867E+02  0.47000000000E+01 0. -1.
        -11    1    1    2    0    0 -0.18221578754E+02 -0.29118175524E+02 -0.23283507554E+02  0.41497178243E+02  0.00000000000E+00 0.  1.
         11    1    1    2    0    0  0.13772040947E+03 -0.27134179952E+02  0.62958543854E+02  0.15384067456E+03  0.00000000000E+00 0. -1.
<mgrwt>
<rscale>  0 0.18886753E+03</rscale>
<asrwt>0</asrwt>
<pdfrwt beam="1">  1        2 0.27417440E-01 0.19126622E+03</pdfrwt>
<pdfrwt beam="2">  1       -2 0.32925660E-01 0.19126622E+03</pdfrwt>
<totfact> 0.16502851E+03</totfact>
</mgrwt>
</event>
<event>
 7    1  0.5107591E-006  0.1349874E+03  0.7546771E-02  0.1233069E+00
          2   -1    0    0  501    0  0.00000000000E+00  0.00000000000E+00  0.11119659935E+04  0.11119659935E+04  0.00000000000E+00 0.  1.
         -2   -1    0    0    0  501 -0.00000000000E+00 -0.00000000000E+00 -0.13138311889E+02  0.13138311889E+02  0.00000000000E+00 0. -1.
         23    2    1    2    0    0  0.17293050342E+02 -0.47930766640E+02  0.57100055095E+03  0.58028958434E+03  0.89988691106E+02 0.  0.
          5    1    1    2  502    0 -0.29514997167E+02 -0.21730604508E+02  0.52318009893E+02  0.64051685296E+02  0.47000000000E+01 0. -1.
         -5    1    1    2    0  502  0.12221946824E+02  0.69661371147E+02  0.47550912079E+03  0.48076303578E+03  0.47000000000E+01 0. -1.
        -11    1    3    3    0    0  0.41572623838E+02  0.80888524761E+01  0.23067084229E+03  0.23452665109E+03  0.00000000000E+00 0.  1.
         11    1    3    3    0    0 -0.24279573496E+02 -0.56019619116E+02  0.34032970866E+03  0.34576293325E+03  0.00000000000E+00 0. -1.
<mgrwt>
<rscale>  0 0.12628866E+03</rscale>
<asrwt>0</asrwt>
<pdfrwt beam="1">  1        2 0.17107162E+00 0.13498741E+03</pdfrwt>
<pdfrwt beam="2">  1       -2 0.20212796E-02 0.13498741E+03</pdfrwt>
<totfact> 0.16404761E+04</totfact>
</mgrwt>
</event>
<event>
 7    1  0.5107591E-006  0.1443524E+03  0.7546771E-02  0.1215730E+00
          2   -1    0    0  501    0  0.00000000000E+00  0.00000000000E+00  0.12993962657E+03  0.12993962657E+03  0.00000000000E+00 0. -1.
         -2   -1    0    0    0  501 -0.00000000000E+00 -0.00000000000E+00 -0.13773403911E+03  0.13773403911E+03  0.00000000000E+00 0.  1.
         23    2    1    2    0    0  0.32548481331E+02  0.64445351718E+02  0.11995789701E+02  0.12197100370E+03  0.97572638471E+02 0.  0.
          5    1    1    2  502    0 -0.36364396224E+02 -0.80609591717E+02 -0.56563463654E+02  0.10507992677E+03  0.47000000000E+01 0. -1.
         -5    1    1    2    0  502  0.38159148936E+01  0.16164239998E+02  0.36773261416E+02  0.40622735215E+02  0.47000000000E+01 0. -1.
        -11    1    3    3    0    0 -0.16216314041E+02  0.38766914592E+02  0.41837676457E+02  0.59297838741E+02  0.00000000000E+00 0. -1.
         11    1    3    3    0    0  0.48764795372E+02  0.25678437126E+02 -0.29841886755E+02  0.62673164959E+02  0.00000000000E+00 0.  1.
<mgrwt>
<rscale>  0 0.13823069E+03</rscale>
<asrwt>0</asrwt>
<pdfrwt beam="1">  1        2 0.19990712E-01 0.14435239E+03</pdfrwt>
<pdfrwt beam="2">  1       -2 0.21189852E-01 0.14435239E+03</pdfrwt>
<totfact> 0.50586625E+03</totfact>
</mgrwt>
</event>
<event>
 7    1  0.5107591E-006  0.2022663E+03  0.7546771E-02  0.1151765E+00
         -2   -1    0    0    0  501 -0.00000000000E+00  0.00000000000E+00  0.56598971511E+02  0.56598971511E+02  0.00000000000E+00 0.  1.
          2   -1    0    0  501    0  0.00000000000E+00 -0.00000000000E+00 -0.71457581128E+03  0.71457581128E+03  0.00000000000E+00 0. -1.
         23    2    1    2    0    0 -0.14469197600E+03 -0.65798714053E+02 -0.42126755503E+03  0.45981818595E+03  0.93280075709E+02 0.  0.
          5    1    1    2  502    0  0.92083370473E+01  0.19587736427E+02  0.11373493844E+02  0.24898177679E+02  0.47000000000E+01 0.  1.
         -5    1    1    2    0  502  0.13548363895E+03  0.46210977626E+02 -0.24808277858E+03  0.28645841916E+03  0.47000000000E+01 0.  1.
        -11    1    3    3    0    0 -0.63539175069E+02  0.35390282850E+01 -0.25032129938E+03  0.25828376722E+03  0.00000000000E+00 0. -1.
         11    1    3    3    0    0 -0.81152800929E+02 -0.69337742338E+02 -0.17094625565E+03  0.20153441873E+03  0.00000000000E+00 0.  1.
<mgrwt>
<rscale>  0 0.19761678E+03</rscale>
<asrwt>0</asrwt>
<pdfrwt beam="2">  1        2 0.10993474E+00 0.20226627E+03</pdfrwt>
<pdfrwt beam="1">  1       -2 0.87075340E-02 0.20226627E+03</pdfrwt>
<totfact> 0.33470726E+03</totfact>
</mgrwt>
</event>
<event>
 7    1  0.5107591E-006  0.1448796E+03  0.7546771E-02  0.1216641E+00
         -2   -1    0    0    0  501 -0.00000000000E+00  0.00000000000E+00  0.39701610361E+02  0.39701610361E+02  0.00000000000E+00 0.  1.
          2   -1    0    0  501    0  0.00000000000E+00 -0.00000000000E+00 -0.48469515256E+03  0.48469515256E+03  0.00000000000E+00 0. -1.
         23    2    1    2    0    0 -0.73206725912E+02  0.23747755233E+01 -0.28597834292E+03  0.30927834471E+03  0.92220483651E+02 0.  0.
          5    1    1    2  502    0  0.47860129464E+02 -0.66089940656E+01 -0.17691272743E+03  0.18345155742E+03  0.47000000000E+01 0.  1.
         -5    1    1    2    0  502  0.25346596448E+02  0.42342185423E+01  0.17897528156E+02  0.31666860789E+02  0.47000000000E+01 0.  1.
        -11    1    3    3    0    0  0.99573989578E+01  0.20027394809E+02 -0.19864510739E+02  0.29913962020E+02  0.00000000000E+00 0.  1.
         11    1    3    3    0    0 -0.83164124870E+02 -0.17652619286E+02 -0.26611383219E+03  0.27936438269E+03  0.00000000000E+00 0. -1.
<mgrwt>
<rscale>  0 0.13756659E+03</rscale>
<asrwt>0</asrwt>
<pdfrwt beam="2">  1        2 0.74568487E-01 0.14487961E+03</pdfrwt>
<pdfrwt beam="1">  1       -2 0.61079399E-02 0.14487961E+03</pdfrwt>
<totfact> 0.88925878E+03</totfact>
</mgrwt>
</event>
<event>
 7    1  0.5107591E-006  0.2787460E+03  0.7546771E-02  0.1096942E+00
         -1   -1    0    0    0  501 -0.00000000000E+00  0.00000000000E+00  0.82360751714E+02  0.82360751714E+02  0.00000000000E+00 0.  1.
          1   -1    0    0  501    0  0.00000000000E+00 -0.00000000000E+00 -0.10802814763E+04  0.10802814763E+04  0.00000000000E+00 0. -1.
         23    2    1    2    0    0 -0.22123529026E+03  0.11457613958E+03 -0.71288672270E+03  0.76396473713E+03  0.11559366227E+03 0.  0.
          5    1    1    2  502    0  0.18698840155E+03 -0.10279314843E+03 -0.29181007351E+03  0.36153326636E+03  0.47000000000E+01 0.  1.
         -5    1    1    2    0  502  0.34246888711E+02 -0.11782991155E+02  0.67760716522E+01  0.37144224504E+02  0.47000000000E+01 0.  1.
        -11    1    3    3    0    0 -0.16778965095E+03  0.31835637046E+02 -0.52093025258E+03  0.54821091088E+03  0.00000000000E+00 0. -1.
         11    1    3    3    0    0 -0.53445639309E+02  0.82740502535E+02 -0.19195647012E+03  0.21575382625E+03  0.00000000000E+00 0.  1.
<mgrwt>
<rscale>  0 0.27771727E+03</rscale>
<asrwt>0</asrwt>
<pdfrwt beam="2">  1        1 0.16619714E+00 0.27874605E+03</pdfrwt>
<pdfrwt beam="1">  1       -1 0.12670886E-01 0.27874605E+03</pdfrwt>
<totfact> 0.58795476E+02</totfact>
</mgrwt>
</event>
<event>
 7    1  0.5107591E-006  0.1272560E+03  0.7546771E-02  0.1246980E+00
          2   -1    0    0  501    0  0.00000000000E+00  0.00000000000E+00  0.17226724790E+03  0.17226724790E+03  0.00000000000E+00 0.  1.
         -2   -1    0    0    0  501 -0.00000000000E+00 -0.00000000000E+00 -0.74431599639E+02  0.74431599639E+02  0.00000000000E+00 0. -1.
         23    2    1    2    0    0 -0.21985662169E+01  0.23718192528E+02  0.69981791097E+02  0.11643014936E+03  0.89950776787E+02 0.  0.
          5    1    1    2  502    0 -0.50288327052E+02 -0.28240763059E+02  0.46450746369E+02  0.74203897298E+02  0.47000000000E+01 0.  1.
         -5    1    1    2    0  502  0.52486893269E+02  0.45225705319E+01 -0.18596889209E+02  0.56064800878E+02  0.47000000000E+01 0.  1.
        -11    1    3    3    0    0  0.17349681731E+02  0.24651672271E+02  0.86006243900E+02  0.91136109154E+02  0.00000000000E+00 0.  1.
         11    1    3    3    0    0 -0.19548247948E+02 -0.93347974344E+00 -0.16024452803E+02  0.25294040205E+02  0.00000000000E+00 0. -1.
<mgrwt>
<rscale>  0 0.11767638E+03</rscale>
<asrwt>0</asrwt>
<pdfrwt beam="1">  1        2 0.26502653E-01 0.12725603E+03</pdfrwt>
<pdfrwt beam="2">  1       -2 0.11451015E-01 0.12725603E+03</pdfrwt>
<totfact> 0.10068086E+04</totfact>
</mgrwt>
</event>
<event>
 7    1  0.5107591E-006  0.1266954E+03  0.7546771E-02  0.1249938E+00
         -3   -1    0    0    0  501 -0.00000000000E+00  0.00000000000E+00  0.15786757755E+03  0.15786757755E+03  0.00000000000E+00 0.  1.
          3   -1    0    0  501    0  0.00000000000E+00 -0.00000000000E+00 -0.92945308861E+02  0.92945308861E+02  0.00000000000E+00 0. -1.
         23    2    1    2    0    0 -0.19787893758E+02 -0.58625243493E+01 -0.28578682721E+02  0.93351274278E+02  0.86439512794E+02 0.  0.
          5    1    1    2  502    0 -0.23853605191E+02  0.34113685893E+02  0.96475109190E+02  0.10517734898E+03  0.47000000000E+01 0.  1.
         -5    1    1    2    0  502  0.43641498949E+02 -0.28251161544E+02 -0.29741577762E+01  0.52284263154E+02  0.47000000000E+01 0.  1.
        -11    1    3    3    0    0 -0.18473219733E+02 -0.44898673843E+02 -0.23582137511E+02  0.53974697495E+02  0.00000000000E+00 0. -1.
         11    1    3    3    0    0 -0.13146740247E+01  0.39036149493E+02 -0.49965452102E+01  0.39376576782E+02  0.00000000000E+00 0.  1.
<mgrwt>
<rscale>  0 0.11594671E+03</rscale>
<asrwt>0</asrwt>
<pdfrwt beam="2">  1        3 0.14299278E-01 0.12669543E+03</pdfrwt>
<pdfrwt beam="1">  1       -3 0.24287320E-01 0.12669543E+03</pdfrwt>
<totfact> 0.14499094E+03</totfact>
</mgrwt>
</event>
<event>
 7    1  0.5107591E-006  0.1637252E+03  0.7546771E-02  0.1191733E+00
          1   -1    0    0  501    0  0.00000000000E+00  0.00000000000E+00  0.14859075260E+03  0.14859075260E+03  0.00000000000E+00 0. -1.
         -1   -1    0    0    0  501 -0.00000000000E+00 -0.00000000000E+00 -0.21737875634E+03  0.21737875634E+03  0.00000000000E+00 0.  1.
         23    2    1    2    0    0  0.42271828745E+02 -0.96923352517E+02  0.65479046513E+02  0.15423011028E+03  0.91205140299E+02 0.  0.
          5    1    1    2  502    0  0.22055738570E+02 -0.63856737426E+01  0.77184829476E+01  0.24675846734E+02  0.47000000000E+01 0.  1.
         -5    1    1    2    0  502 -0.64327567315E+02  0.10330902626E+03 -0.14198553320E+03  0.18706355193E+03  0.47000000000E+01 0.  1.
        -11    1    3    3    0    0 -0.77113354377E+01  0.13742941659E+02 -0.10051539170E+01  0.15790613480E+02  0.00000000000E+00 0. -1.
         11    1    3    3    0    0  0.49983164183E+02 -0.11066629418E+03  0.66484200430E+02  0.13843949680E+03  0.00000000000E+00 0.  1.
<mgrwt>
<rscale>  0 0.15734006E+03</rscale>
<asrwt>0</asrwt>
<pdfrwt beam="1">  1        1 0.22860116E-01 0.16372517E+03</pdfrwt>
<pdfrwt beam="2">  1       -1 0.33442886E-01 0.16372517E+03</pdfrwt>
<totfact> 0.17883968E+03</totfact>
</mgrwt>
</event>
<event>
 7    1  0.5107591E-006  0.1338693E+03  0.7546771E-02  0.1234465E+00
         -1   -1    0    0    0  501 -0.00000000000E+00  0.00000000000E+00  0.17455730836E+02  0.17455730836E+02  0.00000000000E+00 0.  1.
          1   -1    0    0  501    0  0.00000000000E+00 -0.00000000000E+00 -0.83794718819E+03  0.83794718819E+03  0.00000000000E+00 0. -1.
         23    2    1    2    0    0 -0.43171764702E+02  0.20778312976E+02 -0.44468018065E+03  0.45646044657E+03  0.91214783160E+02 0.  0.
          5    1    1    2  502    0  0.75161485546E+02  0.22024492749E+02 -0.19057032964E+03  0.20609092102E+03  0.47000000000E+01 0. -1.
         -5    1    1    2    0  502 -0.31989720844E+02 -0.42802805725E+02 -0.18524094707E+03  0.19285155143E+03  0.47000000000E+01 0. -1.
        -11    1    3    3    0    0 -0.30662654582E+02 -0.34251629397E+02 -0.17488596438E+03  0.18082719110E+03  0.00000000000E+00 0.  1.
         11    1    3    3    0    0 -0.12509110120E+02  0.55029942373E+02 -0.26979421627E+03  0.27563325548E+03  0.00000000000E+00 0. -1.
<mgrwt>
<rscale>  0 0.12538746E+03</rscale>
<asrwt>0</asrwt>
<pdfrwt beam="2">  1        1 0.12891494E+00 0.13386927E+03</pdfrwt>
<pdfrwt beam="1">  1       -1 0.26854973E-02 0.13386927E+03</pdfrwt>
<totfact> 0.91580945E+03</totfact>
</mgrwt>
</event>
<event>
 7    1  0.5107591E-006  0.4237367E+03  0.7546771E-02  0.1036576E+00
          1   -1    0    0  501    0  0.00000000000E+00  0.00000000000E+00  0.94554790403E+03  0.94554790403E+03  0.00000000000E+00 0. -1.
         -1   -1    0    0    0  501 -0.00000000000E+00 -0.00000000000E+00 -0.21798330964E+03  0.21798330964E+03  0.00000000000E+00 0.  1.
         23    2    1    2    0    0 -0.39285840811E+03  0.97923470193E+02  0.58351214547E+03  0.71597798212E+03  0.90616290667E+02 0.  0.
          5    1    1    2  502    0  0.26998518405E+03 -0.82725390156E+02  0.38963254529E+02  0.28508895978E+03  0.47000000000E+01 0.  1.
         -5    1    1    2    0  502  0.12287322406E+03 -0.15198080038E+02  0.10508919440E+03  0.16246427179E+03  0.47000000000E+01 0.  1.
        -11    1    3    3    0    0 -0.16667070841E+03  0.23874864292E+02  0.17263386593E+03  0.24114639921E+03  0.00000000000E+00 0.  1.
         11    1    3    3    0    0 -0.22618769970E+03  0.74048605902E+02  0.41087827954E+03  0.47483158291E+03  0.00000000000E+00 0. -1.
<mgrwt>
<rscale>  0 0.42150882E+03</rscale>
<asrwt>0</asrwt>
<pdfrwt beam="1">  1        1 0.14546891E+00 0.42373670E+03</pdfrwt>
<pdfrwt beam="2">  1       -1 0.33535894E-01 0.42373670E+03</pdfrwt>
<totfact> 0.14655864E+02</totfact>
</mgrwt>
</event>
<event>
 7    1  0.5107591E-006  0.2513767E+03  0.7546771E-02  0.1114925E+00
          1   -1    0    0  501    0  0.00000000000E+00  0.00000000000E+00  0.67847147445E+03  0.67847147445E+03  0.00000000000E+00 0. -1.
         -1   -1    0    0    0  501 -0.00000000000E+00 -0.00000000000E+00 -0.91271586214E+02  0.91271586214E+02  0.00000000000E+00 0.  1.
         23    2    1    2    0    0  0.13675316616E+02 -0.21766457441E+03  0.36249831164E+03  0.43257684784E+03  0.90292979291E+02 0.  0.
          5    1    1    2  502    0  0.65122208689E+01  0.21934529911E+03  0.16690670964E+03  0.27574391922E+03  0.47000000000E+01 0. -1.
         -5    1    1    2    0  502 -0.20187537485E+02 -0.16807247062E+01  0.57794866956E+02  0.61422293606E+02  0.47000000000E+01 0. -1.
        -11    1    3    3    0    0  0.29317747952E+02 -0.14590114420E+03  0.16673662591E+03  0.22348999226E+03  0.00000000000E+00 0.  1.
         11    1    3    3    0    0 -0.15642431336E+02 -0.71763430208E+02  0.19576168574E+03  0.20908685558E+03  0.00000000000E+00 0. -1.
<mgrwt>
<rscale>  0 0.24745313E+03</rscale>
<asrwt>0</asrwt>
<pdfrwt beam="1">  1        1 0.10438022E+00 0.25137672E+03</pdfrwt>
<pdfrwt beam="2">  1       -1 0.14041783E-01 0.25137672E+03</pdfrwt>
<totfact> 0.10555102E+03</totfact>
</mgrwt>
</event>
<event>
 7    1  0.5107591E-006  0.1313919E+03  0.7546771E-02  0.1238639E+00
          2   -1    0    0  501    0  0.00000000000E+00  0.00000000000E+00  0.50639793770E+03  0.50639793770E+03  0.00000000000E+00 0. -1.
         -2   -1    0    0    0  501 -0.00000000000E+00 -0.00000000000E+00 -0.27387263211E+02  0.27387263211E+02  0.00000000000E+00 0.  1.
         23    2    1    2    0    0 -0.69288107232E+01 -0.40515206384E+02  0.25718991638E+03  0.27597074857E+03  0.91234371876E+02 0.  0.
          5    1    1    2  502    0  0.18934907305E+02 -0.40458260775E+02  0.48655797499E+02  0.66218412921E+02  0.47000000000E+01 0. -1.
         -5    1    1    2    0  502 -0.12006096582E+02  0.80973467158E+02  0.17316496061E+03  0.19159603942E+03  0.47000000000E+01 0. -1.
        -11    1    3    3    0    0 -0.36607569479E+02 -0.44214203157E+02  0.94603739269E+02  0.11065657408E+03  0.00000000000E+00 0.  1.
         11    1    3    3    0    0  0.29678758756E+02  0.36989967731E+01  0.16258617711E+03  0.16531417449E+03  0.00000000000E+00 0. -1.
<mgrwt>
<rscale>  0 0.12274341E+03</rscale>
<asrwt>0</asrwt>
<pdfrwt beam="1">  1        2 0.77907368E-01 0.13139194E+03</pdfrwt>
<pdfrwt beam="2">  1       -2 0.42134255E-02 0.13139194E+03</pdfrwt>
<totfact> 0.14709005E+04</totfact>
</mgrwt>
</event>
<event>
 7    1  0.5107591E-006  0.2275790E+03  0.7546771E-02  0.1131390E+00
          1   -1    0    0  501    0  0.00000000000E+00  0.00000000000E+00  0.35939727312E+03  0.35939727312E+03  0.00000000000E+00 0. -1.
         -1   -1    0    0    0  501 -0.00000000000E+00 -0.00000000000E+00 -0.13553847633E+03  0.13553847633E+03  0.00000000000E+00 0.  1.
         23    2    1    2    0    0  0.53844704078E+02  0.18239360230E+03  0.13464310527E+03  0.25049426093E+03  0.91934382278E+02 0.  0.
          5    1    1    2  502    0 -0.97190991584E+01 -0.11663825066E+03  0.11183585405E+03  0.16195150711E+03  0.47000000000E+01 0.  1.
         -5    1    1    2    0  502 -0.44125604920E+02 -0.65755351643E+02 -0.22620162522E+02  0.82489981402E+02  0.47000000000E+01 0.  1.
        -11    1    3    3    0    0 -0.15489152878E+01  0.11653057450E+03  0.11170266530E+03  0.16142880588E+03  0.00000000000E+00 0. -1.
         11    1    3    3    0    0  0.55393619366E+02  0.65863027801E+02  0.22940439965E+02  0.89065455051E+02  0.00000000000E+00 0.  1.
<mgrwt>
<rscale>  0 0.22337710E+03</rscale>
<asrwt>0</asrwt>
<pdfrwt beam="1">  1        1 0.55291888E-01 0.22757900E+03</pdfrwt>
<pdfrwt beam="2">  1       -1 0.20852073E-01 0.22757900E+03</pdfrwt>
<totfact> 0.13067863E+03</totfact>
</mgrwt>
</event>
<event>
 7    1  0.5107591E-006  0.1452694E+03  0.7546771E-02  0.1225204E+00
          2   -1    0    0  501    0  0.00000000000E+00  0.00000000000E+00  0.14503924461E+02  0.14503924461E+02  0.00000000000E+00 0. -1.
         -2   -1    0    0    0  501 -0.00000000000E+00 -0.00000000000E+00 -0.10631326771E+04  0.10631326771E+04  0.00000000000E+00 0.  1.
         23    2    1    2    0    0  0.36810143167E+02  0.17903959786E+01 -0.31570989209E+03  0.33045975038E+03  0.90403088993E+02 0.  0.
          5    1    1    2  502    0 -0.56361088642E+02 -0.38708705337E+02 -0.17910509577E+03  0.19176981387E+03  0.47000000000E+01 0. -1.
         -5    1    1    2    0  502  0.19550945476E+02  0.36918309358E+02 -0.55381376476E+03  0.55540703730E+03  0.47000000000E+01 0.  1.
        -11    1    3    3    0    0 -0.10462977419E+02 -0.35476105121E+02 -0.10521462724E+03  0.11152643505E+03  0.00000000000E+00 0. -1.
         11    1    3    3    0    0  0.47273120586E+02  0.37266501100E+02 -0.21049526485E+03  0.21893331533E+03  0.00000000000E+00 0.  1.
<mgrwt>
<rscale>  0 0.13152925E+03</rscale>
<asrwt>0</asrwt>
<pdfrwt beam="1">  1        2 0.22313720E-02 0.14526937E+03</pdfrwt>
<pdfrwt beam="2">  1       -2 0.16355894E+00 0.14526937E+03</pdfrwt>
<totfact> 0.11519265E+03</totfact>
</mgrwt>
</event>
<event>
 7    1  0.5107591E-006  0.1738638E+03  0.7546771E-02  0.1179737E+00
          1   -1    0    0  501    0  0.00000000000E+00  0.00000000000E+00  0.22208446061E+02  0.22208446061E+02  0.00000000000E+00 0. -1.
         -1   -1    0    0    0  501 -0.00000000000E+00 -0.00000000000E+00 -0.12505480673E+04  0.12505480673E+04  0.00000000000E+00 0.  1.
         23    2    1    2    0    0  0.10492304985E+03  0.59954867666E+02 -0.44451633198E+03  0.46988194981E+03  0.92686810354E+02 0.  0.
          5    1    1    2  502    0  0.20648054494E+02 -0.24242256903E+02 -0.68063963497E+02  0.75291581874E+02  0.47000000000E+01 0. -1.
         -5    1    1    2    0  502 -0.12557110434E+03 -0.35712610763E+02 -0.71575932580E+03  0.72758298171E+03  0.47000000000E+01 0. -1.
        -11    1    3    3    0    0  0.81059992824E+02  0.48660972131E+02 -0.42892479020E+03  0.43922100166E+03  0.00000000000E+00 0.  1.
         11    1    3    3    0    0  0.23863057022E+02  0.11293895535E+02 -0.15591541783E+02  0.30660948158E+02  0.00000000000E+00 0. -1.
<mgrwt>
<rscale>  0 0.16820134E+03</rscale>
<asrwt>0</asrwt>
<pdfrwt beam="1">  1        1 0.34166847E-02 0.17386379E+03</pdfrwt>
<pdfrwt beam="2">  1       -1 0.19239197E+00 0.17386379E+03</pdfrwt>
<totfact> 0.53105563E+02</totfact>
</mgrwt>
</event>
<event>
 7    1  0.5107591E-006  0.1331077E+03  0.7546771E-02  0.1235258E+00
         -2   -1    0    0    0  501 -0.00000000000E+00  0.00000000000E+00  0.78431137469E+02  0.78431137469E+02  0.00000000000E+00 0.  1.
          2   -1    0    0  501    0  0.00000000000E+00 -0.00000000000E+00 -0.24411641947E+03  0.24411641947E+03  0.00000000000E+00 0. -1.
         23    2    1    2    0    0  0.34481215603E+02 -0.30063392407E+02 -0.15869324691E+03  0.18925638542E+03  0.92421161073E+02 0.  0.
          5    1    1    2  502    0 -0.38400998197E+02  0.28197591350E+02 -0.61765063679E+02  0.78145722287E+02  0.47000000000E+01 0. -1.
         -5    1    1    2    0  502  0.39197825941E+01  0.18658010569E+01  0.54773028595E+02  0.55145449228E+02  0.47000000000E+01 0. -1.
        -11    1    3    3    0    0  0.61840091007E+02 -0.76010072630E+01 -0.69738077936E+02  0.93516691994E+02  0.00000000000E+00 0.  1.
         11    1    3    3    0    0 -0.27358875404E+02 -0.22462385144E+02 -0.88955168977E+02  0.95739693427E+02  0.00000000000E+00 0. -1.
<mgrwt>
<rscale>  0 0.12487962E+03</rscale>
<asrwt>0</asrwt>
<pdfrwt beam="2">  1        2 0.37556372E-01 0.13310766E+03</pdfrwt>
<pdfrwt beam="1">  1       -2 0.12066329E-01 0.13310766E+03</pdfrwt>
<totfact> 0.63822636E+03</totfact>
</mgrwt>
</event>
<event>
 7    1  0.5107591E-006  0.1344183E+03  0.7546771E-02  0.1227029E+00
          2   -1    0    0  501    0  0.00000000000E+00  0.00000000000E+00  0.69430207210E+03  0.69430207210E+03  0.00000000000E+00 0. -1.
         -2   -1    0    0    0  501 -0.00000000000E+00 -0.00000000000E+00 -0.24993485345E+02  0.24993485345E+02  0.00000000000E+00 0.  1.
         23    2    1    2    0    0 -0.49051350258E+02  0.60372093555E+01  0.41528339105E+03  0.43189845999E+03  0.10785871312E+03 0.  0.
          5    1    1    2  502    0  0.76942103922E+02  0.34826448727E+02  0.16613015131E+03  0.18642501458E+03  0.47000000000E+01 0.  1.
         -5    1    1    2    0  502 -0.27890753664E+02 -0.40863658083E+02  0.87895044390E+02  0.10097208288E+03  0.47000000000E+01 0.  1.
        -11    1    3    3    0    0  0.11832202588E+02  0.28053941429E+02  0.36089394605E+02  0.47217253740E+02  0.00000000000E+00 0.  1.
         11    1    3    3    0    0 -0.60883552846E+02 -0.22016732074E+02  0.37919399645E+03  0.38468120625E+03  0.00000000000E+00 0. -1.
<mgrwt>
<rscale>  0 0.13028780E+03</rscale>
<asrwt>0</asrwt>
<pdfrwt beam="1">  1        2 0.10681569E+00 0.13441835E+03</pdfrwt>
<pdfrwt beam="2">  1       -2 0.38451521E-02 0.13441835E+03</pdfrwt>
<totfact> 0.11791823E+04</totfact>
</mgrwt>
</event>
<event>
 7    1  0.5107591E-006  0.3336370E+03  0.7546771E-02  0.1070287E+00
          2   -1    0    0  501    0  0.00000000000E+00  0.00000000000E+00  0.14278882785E+04  0.14278882785E+04  0.00000000000E+00 0. -1.
         -2   -1    0    0    0  501 -0.00000000000E+00 -0.00000000000E+00 -0.19051518634E+03  0.19051518634E+03  0.00000000000E+00 0.  1.
         23    2    1    2    0    0 -0.23156289646E+03  0.21080895923E+03  0.12424545173E+04  0.12847277508E+04  0.93650273906E+02 0.  0.
          5    1    1    2  502    0  0.39055701419E+01  0.12148165484E+01 -0.21228109103E+02  0.22123559241E+02  0.47000000000E+01 0. -1.
         -5    1    1    2    0  502  0.22765732632E+03 -0.21202377577E+03  0.16146683909E+02  0.31155215474E+03  0.47000000000E+01 0.  1.
        -11    1    3    3    0    0 -0.14658306608E+03  0.15690990826E+03  0.98868628168E+03  0.10117350830E+04  0.00000000000E+00 0. -1.
         11    1    3    3    0    0 -0.84979830388E+02  0.53899050963E+02  0.25376823564E+03  0.27299266783E+03  0.00000000000E+00 0.  1.
<mgrwt>
<rscale>  0 0.33192765E+03</rscale>
<asrwt>0</asrwt>
<pdfrwt beam="1">  1        2 0.21967511E+00 0.33363702E+03</pdfrwt>
<pdfrwt beam="2">  1       -2 0.29310030E-01 0.33363702E+03</pdfrwt>
<totfact> 0.15898666E+02</totfact>
</mgrwt>
</event>
<event>
 7    1  0.5107591E-006  0.1585714E+03  0.7546771E-02  0.1198268E+00
          2   -1    0    0  501    0  0.00000000000E+00  0.00000000000E+00  0.96210601985E+03  0.96210601985E+03  0.00000000000E+00 0. -1.
         -2   -1    0    0    0  501 -0.00000000000E+00 -0.00000000000E+00 -0.22821549871E+02  0.22821549871E+02  0.00000000000E+00 0.  1.
         23    2    1    2    0    0  0.44511307349E+02  0.86804215309E+02  0.51601502488E+03  0.53292989547E+03  0.90700271848E+02 0.  0.
          5    1    1    2  502    0 -0.20730088491E+02  0.10105061556E+02  0.79636391512E+01  0.24846697696E+02  0.47000000000E+01 0. -1.
         -5    1    1    2    0  502 -0.23781218858E+02 -0.96909276864E+02  0.41530580595E+03  0.42715097655E+03  0.47000000000E+01 0. -1.
        -11    1    3    3    0    0  0.65257669999E+02  0.77215301491E+02  0.47799304860E+03  0.48856741683E+03  0.00000000000E+00 0.  1.
         11    1    3    3    0    0 -0.20746362650E+02  0.95889138175E+01  0.38021976280E+02  0.44362478646E+02  0.00000000000E+00 0. -1.
<mgrwt>
<rscale>  0 0.15180855E+03</rscale>
<asrwt>0</asrwt>
<pdfrwt beam="1">  1        2 0.14801628E+00 0.15857135E+03</pdfrwt>
<pdfrwt beam="2">  1       -2 0.35110084E-02 0.15857135E+03</pdfrwt>
<totfact> 0.90274136E+03</totfact>
</mgrwt>
</event>
<event>
 7    1  0.5107591E-006  0.1491175E+03  0.7546771E-02  0.1210949E+00
         -1   -1    0    0    0  501 -0.00000000000E+00  0.00000000000E+00  0.38838266394E+02  0.38838266394E+02  0.00000000000E+00 0.  1.
          1   -1    0    0  501    0  0.00000000000E+00 -0.00000000000E+00 -0.63535414406E+03  0.63535414406E+03  0.00000000000E+00 0. -1.
         23    2    1    2    0    0 -0.80063301495E+02  0.13311767976E+02 -0.44586251560E+03  0.46221959770E+03  0.90918855422E+02 0.  0.
          5    1    1    2  502    0  0.15109089709E+01  0.48626736997E+02 -0.53019708754E+02  0.72111177450E+02  0.47000000000E+01 0. -1.
         -5    1    1    2    0  502  0.78552392524E+02 -0.61938504973E+02 -0.97633653309E+02  0.13986163530E+03  0.47000000000E+01 0. -1.
        -11    1    3    3    0    0 -0.70133483136E+02 -0.11292163956E+02 -0.41703067287E+03  0.42303758761E+03  0.00000000000E+00 0. -1.
         11    1    3    3    0    0 -0.99298183583E+01  0.24603931933E+02 -0.28831842733E+02  0.39182010089E+02  0.00000000000E+00 0.  1.
<mgrwt>
<rscale>  0 0.14178340E+03</rscale>
<asrwt>0</asrwt>
<pdfrwt beam="2">  1        1 0.97746784E-01 0.14911753E+03</pdfrwt>
<pdfrwt beam="1">  1       -1 0.59751184E-02 0.14911753E+03</pdfrwt>
<totfact> 0.42510971E+03</totfact>
</mgrwt>
</event>
<event>
 7    1  0.5107591E-006  0.1455221E+03  0.7546771E-02  0.1215670E+00
          2   -1    0    0  501    0  0.00000000000E+00  0.00000000000E+00  0.14598256288E+03  0.14598256288E+03  0.00000000000E+00 0. -1.
         -2   -1    0    0    0  501 -0.00000000000E+00 -0.00000000000E+00 -0.13372151203E+03  0.13372151203E+03  0.00000000000E+00 0.  1.
         23    2    1    2    0    0 -0.49561989656E+02  0.55630533829E+02  0.50985642832E+02  0.12911762234E+03  0.92307516007E+02 0.  0.
          5    1    1    2  502    0 -0.30982707857E+02 -0.23421725435E+01  0.20198410972E+02  0.37356120840E+02  0.47000000000E+01 0.  1.
         -5    1    1    2    0  502  0.80544697514E+02 -0.53288361286E+02 -0.58923002958E+02  0.11323033173E+03  0.47000000000E+01 0.  1.
        -11    1    3    3    0    0  0.49506914412E+01  0.21571467016E+02  0.60239864494E+02  0.64176933623E+02  0.00000000000E+00 0. -1.
         11    1    3    3    0    0 -0.54512681098E+02  0.34059066814E+02 -0.92542216624E+01  0.64940688719E+02  0.00000000000E+00 0.  1.
<mgrwt>
<rscale>  0 0.13827401E+03</rscale>
<asrwt>0</asrwt>
<pdfrwt beam="1">  1        2 0.22458856E-01 0.14552211E+03</pdfrwt>
<pdfrwt beam="2">  1       -2 0.20572540E-01 0.14552211E+03</pdfrwt>
<totfact> 0.46692377E+03</totfact>
</mgrwt>
</event>
<event>
 6    1  0.5107591E-006  0.1837691E+03  0.7546771E-02  0.1175423E+00
         -1   -1    0    0    0  501 -0.00000000000E+00  0.00000000000E+00  0.41918087963E+02  0.41918087963E+02  0.00000000000E+00 0.  1.
          1   -1    0    0  501    0  0.00000000000E+00 -0.00000000000E+00 -0.72170148103E+03  0.72170148103E+03  0.00000000000E+00 0. -1.
          5    1    1    2  502    0  0.73228448772E+02 -0.12629479713E+03 -0.21912410635E+03  0.26334434772E+03  0.47000000000E+01 0.  1.
         -5    1    1    2    0  502 -0.33945830531E+02 -0.25560315192E+01 -0.26390644118E+02  0.43329075740E+02  0.47000000000E+01 0.  1.
        -11    1    1    2    0    0 -0.10822233921E+02  0.91414874916E+02 -0.32931236986E+03  0.34193630554E+03  0.00000000000E+00 0.  1.
         11    1    1    2    0    0 -0.28460384320E+02  0.37435953737E+02 -0.10495627273E+03  0.11500983999E+03  0.00000000000E+00 0. -1.
<mgrwt>
<rscale>  0 0.17234617E+03</rscale>
<asrwt>0</asrwt>
<pdfrwt beam="2">  1        1 0.11103099E+00 0.18376914E+03</pdfrwt>
<pdfrwt beam="1">  1       -1 0.64489371E-02 0.18376914E+03</pdfrwt>
<totfact> 0.31859910E+03</totfact>
</mgrwt>
</event>
<event>
 7    1  0.5107591E-006  0.2801353E+03  0.7546771E-02  0.1097469E+00
         -2   -1    0    0    0  501 -0.00000000000E+00  0.00000000000E+00  0.19852030875E+03  0.19852030875E+03  0.00000000000E+00 0.  1.
          2   -1    0    0  501    0  0.00000000000E+00 -0.00000000000E+00 -0.39081747481E+03  0.39081747481E+03  0.00000000000E+00 0. -1.
         23    2    1    2    0    0  0.11872456570E+03  0.22080490369E+03 -0.14962058846E+03  0.30597037625E+03  0.91549017759E+02 0.  0.
          5    1    1    2  502    0 -0.11666861592E+02 -0.62570739190E+01 -0.41213174367E+02  0.43541731418E+02  0.47000000000E+01 0.  1.
         -5    1    1    2    0  502 -0.10705770411E+03 -0.21454782977E+03 -0.14634032340E+01  0.23982567590E+03  0.47000000000E+01 0. -1.
        -11    1    3    3    0    0  0.91267916258E+02  0.21721231583E+03 -0.11661675602E+03  0.26288874162E+03  0.00000000000E+00 0.  1.
         11    1    3    3    0    0  0.27456649445E+02  0.35925878660E+01 -0.33003832445E+02  0.43081634630E+02  0.00000000000E+00 0. -1.
<mgrwt>
<rscale>  0 0.27676422E+03</rscale>
<asrwt>0</asrwt>
<pdfrwt beam="2">  1        2 0.60125766E-01 0.28013532E+03</pdfrwt>
<pdfrwt beam="1">  1       -2 0.30541586E-01 0.28013532E+03</pdfrwt>
<totfact> 0.81265556E+02</totfact>
</mgrwt>
</event>
<event>
 7    1  0.5107591E-006  0.1499577E+03  0.7546771E-02  0.1209300E+00
         -2   -1    0    0    0  501 -0.00000000000E+00  0.00000000000E+00  0.93990870099E+02  0.93990870099E+02  0.00000000000E+00 0.  1.
          2   -1    0    0  501    0  0.00000000000E+00 -0.00000000000E+00 -0.23574979777E+03  0.23574979777E+03  0.00000000000E+00 0. -1.
         23    2    1    2    0    0  0.51820058106E+02  0.64626143140E+02 -0.12933827643E+03  0.17926947197E+03  0.92451592914E+02 0.  0.
          5    1    1    2  502    0 -0.83176655580E+02 -0.29549856659E+02 -0.38565467417E+02  0.96441356996E+02  0.47000000000E+01 0. -1.
         -5    1    1    2    0  502  0.31356597475E+02 -0.35076286481E+02  0.26144816178E+02  0.54029838899E+02  0.47000000000E+01 0. -1.
        -11    1    3    3    0    0  0.61761394926E+02  0.23422307785E+02 -0.32615759500E+02  0.73667239482E+02  0.00000000000E+00 0.  1.
         11    1    3    3    0    0 -0.99413368202E+01  0.41203835355E+02 -0.96722516931E+02  0.10560223249E+03  0.00000000000E+00 0. -1.
<mgrwt>
<rscale>  0 0.14303717E+03</rscale>
<asrwt>0</asrwt>
<pdfrwt beam="2">  1        2 0.36269199E-01 0.14995769E+03</pdfrwt>
<pdfrwt beam="1">  1       -2 0.14460134E-01 0.14995769E+03</pdfrwt>
<totfact> 0.49829920E+03</totfact>
</mgrwt>
</event>
<event>
 7    1  0.5107591E-006  0.1424334E+03  0.7546771E-02  0.1224365E+00
          2   -1    0    0  501    0  0.00000000000E+00  0.00000000000E+00  0.32967808331E+03  0.32967808331E+03  0.00000000000E+00 0. -1.
         -2   -1    0    0    0  501 -0.00000000000E+00 -0.00000000000E+00 -0.47024676289E+02  0.47024676289E+02  0.00000000000E+00 0.  1.
         23    2    1    2    0    0  0.59159028649E+02 -0.34083958383E+02  0.10224415643E+03  0.14684462159E+03  0.80299243311E+02 0.  0.
          5    1    1    2  502    0 -0.64215484674E+02 -0.31776592379E+02  0.12198595046E+03  0.14154872802E+03  0.47000000000E+01 0.  1.
         -5    1    1    2    0  502  0.50564560246E+01  0.65860550762E+02  0.58423300135E+02  0.88309409990E+02  0.47000000000E+01 0.  1.
        -11    1    3    3    0    0  0.11481984511E+02 -0.31906925218E+02  0.91973124546E+02  0.98025218612E+02  0.00000000000E+00 0. -1.
         11    1    3    3    0    0  0.47677044138E+02 -0.21770331645E+01  0.10271031882E+02  0.48819402978E+02  0.00000000000E+00 0.  1.
<mgrwt>
<rscale>  0 0.13210538E+03</rscale>
<asrwt>0</asrwt>
<pdfrwt beam="1">  1        2 0.50719704E-01 0.14243337E+03</pdfrwt>
<pdfrwt beam="2">  1       -2 0.72345658E-02 0.14243337E+03</pdfrwt>
<totfact> 0.10373693E+04</totfact>
</mgrwt>
</event>
<event>
 7    1  0.5107591E-006  0.2088880E+03  0.7546771E-02  0.1146181E+00
          1   -1    0    0  501    0  0.00000000000E+00  0.00000000000E+00  0.48270219095E+03  0.48270219095E+03  0.00000000000E+00 0. -1.
         -1   -1    0    0    0  501 -0.00000000000E+00 -0.00000000000E+00 -0.10645836609E+03  0.10645836609E+03  0.00000000000E+00 0.  1.
         23    2    1    2    0    0  0.30295578541E+01 -0.16733356094E+03  0.32024205988E+03  0.37289593545E+03  0.92123302813E+02 0.  0.
          5    1    1    2  502    0 -0.23253235971E+02  0.54459910611E+02  0.79374675523E+02  0.99141434129E+02  0.47000000000E+01 0. -1.
         -5    1    1    2    0  502  0.20223678117E+02  0.11287365033E+03 -0.23372910534E+02  0.11712318746E+03  0.47000000000E+01 0. -1.
        -11    1    3    3    0    0 -0.44234720096E+02 -0.85619269790E+02  0.15185397511E+03  0.17985271634E+03  0.00000000000E+00 0. -1.
         11    1    3    3    0    0  0.47264277950E+02 -0.81714291148E+02  0.16838808477E+03  0.19304321910E+03  0.00000000000E+00 0.  1.
<mgrwt>
<rscale>  0 0.20427553E+03</rscale>
<asrwt>0</asrwt>
<pdfrwt beam="1">  1        1 0.74261874E-01 0.20888798E+03</pdfrwt>
<pdfrwt beam="2">  1       -1 0.16378210E-01 0.20888798E+03</pdfrwt>
<totfact> 0.13175803E+03</totfact>
</mgrwt>
</event>
<event>
 7    1  0.5107591E-006  0.2517997E+03  0.7546771E-02  0.1114845E+00
          1   -1    0    0  501    0  0.00000000000E+00  0.00000000000E+00  0.63111616474E+03  0.63111616474E+03  0.00000000000E+00 0. -1.
         -1   -1    0    0    0  501 -0.00000000000E+00 -0.00000000000E+00 -0.21249351105E+03  0.21249351105E+03  0.00000000000E+00 0.  1.
         23    2    1    2    0    0  0.21291182851E+03  0.49458987006E+02  0.52108454771E+03  0.57176134712E+03  0.87202603612E+02 0.  0.
          5    1    1    2  502    0 -0.11012487135E+03 -0.64804943548E+02 -0.10842352843E+03  0.16764521918E+03  0.47000000000E+01 0.  1.
         -5    1    1    2    0  502 -0.10278695716E+03  0.15345956543E+02  0.59616343982E+01  0.10420310950E+03  0.47000000000E+01 0.  1.
        -11    1    3    3    0    0  0.77087429596E+02  0.15078091508E+01  0.97168135584E+02  0.12404189560E+03  0.00000000000E+00 0. -1.
         11    1    3    3    0    0  0.13582439891E+03  0.47951177855E+02  0.42391641213E+03  0.44771945152E+03  0.00000000000E+00 0.  1.
<mgrwt>
<rscale>  0 0.24757819E+03</rscale>
<asrwt>0</asrwt>
<pdfrwt beam="1">  1        1 0.97094794E-01 0.25179967E+03</pdfrwt>
<pdfrwt beam="2">  1       -1 0.32691310E-01 0.25179967E+03</pdfrwt>
<totfact> 0.29152796E+02</totfact>
</mgrwt>
</event>
<event>
 7    1  0.5107591E-006  0.1392347E+03  0.7546771E-02  0.1225255E+00
         -2   -1    0    0    0  501 -0.00000000000E+00  0.00000000000E+00  0.67676049050E+02  0.67676049050E+02  0.00000000000E+00 0.  1.
          2   -1    0    0  501    0  0.00000000000E+00 -0.00000000000E+00 -0.23740377304E+03  0.23740377304E+03  0.00000000000E+00 0. -1.
         23    2    1    2    0    0 -0.61035170838E+02 -0.59603337432E+01 -0.10060991688E+03  0.14963344665E+03  0.92233374247E+02 0.  0.
          5    1    1    2  502    0  0.91720513017E+02  0.24038096551E+02 -0.24275253083E+02  0.97989083607E+02  0.47000000000E+01 0. -1.
         -5    1    1    2    0  502 -0.30685342179E+02 -0.18077762807E+02 -0.44842554023E+02  0.57457291827E+02  0.47000000000E+01 0. -1.
        -11    1    3    3    0    0  0.66566461552E+01  0.11559879387E+02 -0.73401661151E+02  0.74603924891E+02  0.00000000000E+00 0. -1.
         11    1    3    3    0    0 -0.67691816993E+02 -0.17520213130E+02 -0.27208255730E+02  0.75029521762E+02  0.00000000000E+00 0.  1.
<mgrwt>
<rscale>  0 0.13149418E+03</rscale>
<asrwt>0</asrwt>
<pdfrwt beam="2">  1        2 0.36523657E-01 0.13923471E+03</pdfrwt>
<pdfrwt beam="1">  1       -2 0.10411700E-01 0.13923471E+03</pdfrwt>
<totfact> 0.83342565E+03</totfact>
</mgrwt>
</event>
<event>
 7    1  0.5107591E-006  0.1343291E+03  0.7546771E-02  0.1231633E+00
          2   -1    0    0  501    0  0.00000000000E+00  0.00000000000E+00  0.76774792629E+03  0.76774792629E+03  0.00000000000E+00 0. -1.
         -2   -1    0    0    0  501 -0.00000000000E+00 -0.00000000000E+00 -0.19361758093E+02  0.19361758093E+02  0.00000000000E+00 0.  1.
         23    2    1    2    0    0  0.43309390028E+02  0.23336666595E+02  0.37641986911E+03  0.39163120669E+03  0.96243342236E+02 0.  0.
          5    1    1    2  502    0  0.41343117231E+02 -0.23916752310E+02  0.10681641927E+03  0.11710295389E+03  0.47000000000E+01 0. -1.
         -5    1    1    2    0  502 -0.84652507259E+02  0.58008571514E+00  0.26514987982E+03  0.27837552380E+03  0.47000000000E+01 0. -1.
        -11    1    3    3    0    0 -0.14594109329E+02  0.39043042277E+02  0.92736937417E+02  0.10167343182E+03  0.00000000000E+00 0. -1.
         11    1    3    3    0    0  0.57903499356E+02 -0.15706375682E+02  0.28368293169E+03  0.28995777487E+03  0.00000000000E+00 0.  1.
<mgrwt>
<rscale>  0 0.12722492E+03</rscale>
<asrwt>0</asrwt>
<pdfrwt beam="1">  1        2 0.11811504E+00 0.13432907E+03</pdfrwt>
<pdfrwt beam="2">  1       -2 0.29787326E-02 0.13432907E+03</pdfrwt>
<totfact> 0.15228767E+04</totfact>
</mgrwt>
</event>
<event>
 7    1  0.5107591E-006  0.1440590E+03  0.7546771E-02  0.1218344E+00
          1   -1    0    0  501    0  0.00000000000E+00  0.00000000000E+00  0.97163278364E+02  0.97163278364E+02  0.00000000000E+00 0. -1.
         -1   -1    0    0    0  501 -0.00000000000E+00 -0.00000000000E+00 -0.19176316809E+03  0.19176316809E+03  0.00000000000E+00 0.  1.
         23    2    1    2    0    0 -0.51074011017E+02 -0.50199706571E+02  0.18132073994E+01  0.11558143122E+03  0.90703993192E+02 0.  0.
          5    1    1    2  502    0 -0.28910158250E+02 -0.11971161739E+02 -0.55708101671E+02  0.64067062951E+02  0.47000000000E+01 0.  1.
         -5    1    1    2    0  502  0.79984169267E+02  0.62170868311E+02 -0.40704995452E+02  0.10927795228E+03  0.47000000000E+01 0.  1.
        -11    1    3    3    0    0 -0.19675063413E+02 -0.56383616840E+02  0.35211503887E+02  0.69325827613E+02  0.00000000000E+00 0. -1.
         11    1    3    3    0    0 -0.31398947604E+02  0.61839102690E+01 -0.33398296488E+02  0.46255603608E+02  0.00000000000E+00 0.  1.
<mgrwt>
<rscale>  0 0.13633710E+03</rscale>
<asrwt>0</asrwt>
<pdfrwt beam="1">  1        1 0.14948197E-01 0.14405905E+03</pdfrwt>
<pdfrwt beam="2">  1       -1 0.29502026E-01 0.14405905E+03</pdfrwt>
<totfact> 0.37920570E+03</totfact>
</mgrwt>
</event>
<event>
 7    1  0.5107591E-006  0.1343957E+03  0.7546771E-02  0.1233614E+00
         -2   -1    0    0    0  501 -0.00000000000E+00  0.00000000000E+00  0.56433924860E+02  0.56433924860E+02  0.00000000000E+00 0. -1.
          2   -1    0    0  501    0  0.00000000000E+00 -0.00000000000E+00 -0.39300615270E+03  0.39300615270E+03  0.00000000000E+00 0.  1.
         23    2    1    2    0    0  0.44908611211E+02 -0.20562798918E+02 -0.28876741571E+03  0.30679543747E+03  0.91089011503E+02 0.  0.
          5    1    1    2  502    0 -0.79230024117E+02  0.96648033091E+00 -0.61650526462E+02  0.10050476715E+03  0.47000000000E+01 0.  1.
         -5    1    1    2    0  502  0.34321412906E+02  0.19596318587E+02  0.13845714335E+02  0.42139872941E+02  0.47000000000E+01 0.  1.
        -11    1    3    3    0    0 -0.14364680619E+02 -0.36350227556E+02 -0.77423194485E+02  0.86729661229E+02  0.00000000000E+00 0. -1.
         11    1    3    3    0    0  0.59273291831E+02  0.15787428638E+02 -0.21134422123E+03  0.22006577624E+03  0.00000000000E+00 0.  1.
<mgrwt>
<rscale>  0 0.12593556E+03</rscale>
<asrwt>0</asrwt>
<pdfrwt beam="2">  1        2 0.60462482E-01 0.13439566E+03</pdfrwt>
<pdfrwt beam="1">  1       -2 0.86821427E-02 0.13439566E+03</pdfrwt>
<totfact> 0.64675160E+03</totfact>
</mgrwt>
</event>
<event>
 7    1  0.5107591E-006  0.1650575E+03  0.7546771E-02  0.1190663E+00
          1   -1    0    0  501    0  0.00000000000E+00  0.00000000000E+00  0.20378382193E+03  0.20378382193E+03  0.00000000000E+00 0. -1.
         -1   -1    0    0    0  501 -0.00000000000E+00 -0.00000000000E+00 -0.13680603811E+03  0.13680603811E+03  0.00000000000E+00 0.  1.
         23    2    1    2    0    0 -0.87103646644E+02  0.63514900406E+02  0.10075211593E+03  0.17211235732E+03  0.88602973122E+02 0.  0.
          5    1    1    2  502    0 -0.23530205757E+02 -0.24645783959E+02 -0.37726608213E+02  0.51053621000E+02  0.47000000000E+01 0. -1.
         -5    1    1    2    0  502  0.11063385240E+03 -0.38869116447E+02  0.39522761053E+01  0.11742388171E+03  0.47000000000E+01 0. -1.
        -11    1    3    3    0    0 -0.34124982104E+02  0.34780509280E+02 -0.64291075128E+01  0.49148058484E+02  0.00000000000E+00 0.  1.
         11    1    3    3    0    0 -0.52978664540E+02  0.28734391125E+02  0.10718122344E+03  0.12296429884E+03  0.00000000000E+00 0. -1.
<mgrwt>
<rscale>  0 0.15827115E+03</rscale>
<asrwt>0</asrwt>
<pdfrwt beam="1">  1        1 0.31351357E-01 0.16505745E+03</pdfrwt>
<pdfrwt beam="2">  1       -1 0.21047083E-01 0.16505745E+03</pdfrwt>
<totfact> 0.25979674E+03</totfact>
</mgrwt>
</event>
<event>
 7    1  0.5107591E-006  0.2268651E+03  0.7546771E-02  0.1128866E+00
          3   -1    0    0  501    0  0.00000000000E+00  0.00000000000E+00  0.70105067393E+02  0.70105067393E+02  0.00000000000E+00 0. -1.
         -3   -1    0    0    0  501 -0.00000000000E+00 -0.00000000000E+00 -0.18353803237E+03  0.18353803237E+03  0.00000000000E+00 0.  1.
         23    2    1    2    0    0  0.24030685714E+02  0.21122788307E+02 -0.40146432955E+02  0.10525566058E+03  0.91887822717E+02 0.  0.
          5    1    1    2  502    0 -0.27068313995E+02 -0.70897255882E+02 -0.59180073563E+02  0.96350846499E+02  0.47000000000E+01 0.  1.
         -5    1    1    2    0  502  0.30376282807E+01  0.49774467575E+02 -0.14106458460E+02  0.52036592685E+02  0.47000000000E+01 0.  1.
        -11    1    3    3    0    0  0.35875882006E+02 -0.28326816979E+02 -0.12555641042E+02  0.47403919583E+02  0.00000000000E+00 0.  1.
         11    1    3    3    0    0 -0.11845196292E+02  0.49449605286E+02 -0.27590791913E+02  0.57851740998E+02  0.00000000000E+00 0. -1.
<mgrwt>
<rscale>  0 0.22686512E+03</rscale>
<asrwt>0</asrwt>
<pdfrwt beam="1">  1        3 0.10785395E-01 0.22686512E+03</pdfrwt>
<pdfrwt beam="2">  1       -3 0.28236620E-01 0.22686512E+03</pdfrwt>
<totfact> 0.19426601E+03</totfact>
</mgrwt>
</event>
<event>
 7    1  0.5107591E-006  0.1385269E+03  0.7546771E-02  0.1226499E+00
         -2   -1    0    0    0  501 -0.00000000000E+00  0.00000000000E+00  0.12984281642E+03  0.12984281642E+03  0.00000000000E+00 0.  1.
          2   -1    0    0  501    0  0.00000000000E+00 -0.00000000000E+00 -0.13398752110E+03  0.13398752110E+03  0.00000000000E+00 0. -1.
         23    2    1    2    0    0  0.74015551746E+01 -0.59306673938E+02 -0.46383871437E+02  0.11900679527E+03  0.91864515443E+02 0.  0.
          5    1    1    2  502    0  0.78998486783E+01 -0.81377670866E+01  0.69323504048E+02  0.70402195106E+02  0.47000000000E+01 0. -1.
         -5    1    1    2    0  502 -0.15301403853E+02  0.67444441024E+02 -0.27084337283E+02  0.74421347146E+02  0.47000000000E+01 0. -1.
        -11    1    3    3    0    0 -0.29003525560E+02 -0.21745129702E+02 -0.55121869763E+02  0.65973295256E+02  0.00000000000E+00 0. -1.
         11    1    3    3    0    0  0.36405080735E+02 -0.37561544235E+02  0.87379983261E+01  0.53033500011E+02  0.00000000000E+00 0.  1.
<mgrwt>
<rscale>  0 0.13064679E+03</rscale>
<asrwt>0</asrwt>
<pdfrwt beam="2">  1        2 0.20613465E-01 0.13852693E+03</pdfrwt>
<pdfrwt beam="1">  1       -2 0.19975818E-01 0.13852693E+03</pdfrwt>
<totfact> 0.53878008E+03</totfact>
</mgrwt>
</event>
<event>
 7    1  0.5107591E-006  0.2825150E+03  0.7546771E-02  0.1096129E+00
          2   -1    0    0  501    0  0.00000000000E+00  0.00000000000E+00  0.70254203827E+03  0.70254203827E+03  0.00000000000E+00 0. -1.
         -2   -1    0    0    0  501 -0.00000000000E+00 -0.00000000000E+00 -0.11635293119E+03  0.11635293119E+03  0.00000000000E+00 0.  1.
         23    2    1    2    0    0 -0.28945665774E+02  0.25170043965E+03  0.17978436216E+03  0.32394091206E+03  0.91784174790E+02 0.  0.
          5    1    1    2  502    0 -0.13505823495E+02 -0.21828964457E+03  0.26573660846E+03  0.34419589084E+03  0.47000000000E+01 0.  1.
         -5    1    1    2    0  502  0.42451489269E+02 -0.33410795081E+02  0.14066813645E+03  0.15075816655E+03  0.47000000000E+01 0.  1.
        -11    1    3    3    0    0 -0.61553228365E+00  0.21827420113E+03  0.11780203996E+03  0.24803492976E+03  0.00000000000E+00 0. -1.
         11    1    3    3    0    0 -0.28330133490E+02  0.33426238524E+02  0.61982322194E+02  0.75905982307E+02  0.00000000000E+00 0.  1.
<mgrwt>
<rscale>  0 0.27919626E+03</rscale>
<asrwt>0</asrwt>
<pdfrwt beam="1">  1        2 0.10808339E+00 0.28251496E+03</pdfrwt>
<pdfrwt beam="2">  1       -2 0.17900451E-01 0.28251496E+03</pdfrwt>
<totfact> 0.10631879E+03</totfact>
</mgrwt>
</event>
<event>
 7    1  0.5107591E-006  0.1729401E+03  0.7546771E-02  0.1181258E+00
         -3   -1    0    0    0  501 -0.00000000000E+00  0.00000000000E+00  0.60362823168E+02  0.60362823168E+02  0.00000000000E+00 0.  1.
          3   -1    0    0  501    0  0.00000000000E+00 -0.00000000000E+00 -0.52118137789E+03  0.52118137789E+03  0.00000000000E+00 0. -1.
         23    2    1    2    0    0 -0.62760215230E+02 -0.10170729784E+03 -0.33746848000E+03  0.36912119841E+03  0.89901418613E+02 0.  0.
          5    1    1    2  502    0  0.78008918536E+02  0.58463399060E+02 -0.20516643094E+02  0.99731554909E+02  0.47000000000E+01 0. -1.
         -5    1    1    2    0  502 -0.15248703306E+02  0.43243898779E+02 -0.10283343163E+03  0.11269144774E+03  0.47000000000E+01 0. -1.
        -11    1    3    3    0    0 -0.83158607013E+02 -0.78641528981E+02 -0.22397178624E+03  0.25152177845E+03  0.00000000000E+00 0.  1.
         11    1    3    3    0    0  0.20398391783E+02 -0.23065768858E+02 -0.11349669376E+03  0.11759941996E+03  0.00000000000E+00 0. -1.
<mgrwt>
<rscale>  0 0.16677046E+03</rscale>
<asrwt>0</asrwt>
<pdfrwt beam="2">  1        3 0.80181753E-01 0.17294014E+03</pdfrwt>
<pdfrwt beam="1">  1       -3 0.92865879E-02 0.17294014E+03</pdfrwt>
<totfact> 0.29764608E+02</totfact>
</mgrwt>
</event>
<event>
 7    1  0.5107591E-006  0.2453531E+03  0.7546771E-02  0.1122121E+00
          2   -1    0    0  501    0  0.00000000000E+00  0.00000000000E+00  0.31544110180E+03  0.31544110180E+03  0.00000000000E+00 0. -1.
         -2   -1    0    0    0  501 -0.00000000000E+00 -0.00000000000E+00 -0.21277427627E+03  0.21277427627E+03  0.00000000000E+00 0.  1.
         23    2    1    2    0    0  0.18123166483E+03 -0.67381040869E+02  0.17232979891E+03  0.27316427267E+03  0.86810363802E+02 0.  0.
          5    1    1    2  502    0  0.10176353607E+02 -0.15576426982E+02  0.20196648332E+02  0.27859968666E+02  0.47000000000E+01 0. -1.
         -5    1    1    2    0  502 -0.19140801844E+03  0.82957467851E+02 -0.89859621706E+02  0.22719113673E+03  0.47000000000E+01 0.  1.
        -11    1    3    3    0    0  0.15641300572E+03 -0.48148964346E+02  0.93895426033E+02  0.18867883336E+03  0.00000000000E+00 0. -1.
         11    1    3    3    0    0  0.24818659111E+02 -0.19232076524E+02  0.78434372873E+02  0.84485439310E+02  0.00000000000E+00 0.  1.
<mgrwt>
<rscale>  0 0.23653751E+03</rscale>
<asrwt>0</asrwt>
<pdfrwt beam="1">  1        2 0.48529400E-01 0.24535309E+03</pdfrwt>
<pdfrwt beam="2">  1       -2 0.32734504E-01 0.24535309E+03</pdfrwt>
<totfact> 0.90190928E+02</totfact>
</mgrwt>
</event>
<event>
 7    1  0.5107591E-006  0.1270397E+03  0.7546771E-02  0.1245569E+00
         -2   -1    0    0    0  501 -0.00000000000E+00  0.00000000000E+00  0.45379110492E+02  0.45379110492E+02  0.00000000000E+00 0.  1.
          2   -1    0    0  501    0  0.00000000000E+00 -0.00000000000E+00 -0.29375229282E+03  0.29375229282E+03  0.00000000000E+00 0. -1.
         23    2    1    2    0    0  0.16696985158E+02  0.15375716750E+02 -0.15107253265E+03  0.17911107774E+03  0.93502224948E+02 0.  0.
          5    1    1    2  502    0 -0.32343300505E+02 -0.30856651683E+02  0.13520056749E+02  0.46937234421E+02  0.47000000000E+01 0. -1.
         -5    1    1    2    0  502  0.15646315347E+02  0.15480934933E+02 -0.11082070643E+03  0.11308309115E+03  0.47000000000E+01 0. -1.
        -11    1    3    3    0    0  0.10445072357E+02  0.47844879217E+02 -0.13233470225E+03  0.14110529906E+03  0.00000000000E+00 0. -1.
         11    1    3    3    0    0  0.62519128009E+01 -0.32469162467E+02 -0.18737830396E+02  0.38005778678E+02  0.00000000000E+00 0.  1.
<mgrwt>
<rscale>  0 0.11851368E+03</rscale>
<asrwt>0</asrwt>
<pdfrwt beam="2">  1        2 0.45192659E-01 0.12703971E+03</pdfrwt>
<pdfrwt beam="1">  1       -2 0.69814018E-02 0.12703971E+03</pdfrwt>
<totfact> 0.12270679E+04</totfact>
</mgrwt>
</event>
<event>
 7    1  0.5107591E-006  0.1275528E+03  0.7546771E-02  0.1257898E+00
         -1   -1    0    0    0  501 -0.00000000000E+00  0.00000000000E+00  0.35888482083E+02  0.35888482083E+02  0.00000000000E+00 0.  1.
          1   -1    0    0  501    0  0.00000000000E+00 -0.00000000000E+00 -0.28504689163E+03  0.28504689163E+03  0.00000000000E+00 0. -1.
         23    2    1    2    0    0  0.17545448130E+02  0.18326893770E+02 -0.10128923771E+03  0.12565351188E+03  0.69896906845E+02 0.  0.
          5    1    1    2  502    0 -0.65828188220E+01 -0.17799798459E+02 -0.16947373048E+03  0.17059777740E+03  0.47000000000E+01 0. -1.
         -5    1    1    2    0  502 -0.10962629308E+02 -0.52709531086E+00  0.21604558639E+02  0.24684084443E+02  0.47000000000E+01 0. -1.
        -11    1    3    3    0    0  0.15945284113E+02  0.29249695620E+02 -0.10780482706E+03  0.11283473542E+03  0.00000000000E+00 0. -1.
         11    1    3    3    0    0  0.16001640177E+01 -0.10922801850E+02  0.65155893581E+01  0.12818776455E+02  0.00000000000E+00 0.  1.
<mgrwt>
<rscale>  0 0.11145542E+03</rscale>
<asrwt>0</asrwt>
<pdfrwt beam="2">  1        1 0.43853369E-01 0.12755279E+03</pdfrwt>
<pdfrwt beam="1">  1       -1 0.55213049E-02 0.12755279E+03</pdfrwt>
<totfact> 0.13254083E+04</totfact>
</mgrwt>
</event>
<event>
 7    1  0.5107591E-006  0.3328760E+03  0.7546771E-02  0.1071053E+00
          1   -1    0    0  501    0  0.00000000000E+00  0.00000000000E+00  0.16895625851E+04  0.16895625851E+04  0.00000000000E+00 0. -1.
         -1   -1    0    0    0  501 -0.00000000000E+00 -0.00000000000E+00 -0.66056742803E+02  0.66056742803E+02  0.00000000000E+00 0.  1.
         23    2    1    2    0    0 -0.97098585244E+02 -0.29282359662E+03  0.97151975818E+03  0.10235727044E+04  0.93148518868E+02 0.  0.
          5    1    1    2  502    0 -0.17741513458E+02  0.15488070605E+02  0.10881841512E+03  0.11143688393E+03  0.47000000000E+01 0.  1.
         -5    1    1    2    0  502  0.11484009870E+03  0.27733552602E+03  0.54316766897E+03  0.62060973959E+03  0.47000000000E+01 0.  1.
        -11    1    3    3    0    0 -0.16688879976E+02 -0.19358334468E+03  0.60492675567E+03  0.63536557176E+03  0.00000000000E+00 0.  1.
         11    1    3    3    0    0 -0.80409705268E+02 -0.99240251942E+02  0.36659300250E+03  0.38820713259E+03  0.00000000000E+00 0. -1.
<mgrwt>
<rscale>  0 0.33018920E+03</rscale>
<asrwt>0</asrwt>
<pdfrwt beam="1">  1        1 0.25993267E+00 0.33287596E+03</pdfrwt>
<pdfrwt beam="2">  1       -1 0.10162577E-01 0.33287596E+03</pdfrwt>
<totfact> 0.31692999E+02</totfact>
</mgrwt>
</event>
<event>
 7    1  0.5107591E-006  0.1385982E+03  0.7546771E-02  0.1227400E+00
          1   -1    0    0  501    0  0.00000000000E+00  0.00000000000E+00  0.29824099620E+03  0.29824099620E+03  0.00000000000E+00 0. -1.
         -1   -1    0    0    0  501 -0.00000000000E+00 -0.00000000000E+00 -0.63830544853E+02  0.63830544853E+02  0.00000000000E+00 0.  1.
         23    2    1    2    0    0 -0.47084029973E+02 -0.36950618767E+02  0.18689198244E+03  0.21555378592E+03  0.89177168700E+02 0.  0.
          5    1    1    2  502    0  0.24801644719E+02 -0.44700523767E+02  0.31561027814E+02  0.60261487557E+02  0.47000000000E+01 0. -1.
         -5    1    1    2    0  502  0.22282385253E+02  0.81651142534E+02  0.15957441089E+02  0.86256267574E+02  0.47000000000E+01 0. -1.
        -11    1    3    3    0    0 -0.44044655476E+02  0.16680227839E+02  0.12513004320E+03  0.13369999771E+03  0.00000000000E+00 0. -1.
         11    1    3    3    0    0 -0.30393744962E+01 -0.53630846605E+02  0.61761939237E+02  0.81853788204E+02  0.00000000000E+00 0.  1.
<mgrwt>
<rscale>  0 0.13003775E+03</rscale>
<asrwt>0</asrwt>
<pdfrwt beam="1">  1        1 0.45883229E-01 0.13859815E+03</pdfrwt>
<pdfrwt beam="2">  1       -1 0.98200840E-02 0.13859815E+03</pdfrwt>
<totfact> 0.53075672E+03</totfact>
</mgrwt>
</event>
<event>
 7    1  0.5107591E-006  0.1499662E+03  0.7546771E-02  0.1213618E+00
         -1   -1    0    0    0  501 -0.00000000000E+00  0.00000000000E+00  0.60602803933E+02  0.60602803933E+02  0.00000000000E+00 0.  1.
          1   -1    0    0  501    0  0.00000000000E+00 -0.00000000000E+00 -0.46879762752E+03  0.46879762752E+03  0.00000000000E+00 0. -1.
         23    2    1    2    0    0  0.46634766075E+02 -0.53480184315E+02 -0.35115732496E+03  0.36895376503E+03  0.88207042456E+02 0.  0.
          5    1    1    2  502    0  0.72660693691E+01 -0.32346686132E+02 -0.48084969503E+02  0.58594864620E+02  0.47000000000E+01 0. -1.
         -5    1    1    2    0  502 -0.53900835444E+02  0.85826870447E+02 -0.89525291271E+01  0.10185180180E+03  0.47000000000E+01 0.  1.
        -11    1    3    3    0    0  0.11307072264E+01 -0.12977254978E+02 -0.49142798457E+00  0.13035687441E+02  0.00000000000E+00 0.  1.
         11    1    3    3    0    0  0.45504058848E+02 -0.40502929337E+02 -0.35066589697E+03  0.35591807759E+03  0.00000000000E+00 0. -1.
<mgrwt>
<rscale>  0 0.13978533E+03</rscale>
<asrwt>0</asrwt>
<pdfrwt beam="2">  1        1 0.72122710E-01 0.14996618E+03</pdfrwt>
<pdfrwt beam="1">  1       -1 0.93235086E-02 0.14996618E+03</pdfrwt>
<totfact> 0.32632347E+03</totfact>
</mgrwt>
</event>
<event>
 7    1  0.5107591E-006  0.2289503E+03  0.7546771E-02  0.1127381E+00
          2   -1    0    0  501    0  0.00000000000E+00  0.00000000000E+00  0.39216414287E+03  0.39216414287E+03  0.00000000000E+00 0. -1.
         -2   -1    0    0    0  501 -0.00000000000E+00 -0.00000000000E+00 -0.33416008063E+02  0.33416008063E+02  0.00000000000E+00 0.  1.
         23    2    1    2    0    0 -0.89110719260E+01  0.36451728173E+02  0.13795206096E+03  0.16909694076E+03  0.90304310875E+02 0.  0.
          5    1    1    2  502    0 -0.31896493306E+02  0.33759157024E+02  0.57629379914E+02  0.74164023607E+02  0.47000000000E+01 0.  1.
         -5    1    1    2    0  502  0.40807565232E+02 -0.70210885197E+02  0.16316669393E+03  0.18231918656E+03  0.47000000000E+01 0.  1.
        -11    1    3    3    0    0 -0.32761953657E+02  0.19954240573E+02  0.13453349733E+03  0.13989560117E+03  0.00000000000E+00 0. -1.
         11    1    3    3    0    0  0.23850881732E+02  0.16497487600E+02  0.34185636307E+01  0.29201339589E+02  0.00000000000E+00 0.  1.
<mgrwt>
<rscale>  0 0.22895030E+03</rscale>
<asrwt>0</asrwt>
<pdfrwt beam="1">  1        2 0.60332942E-01 0.22895030E+03</pdfrwt>
<pdfrwt beam="2">  1       -2 0.51409246E-02 0.22895030E+03</pdfrwt>
<totfact> 0.15012644E+04</totfact>
</mgrwt>
</event>
<event>
 7    1  0.5107591E-006  0.1284765E+03  0.7546771E-02  0.1243964E+00
          1   -1    0    0  501    0  0.00000000000E+00  0.00000000000E+00  0.12887321027E+03  0.12887321027E+03  0.00000000000E+00 0. -1.
         -1   -1    0    0    0  501 -0.00000000000E+00 -0.00000000000E+00 -0.97861682160E+02  0.97861682160E+02  0.00000000000E+00 0.  1.
         23    2    1    2    0    0 -0.80389399407E+01  0.28571905170E+02  0.15464263808E+02  0.97321078524E+02  0.91385286286E+02 0.  0.
          5    1    1    2  502    0  0.60823834614E+02  0.88086373568E+00  0.28622118802E+02  0.67391620123E+02  0.47000000000E+01 0. -1.
         -5    1    1    2    0  502 -0.52784894673E+02 -0.29452768905E+02 -0.13074854499E+02  0.62022193786E+02  0.47000000000E+01 0. -1.
        -11    1    3    3    0    0 -0.24463341730E+02 -0.11338570992E+02  0.39573138934E+02  0.47885818421E+02  0.00000000000E+00 0. -1.
         11    1    3    3    0    0  0.16424401789E+02  0.39910476162E+02 -0.24108875126E+02  0.49435260103E+02  0.00000000000E+00 0.  1.
<mgrwt>
<rscale>  0 0.11947617E+03</rscale>
<asrwt>0</asrwt>
<pdfrwt beam="1">  1        1 0.19826648E-01 0.12847653E+03</pdfrwt>
<pdfrwt beam="2">  1       -1 0.15055643E-01 0.12847653E+03</pdfrwt>
<totfact> 0.77705518E+03</totfact>
</mgrwt>
</event>
<event>
 7    1  0.5107591E-006  0.1275865E+03  0.7546771E-02  0.1244110E+00
         -2   -1    0    0    0  501 -0.00000000000E+00  0.00000000000E+00  0.61360005586E+02  0.61360005586E+02  0.00000000000E+00 0. -1.
          2   -1    0    0  501    0  0.00000000000E+00 -0.00000000000E+00 -0.20761848136E+03  0.20761848136E+03  0.00000000000E+00 0.  1.
         23    2    1    2    0    0  0.21961872389E+02 -0.13065193304E+02 -0.70727173271E+02  0.12071087904E+03  0.94423303082E+02 0.  0.
          5    1    1    2  502    0 -0.42573198356E+02 -0.43267275029E+02 -0.61388696845E+02  0.86459218173E+02  0.47000000000E+01 0. -1.
         -5    1    1    2    0  502  0.20611325967E+02  0.56332468333E+02 -0.14142605659E+02  0.61808389734E+02  0.47000000000E+01 0. -1.
        -11    1    3    3    0    0  0.28468521352E+02 -0.36115297332E+02 -0.82172962675E+02  0.94165637066E+02  0.00000000000E+00 0.  1.
         11    1    3    3    0    0 -0.65066489631E+01  0.23050104028E+02  0.11445789403E+02  0.26545241975E+02  0.00000000000E+00 0. -1.
<mgrwt>
<rscale>  0 0.11938796E+03</rscale>
<asrwt>0</asrwt>
<pdfrwt beam="2">  1        2 0.31941305E-01 0.12758646E+03</pdfrwt>
<pdfrwt beam="1">  1       -2 0.94400007E-02 0.12758646E+03</pdfrwt>
<totfact> 0.11147438E+04</totfact>
</mgrwt>
</event>
<event>
 7    1  0.5107591E-006  0.1514319E+03  0.7546771E-02  0.1207233E+00
         -2   -1    0    0    0  501 -0.00000000000E+00  0.00000000000E+00  0.27157584748E+02  0.27157584748E+02  0.00000000000E+00 0.  1.
          2   -1    0    0  501    0  0.00000000000E+00 -0.00000000000E+00 -0.75745856447E+03  0.75745856447E+03  0.00000000000E+00 0. -1.
         23    2    1    2    0    0  0.84627189581E+02 -0.11817169860E+02 -0.43315082326E+03  0.45110477542E+03  0.92598466520E+02 0.  0.
          5    1    1    2  502    0 -0.51355708684E+02 -0.20386626785E+02 -0.27750781922E+03  0.28299417502E+03  0.47000000000E+01 0.  1.
         -5    1    1    2    0  502 -0.33271480897E+02  0.32203796645E+02 -0.19642337239E+02  0.50517198771E+02  0.47000000000E+01 0.  1.
        -11    1    3    3    0    0  0.87789777945E+02 -0.37222675673E+02 -0.38428226184E+03  0.39593614316E+03  0.00000000000E+00 0. -1.
         11    1    3    3    0    0 -0.31625883639E+01  0.25405505813E+02 -0.48868561414E+02  0.55168632260E+02  0.00000000000E+00 0.  1.
<mgrwt>
<rscale>  0 0.14462896E+03</rscale>
<asrwt>0</asrwt>
<pdfrwt beam="2">  1        2 0.11653208E+00 0.15143190E+03</pdfrwt>
<pdfrwt beam="1">  1       -2 0.41780902E-02 0.15143190E+03</pdfrwt>
<totfact> 0.94546801E+03</totfact>
</mgrwt>
</event>
<event>
 7    1  0.5107591E-006  0.1254375E+03  0.7546771E-02  0.1250321E+00
          1   -1    0    0  501    0  0.00000000000E+00  0.00000000000E+00  0.22349494902E+02  0.22349494902E+02  0.00000000000E+00 0. -1.
         -1   -1    0    0    0  501 -0.00000000000E+00 -0.00000000000E+00 -0.52599890343E+03  0.52599890343E+03  0.00000000000E+00 0.  1.
         23    2    1    2    0    0  0.83262814726E+01 -0.63853510415E+01 -0.19270861361E+03  0.21305936173E+03  0.90263958412E+02 0.  0.
          5    1    1    2  502    0  0.25409931344E+02 -0.29505924481E+02 -0.26461637502E+03  0.26750734591E+03  0.47000000000E+01 0.  1.
         -5    1    1    2    0  502 -0.33736212817E+02  0.35891275522E+02 -0.46324419896E+02  0.67781690688E+02  0.47000000000E+01 0.  1.
        -11    1    3    3    0    0  0.13487713120E+00  0.29045481565E+02 -0.17059038921E+02  0.33684848227E+02  0.00000000000E+00 0. -1.
         11    1    3    3    0    0  0.81914043414E+01 -0.35430832606E+02 -0.17564957469E+03  0.17937451350E+03  0.00000000000E+00 0.  1.
<mgrwt>
<rscale>  0 0.11572515E+03</rscale>
<asrwt>0</asrwt>
<pdfrwt beam="1">  1        1 0.34383841E-02 0.12543747E+03</pdfrwt>
<pdfrwt beam="2">  1       -1 0.80922903E-01 0.12543747E+03</pdfrwt>
<totfact> 0.42645510E+03</totfact>
</mgrwt>
</event>
<event>
 7    1  0.5107591E-006  0.1722873E+03  0.7546771E-02  0.1181993E+00
         -1   -1    0    0    0  501 -0.00000000000E+00  0.00000000000E+00  0.29000370630E+03  0.29000370630E+03  0.00000000000E+00 0.  1.
          1   -1    0    0  501    0  0.00000000000E+00 -0.00000000000E+00 -0.96471631504E+02  0.96471631504E+02  0.00000000000E+00 0. -1.
         23    2    1    2    0    0 -0.10567391397E+03  0.53747196339E+02  0.36128683562E+02  0.15311139532E+03  0.89900391503E+02 0.  0.
          5    1    1    2  502    0  0.13287769651E+03 -0.31939597580E+02  0.11888312180E+03  0.18119576919E+03  0.47000000000E+01 0.  1.
         -5    1    1    2    0  502 -0.27203782533E+02 -0.21807598759E+02  0.38520269432E+02  0.52168173294E+02  0.47000000000E+01 0.  1.
        -11    1    3    3    0    0 -0.87029786257E+02  0.50866573834E+02  0.64036977866E+02  0.11942498300E+03  0.00000000000E+00 0.  1.
         11    1    3    3    0    0 -0.18644127718E+02  0.28806225046E+01 -0.27908294304E+02  0.33686412325E+02  0.00000000000E+00 0. -1.
<mgrwt>
<rscale>  0 0.16608551E+03</rscale>
<asrwt>0</asrwt>
<pdfrwt beam="2">  1        1 0.14841790E-01 0.17228727E+03</pdfrwt>
<pdfrwt beam="1">  1       -1 0.44615955E-01 0.17228727E+03</pdfrwt>
<totfact> 0.18834073E+03</totfact>
</mgrwt>
</event>
<event>
 7    1  0.5107591E-006  0.1435234E+03  0.7546771E-02  0.1219359E+00
          3   -1    0    0  501    0  0.00000000000E+00  0.00000000000E+00  0.63430242990E+03  0.63430242990E+03  0.00000000000E+00 0.  1.
         -3   -1    0    0    0  501 -0.00000000000E+00 -0.00000000000E+00 -0.30369823082E+02  0.30369823082E+02  0.00000000000E+00 0. -1.
         23    2    1    2    0    0  0.20461319334E+02  0.67496531570E+02  0.39471293765E+03  0.41095621403E+03  0.90068081664E+02 0.  0.
          5    1    1    2  502    0  0.59132364867E+01  0.13045334919E+02 -0.10366998838E+02  0.18295130330E+02  0.47000000000E+01 0.  1.
         -5    1    1    2    0  502 -0.26374555821E+02 -0.80541866490E+02  0.21958666800E+03  0.23542090862E+03  0.47000000000E+01 0.  1.
        -11    1    3    3    0    0  0.41257258478E+02 -0.99332846737E+00  0.17828838773E+03  0.18300245156E+03  0.00000000000E+00 0.  1.
         11    1    3    3    0    0 -0.20795939144E+02  0.68489860037E+02  0.21642454993E+03  0.22795376247E+03  0.00000000000E+00 0. -1.
<mgrwt>
<rscale>  0 0.13561127E+03</rscale>
<asrwt>0</asrwt>
<pdfrwt beam="1">  1        3 0.97584979E-01 0.14352337E+03</pdfrwt>
<pdfrwt beam="2">  1       -3 0.46722809E-02 0.14352337E+03</pdfrwt>
<totfact> 0.56903481E+02</totfact>
</mgrwt>
</event>
<event>
 7    1  0.5107591E-006  0.2516154E+03  0.7546771E-02  0.1114766E+00
         -2   -1    0    0    0  501 -0.00000000000E+00  0.00000000000E+00  0.41746297598E+03  0.41746297598E+03  0.00000000000E+00 0.  1.
          2   -1    0    0  501    0  0.00000000000E+00 -0.00000000000E+00 -0.14455623017E+03  0.14455623017E+03  0.00000000000E+00 0. -1.
         23    2    1    2    0    0 -0.20471802767E+03  0.76006565263E+02  0.16509062103E+03  0.28827727014E+03  0.90346015466E+02 0.  0.
          5    1    1    2  502    0  0.16346915818E+03 -0.91097729539E+02  0.12633908239E+03  0.22584201501E+03  0.47000000000E+01 0. -1.
         -5    1    1    2    0  502  0.41248869489E+02  0.15091164276E+02 -0.18522957602E+02  0.47899920999E+02  0.47000000000E+01 0. -1.
        -11    1    3    3    0    0 -0.72541868858E+02  0.41183947923E+02  0.11634444866E+03  0.14315890136E+03  0.00000000000E+00 0.  1.
         11    1    3    3    0    0 -0.13217615882E+03  0.34822617340E+02  0.48746172369E+02  0.14511836878E+03  0.00000000000E+00 0. -1.
<mgrwt>
<rscale>  0 0.24770215E+03</rscale>
<asrwt>0</asrwt>
<pdfrwt beam="2">  1        2 0.22239420E-01 0.25161544E+03</pdfrwt>
<pdfrwt beam="1">  1       -2 0.64225073E-01 0.25161544E+03</pdfrwt>
<totfact> 0.56412334E+02</totfact>
</mgrwt>
</event>
<event>
 7    1  0.5107591E-006  0.1689078E+03  0.7546771E-02  0.1185667E+00
         -2   -1    0    0    0  501 -0.00000000000E+00  0.00000000000E+00  0.96163437571E+02  0.96163437571E+02  0.00000000000E+00 0.  1.
          2   -1    0    0  501    0  0.00000000000E+00 -0.00000000000E+00 -0.25692667024E+03  0.25692667024E+03  0.00000000000E+00 0. -1.
         23    2    1    2    0    0  0.69376726918E+02  0.89946614540E+02 -0.74973968337E+02  0.16364451748E+03  0.90856526837E+02 0.  0.
          5    1    1    2  502    0 -0.67644073588E+01 -0.25738369723E+02  0.31641323944E+02  0.41611107458E+02  0.47000000000E+01 0. -1.
         -5    1    1    2    0  502 -0.62612319559E+02 -0.64208244817E+02 -0.11743058828E+03  0.14783448287E+03  0.47000000000E+01 0. -1.
        -11    1    3    3    0    0  0.26825746543E+02  0.92105179130E+02 -0.73779107768E+02  0.12102207007E+03  0.00000000000E+00 0.  1.
         11    1    3    3    0    0  0.42550980375E+02 -0.21585645898E+01 -0.11948605687E+01  0.42622447416E+02  0.00000000000E+00 0. -1.
<mgrwt>
<rscale>  0 0.16271315E+03</rscale>
<asrwt>0</asrwt>
<pdfrwt beam="2">  1        2 0.39527180E-01 0.16890777E+03</pdfrwt>
<pdfrwt beam="1">  1       -2 0.14794375E-01 0.16890777E+03</pdfrwt>
<totfact> 0.44057807E+03</totfact>
</mgrwt>
</event>
<event>
 7    1  0.5107591E-006  0.1358475E+03  0.7546771E-02  0.1232010E+00
          1   -1    0    0  501    0  0.00000000000E+00  0.00000000000E+00  0.25664922746E+03  0.25664922746E+03  0.00000000000E+00 0. -1.
         -1   -1    0    0    0  501 -0.00000000000E+00 -0.00000000000E+00 -0.94838989286E+02  0.94838989286E+02  0.00000000000E+00 0.  1.
         23    2    1    2    0    0  0.36247906711E+01  0.51647953826E+02  0.18652453278E+03  0.21341094731E+03  0.89845316296E+02 0.  0.
          5    1    1    2  502    0  0.34722827505E+02  0.27364253164E+02  0.61179240182E+01  0.44877567842E+02  0.47000000000E+01 0. -1.
         -5    1    1    2    0  502 -0.38347618176E+02 -0.79012206989E+02 -0.30832218621E+02  0.93199701599E+02  0.47000000000E+01 0.  1.
        -11    1    3    3    0    0 -0.20606803770E+02  0.68639760514E+02  0.10920442044E+03  0.13062029907E+03  0.00000000000E+00 0. -1.
         11    1    3    3    0    0  0.24231594441E+02 -0.16991806688E+02  0.77320112341E+02  0.82790648240E+02  0.00000000000E+00 0.  1.
<mgrwt>
<rscale>  0 0.12697816E+03</rscale>
<asrwt>0</asrwt>
<pdfrwt beam="1">  1        1 0.39484496E-01 0.13584747E+03</pdfrwt>
<pdfrwt beam="2">  1       -1 0.14590614E-01 0.13584747E+03</pdfrwt>
<totfact> 0.34645014E+03</totfact>
</mgrwt>
</event>
<event>
 7    1  0.5107591E-006  0.1331868E+03  0.7546771E-02  0.1235391E+00
         -1   -1    0    0    0  501 -0.00000000000E+00  0.00000000000E+00  0.30924294576E+02  0.30924294576E+02  0.00000000000E+00 0.  1.
          1   -1    0    0  501    0  0.00000000000E+00 -0.00000000000E+00 -0.45432988730E+03  0.45432988730E+03  0.00000000000E+00 0. -1.
         23    2    1    2    0    0  0.21678899914E+02 -0.40504867650E+02 -0.20894573793E+03  0.23280269360E+03  0.91804976687E+02 0.  0.
          5    1    1    2  502    0  0.19452473311E+00  0.77663459628E+02 -0.81856334760E+02  0.11293449580E+03  0.47000000000E+01 0.  1.
         -5    1    1    2    0  502 -0.21873424647E+02 -0.37158591979E+02 -0.13260352003E+03  0.13951699247E+03  0.47000000000E+01 0.  1.
        -11    1    3    3    0    0 -0.18375875217E+01  0.25441983368E+02 -0.10075307544E+03  0.10393196552E+03  0.00000000000E+00 0. -1.
         11    1    3    3    0    0  0.23516487435E+02 -0.65946851018E+02 -0.10819266249E+03  0.12887072808E+03  0.00000000000E+00 0.  1.
<mgrwt>
<rscale>  0 0.12479427E+03</rscale>
<asrwt>0</asrwt>
<pdfrwt beam="2">  1        1 0.69896904E-01 0.13318680E+03</pdfrwt>
<pdfrwt beam="1">  1       -1 0.47575839E-02 0.13318680E+03</pdfrwt>
<totfact> 0.92512988E+03</totfact>
</mgrwt>
</event>
<event>
 7    1  0.5107591E-006  0.2083190E+03  0.7546771E-02  0.1146651E+00
          2   -1    0    0  501    0  0.00000000000E+00  0.00000000000E+00  0.50332996183E+03  0.50332996183E+03  0.00000000000E+00 0. -1.
         -2   -1    0    0    0  501 -0.00000000000E+00 -0.00000000000E+00 -0.95125797438E+02  0.95125797438E+02  0.00000000000E+00 0.  1.
         23    2    1    2    0    0 -0.10761215847E+03  0.12724475457E+03  0.31965696031E+03  0.37209892743E+03  0.92224916942E+02 0.  0.
          5    1    1    2  502    0 -0.12818988533E+02 -0.66381287849E+01  0.49038832827E+02  0.51335059616E+02  0.47000000000E+01 0. -1.
         -5    1    1    2    0  502  0.12043114701E+03 -0.12060662578E+03  0.39508371258E+02  0.17502177222E+03  0.47000000000E+01 0. -1.
        -11    1    3    3    0    0 -0.85822239406E+02  0.77014288952E+02  0.12577557605E+03  0.17063455984E+03  0.00000000000E+00 0.  1.
         11    1    3    3    0    0 -0.21789919068E+02  0.50230465617E+02  0.19388138426E+03  0.20146436759E+03  0.00000000000E+00 0. -1.
<mgrwt>
<rscale>  0 0.20370451E+03</rscale>
<asrwt>0</asrwt>
<pdfrwt beam="1">  1        2 0.77435377E-01 0.20831901E+03</pdfrwt>
<pdfrwt beam="2">  1       -2 0.14634738E-01 0.20831901E+03</pdfrwt>
<totfact> 0.21858581E+03</totfact>
</mgrwt>
</event>
<event>
 7    1  0.5107591E-006  0.1523221E+03  0.7546771E-02  0.1205456E+00
         -2   -1    0    0    0  501 -0.00000000000E+00  0.00000000000E+00  0.91425196554E+02  0.91425196554E+02  0.00000000000E+00 0.  1.
          2   -1    0    0  501    0  0.00000000000E+00 -0.00000000000E+00 -0.39788897114E+03  0.39788897114E+03  0.00000000000E+00 0. -1.
         23    2    1    2    0    0 -0.77461587653E+02  0.48500789320E+02 -0.31139434115E+03  0.33691228574E+03  0.90503195813E+02 0.  0.
          5    1    1    2  502    0 -0.25513098219E+01  0.20877012389E+02 -0.33339577676E+02  0.39698567578E+02  0.47000000000E+01 0. -1.
         -5    1    1    2    0  502  0.80012897474E+02 -0.69377801710E+02  0.38270144241E+02  0.11270331438E+03  0.47000000000E+01 0.  1.
        -11    1    3    3    0    0 -0.91915710569E+02  0.59111187108E+02 -0.24756646916E+03  0.27061372275E+03  0.00000000000E+00 0. -1.
         11    1    3    3    0    0  0.14454122916E+02 -0.10610397787E+02 -0.63827871991E+02  0.66298562981E+02  0.00000000000E+00 0.  1.
<mgrwt>
<rscale>  0 0.14601601E+03</rscale>
<asrwt>0</asrwt>
<pdfrwt beam="2">  1        2 0.61213688E-01 0.15232210E+03</pdfrwt>
<pdfrwt beam="1">  1       -2 0.14065415E-01 0.15232210E+03</pdfrwt>
<totfact> 0.29855284E+03</totfact>
</mgrwt>
</event>
<event>
 7    1  0.5107591E-006  0.1267883E+03  0.7546771E-02  0.1248047E+00
         -4   -1    0    0    0  501 -0.00000000000E+00  0.00000000000E+00  0.25146264021E+02  0.25146264021E+02  0.00000000000E+00 0.  1.
          4   -1    0    0  501    0  0.00000000000E+00 -0.00000000000E+00 -0.52394367355E+03  0.52394367355E+03  0.00000000000E+00 0. -1.
         23    2    1    2    0    0  0.21051861118E+02  0.23273397622E+01 -0.29529720711E+03  0.30932420589E+03  0.89623805196E+02 0.  0.
          5    1    1    2  502    0 -0.11098458358E+02 -0.49275347747E+02 -0.28378485677E+02  0.58126277386E+02  0.47000000000E+01 0. -1.
         -5    1    1    2    0  502 -0.99534027592E+01  0.46948007984E+02 -0.17512171674E+03  0.18163945429E+03  0.47000000000E+01 0. -1.
        -11    1    3    3    0    0  0.38404254135E+02  0.36354841223E+02 -0.19352343434E+03  0.20061874502E+03  0.00000000000E+00 0. -1.
         11    1    3    3    0    0 -0.17352393018E+02 -0.34027501461E+02 -0.10177377277E+03  0.10870546087E+03  0.00000000000E+00 0.  1.
<mgrwt>
<rscale>  0 0.11704839E+03</rscale>
<asrwt>0</asrwt>
<pdfrwt beam="2">  1        4 0.80606718E-01 0.12678830E+03</pdfrwt>
<pdfrwt beam="1">  1       -4 0.38686561E-02 0.12678830E+03</pdfrwt>
<totfact> 0.82270708E+02</totfact>
</mgrwt>
</event>
<event>
 7    1  0.5107591E-006  0.1311314E+03  0.7546771E-02  0.1238781E+00
         -1   -1    0    0    0  501 -0.00000000000E+00  0.00000000000E+00  0.27934519827E+02  0.27934519827E+02  0.00000000000E+00 0.  1.
          1   -1    0    0  501    0  0.00000000000E+00 -0.00000000000E+00 -0.52977014232E+03  0.52977014232E+03  0.00000000000E+00 0. -1.
         23    2    1    2    0    0  0.38902842344E+02  0.66386913710E+01 -0.30582725207E+03  0.32187689162E+03  0.92287170756E+02 0.  0.
          5    1    1    2  502    0 -0.31697792630E+02 -0.34527446493E+02 -0.10792585298E+02  0.48326643959E+02  0.47000000000E+01 0. -1.
         -5    1    1    2    0  502 -0.72050497136E+01  0.27888755122E+02 -0.18521578512E+03  0.18750112656E+03  0.47000000000E+01 0. -1.
        -11    1    3    3    0    0 -0.16427376721E+02  0.34301319162E+02 -0.10152407178E+03  0.10841391218E+03  0.00000000000E+00 0. -1.
         11    1    3    3    0    0  0.55330219065E+02 -0.27662627791E+02 -0.20430318029E+03  0.21346297944E+03  0.00000000000E+00 0.  1.
<mgrwt>
<rscale>  0 0.12265427E+03</rscale>
<asrwt>0</asrwt>
<pdfrwt beam="2">  1        1 0.81503095E-01 0.13113145E+03</pdfrwt>
<pdfrwt beam="1">  1       -1 0.42976186E-02 0.13113145E+03</pdfrwt>
<totfact> 0.87932865E+03</totfact>
</mgrwt>
</event>
<event>
 7    1  0.5107591E-006  0.1260690E+03  0.7546771E-02  0.1247751E+00
          2   -1    0    0  501    0  0.00000000000E+00  0.00000000000E+00  0.38993016798E+03  0.38993016798E+03  0.00000000000E+00 0. -1.
         -2   -1    0    0    0  501 -0.00000000000E+00 -0.00000000000E+00 -0.31143848994E+02  0.31143848994E+02  0.00000000000E+00 0.  1.
         23    2    1    2    0    0 -0.93057906282E+01 -0.13474213388E+02  0.14742668010E+03  0.17497184871E+03  0.92802853780E+02 0.  0.
          5    1    1    2  502    0 -0.56266162467E+02 -0.83022777910E+00  0.12020788160E+03  0.13281037277E+03  0.47000000000E+01 0.  1.
         -5    1    1    2    0  502  0.65571953096E+02  0.14304441167E+02  0.91151757290E+02  0.11329179550E+03  0.47000000000E+01 0.  1.
        -11    1    3    3    0    0  0.10578327818E+02  0.36614790313E+02  0.80327234829E+02  0.88910114972E+02  0.00000000000E+00 0. -1.
         11    1    3    3    0    0 -0.19884118446E+02 -0.50089003701E+02  0.67099445267E+02  0.86061733734E+02  0.00000000000E+00 0.  1.
<mgrwt>
<rscale>  0 0.11722248E+03</rscale>
<asrwt>0</asrwt>
<pdfrwt beam="1">  1        2 0.59989253E-01 0.12606895E+03</pdfrwt>
<pdfrwt beam="2">  1       -2 0.47913617E-02 0.12606895E+03</pdfrwt>
<totfact> 0.16042842E+04</totfact>
</mgrwt>
</event>
<event>
 7    1  0.5107591E-006  0.2344280E+03  0.7546771E-02  0.1123561E+00
          4   -1    0    0  501    0  0.00000000000E+00  0.00000000000E+00  0.18820154336E+03  0.18820154336E+03  0.00000000000E+00 0. -1.
         -4   -1    0    0    0  501 -0.00000000000E+00 -0.00000000000E+00 -0.73002202736E+02  0.73002202736E+02  0.00000000000E+00 0.  1.
         23    2    1    2    0    0 -0.30115059219E+02  0.39777267594E+01  0.87802529436E+02  0.12968029603E+03  0.90470746114E+02 0.  0.
          5    1    1    2  502    0 -0.31774386008E+02  0.16822496337E+02  0.50445105588E+02  0.62124123069E+02  0.47000000000E+01 0.  1.
         -5    1    1    2    0  502  0.61889445227E+02 -0.20800223096E+02 -0.23048294405E+02  0.69399326988E+02  0.47000000000E+01 0.  1.
        -11    1    3    3    0    0 -0.33195224110E+02 -0.23914469249E+02  0.37695508879E+01  0.41085694068E+02  0.00000000000E+00 0.  1.
         11    1    3    3    0    0  0.30801648910E+01  0.27892196009E+02  0.84032978548E+02  0.88594601966E+02  0.00000000000E+00 0. -1.
<mgrwt>
<rscale>  0 0.23442805E+03</rscale>
<asrwt>0</asrwt>
<pdfrwt beam="1">  1        4 0.28954083E-01 0.23442805E+03</pdfrwt>
<pdfrwt beam="2">  1       -4 0.11231108E-01 0.23442805E+03</pdfrwt>
<totfact> 0.12977711E+03</totfact>
</mgrwt>
</event>
<event>
 7    1  0.5107591E-006  0.1254457E+03  0.7546771E-02  0.1250105E+00
          1   -1    0    0  501    0  0.00000000000E+00  0.00000000000E+00  0.29608355069E+03  0.29608355069E+03  0.00000000000E+00 0. -1.
         -1   -1    0    0    0  501 -0.00000000000E+00 -0.00000000000E+00 -0.49079536951E+02  0.49079536951E+02  0.00000000000E+00 0.  1.
         23    2    1    2    0    0 -0.67429448859E+01  0.82726042968E+01  0.18264990476E+03  0.20417346313E+03  0.90619600815E+02 0.  0.
          5    1    1    2  502    0 -0.32590996088E+02 -0.24533563696E+02 -0.20535252590E+02  0.45911386089E+02  0.47000000000E+01 0. -1.
         -5    1    1    2    0  502  0.39333940974E+02  0.16260959400E+02  0.84889361573E+02  0.95078238422E+02  0.47000000000E+01 0. -1.
        -11    1    3    3    0    0 -0.10700796210E+02  0.45710354114E+02  0.13802259931E+03  0.14578813886E+03  0.00000000000E+00 0.  1.
         11    1    3    3    0    0  0.39578513240E+01 -0.37437749818E+02  0.44627305447E+02  0.58385324269E+02  0.00000000000E+00 0. -1.
<mgrwt>
<rscale>  0 0.11584977E+03</rscale>
<asrwt>0</asrwt>
<pdfrwt beam="1">  1        1 0.45551315E-01 0.12544570E+03</pdfrwt>
<pdfrwt beam="2">  1       -1 0.75506981E-02 0.12544570E+03</pdfrwt>
<totfact> 0.79187945E+03</totfact>
</mgrwt>
</event>
<event>
 7    1  0.5107591E-006  0.1949272E+03  0.7546771E-02  0.1158758E+00
          2   -1    0    0  501    0  0.00000000000E+00  0.00000000000E+00  0.13294166872E+03  0.13294166872E+03  0.00000000000E+00 0. -1.
         -2   -1    0    0    0  501 -0.00000000000E+00 -0.00000000000E+00 -0.26432264620E+03  0.26432264620E+03  0.00000000000E+00 0.  1.
         23    2    1    2    0    0 -0.12442906165E+03 -0.82993607254E+02 -0.29141985134E+02  0.17715204928E+03  0.90349670931E+02 0.  0.
          5    1    1    2  502    0  0.14309702796E+03  0.51142307602E+02 -0.59047032310E+02  0.16309793703E+03  0.47000000000E+01 0. -1.
         -5    1    1    2    0  502 -0.18667966313E+02  0.31851299652E+02 -0.43191960035E+02  0.57014328615E+02  0.47000000000E+01 0. -1.
        -11    1    3    3    0    0 -0.50932809596E+02 -0.49048588695E+02 -0.57743139637E+02  0.91291759329E+02  0.00000000000E+00 0.  1.
         11    1    3    3    0    0 -0.73496252052E+02 -0.33945018560E+02  0.28601154503E+02  0.85860289947E+02  0.00000000000E+00 0. -1.
<mgrwt>
<rscale>  0 0.18967125E+03</rscale>
<asrwt>0</asrwt>
<pdfrwt beam="1">  1        2 0.20452565E-01 0.19492716E+03</pdfrwt>
<pdfrwt beam="2">  1       -2 0.40665022E-01 0.19492716E+03</pdfrwt>
<totfact> 0.15438516E+03</totfact>
</mgrwt>
</event>
<event>
 7    1  0.5107591E-006  0.1342040E+03  0.7546771E-02  0.1233356E+00
         -2   -1    0    0    0  501 -0.00000000000E+00  0.00000000000E+00  0.30807989405E+03  0.30807989405E+03  0.00000000000E+00 0.  1.
          2   -1    0    0  501    0  0.00000000000E+00 -0.00000000000E+00 -0.47168079538E+02  0.47168079538E+02  0.00000000000E+00 0. -1.
         23    2    1    2    0    0 -0.26625037808E+02 -0.40935575502E+02  0.90441514220E+02  0.13828980227E+03  0.92519122005E+02 0.  0.
          5    1    1    2  502    0  0.66323247961E+02  0.60294957772E+02  0.11185151393E+03  0.14341236461E+03  0.47000000000E+01 0.  1.
         -5    1    1    2    0  502 -0.39698210153E+02 -0.19359382270E+02  0.58618786363E+02  0.73545806718E+02  0.47000000000E+01 0.  1.
        -11    1    3    3    0    0  0.45691681468E+01 -0.31638382285E+02  0.99494850797E+02  0.10450401842E+03  0.00000000000E+00 0.  1.
         11    1    3    3    0    0 -0.31194205955E+02 -0.92971932176E+01 -0.90533365768E+01  0.33785783845E+02  0.00000000000E+00 0. -1.
<mgrwt>
<rscale>  0 0.12610236E+03</rscale>
<asrwt>0</asrwt>
<pdfrwt beam="2">  1        2 0.72566278E-02 0.13420404E+03</pdfrwt>
<pdfrwt beam="1">  1       -2 0.47396906E-01 0.13420404E+03</pdfrwt>
<totfact> 0.39271220E+03</totfact>
</mgrwt>
</event>
<event>
 7    1  0.5107591E-006  0.1284960E+03  0.7546771E-02  0.1243072E+00
          2   -1    0    0  501    0  0.00000000000E+00  0.00000000000E+00  0.90045457786E+03  0.90045457786E+03  0.00000000000E+00 0. -1.
         -2   -1    0    0    0  501 -0.00000000000E+00 -0.00000000000E+00 -0.14405100097E+02  0.14405100097E+02  0.00000000000E+00 0.  1.
         23    2    1    2    0    0 -0.16108284113E+02 -0.25042838210E+02  0.43563309778E+03  0.44647294415E+03  0.93141147764E+02 0.  0.
          5    1    1    2  502    0  0.15833844687E+02  0.61228095323E+01  0.66650791585E-01  0.17615160416E+02  0.47000000000E+01 0. -1.
         -5    1    1    2    0  502  0.27443942571E+00  0.18920028678E+02  0.45034972919E+03  0.45077157340E+03  0.47000000000E+01 0. -1.
        -11    1    3    3    0    0 -0.54995916119E+02 -0.19743176693E+02  0.25034236449E+03  0.25707128054E+03  0.00000000000E+00 0.  1.
         11    1    3    3    0    0  0.38887632006E+02 -0.52996615171E+01  0.18529073329E+03  0.18940166361E+03  0.00000000000E+00 0. -1.
<mgrwt>
<rscale>  0 0.12001489E+03</rscale>
<asrwt>0</asrwt>
<pdfrwt beam="1">  1        2 0.13853143E+00 0.12849598E+03</pdfrwt>
<pdfrwt beam="2">  1       -2 0.22161700E-02 0.12849598E+03</pdfrwt>
<totfact> 0.19120067E+04</totfact>
</mgrwt>
</event>
<event>
 7    1  0.5107591E-006  0.1392110E+03  0.7546771E-02  0.1224884E+00
         -1   -1    0    0    0  501 -0.00000000000E+00  0.00000000000E+00  0.39149203214E+02  0.39149203214E+02  0.00000000000E+00 0. -1.
          1   -1    0    0  501    0  0.00000000000E+00 -0.00000000000E+00 -0.46561121721E+03  0.46561121721E+03  0.00000000000E+00 0.  1.
         23    2    1    2    0    0 -0.28572359132E+02 -0.54612415287E+02 -0.28586233221E+03  0.30690192624E+03  0.93126922768E+02 0.  0.
          5    1    1    2  502    0 -0.47519534231E+00  0.41182517925E+02 -0.15644288108E+03  0.16184156028E+03  0.47000000000E+01 0. -1.
         -5    1    1    2    0  502  0.29047554474E+02  0.13429897362E+02  0.15843199292E+02  0.36016933905E+02  0.47000000000E+01 0. -1.
        -11    1    3    3    0    0  0.10302709340E+02 -0.65491177430E+02 -0.13041899996E+03  0.14630227508E+03  0.00000000000E+00 0.  1.
         11    1    3    3    0    0 -0.38875068473E+02  0.10878762144E+02 -0.15544333225E+03  0.16059965117E+03  0.00000000000E+00 0. -1.
<mgrwt>
<rscale>  0 0.13174835E+03</rscale>
<asrwt>0</asrwt>
<pdfrwt beam="2">  1        1 0.71632495E-01 0.13921104E+03</pdfrwt>
<pdfrwt beam="1">  1       -1 0.60229543E-02 0.13921104E+03</pdfrwt>
<totfact> 0.63359870E+03</totfact>
</mgrwt>
</event>
<event>
 7    1  0.5107591E-006  0.1613106E+03  0.7546771E-02  0.1194713E+00
         -1   -1    0    0    0  501 -0.00000000000E+00  0.00000000000E+00  0.16073701189E+03  0.16073701189E+03  0.00000000000E+00 0.  1.
          1   -1    0    0  501    0  0.00000000000E+00 -0.00000000000E+00 -0.14167062016E+03  0.14167062016E+03  0.00000000000E+00 0. -1.
         23    2    1    2    0    0 -0.50992996494E+02  0.88291915702E+02 -0.14897606220E+02  0.13756028163E+03  0.91132564654E+02 0.  0.
          5    1    1    2  502    0 -0.10755241480E+02 -0.86601368742E+01 -0.38151034223E+02  0.40844394992E+02  0.47000000000E+01 0. -1.
         -5    1    1    2    0  502  0.61748237974E+02 -0.79631778828E+02  0.72115032173E+02  0.12400295544E+03  0.47000000000E+01 0. -1.
        -11    1    3    3    0    0 -0.63181279425E+01  0.51963500615E+02  0.33663083260E+02  0.62236061182E+02  0.00000000000E+00 0.  1.
         11    1    3    3    0    0 -0.44674868551E+02  0.36328415087E+02 -0.48560689480E+02  0.75324220445E+02  0.00000000000E+00 0. -1.
<mgrwt>
<rscale>  0 0.15478536E+03</rscale>
<asrwt>0</asrwt>
<pdfrwt beam="2">  1        1 0.21795480E-01 0.16131056E+03</pdfrwt>
<pdfrwt beam="1">  1       -1 0.24728771E-01 0.16131056E+03</pdfrwt>
<totfact> 0.31521964E+03</totfact>
</mgrwt>
</event>
<event>
 7    1  0.5107591E-006  0.1272331E+03  0.7546771E-02  0.1246352E+00
          1   -1    0    0  501    0  0.00000000000E+00  0.00000000000E+00  0.74725918361E+02  0.74725918361E+02  0.00000000000E+00 0. -1.
         -1   -1    0    0    0  501 -0.00000000000E+00 -0.00000000000E+00 -0.18753039765E+03  0.18753039765E+03  0.00000000000E+00 0.  1.
         23    2    1    2    0    0  0.21143205577E+02 -0.11006972160E+02 -0.32232318162E+01  0.94338745714E+02  0.91220727586E+02 0.  0.
          5    1    1    2  502    0 -0.13057986252E+02 -0.27363701450E+02 -0.12256283414E+03  0.12634485139E+03  0.47000000000E+01 0.  1.
         -5    1    1    2    0  502 -0.80852193251E+01  0.38370673610E+02  0.12981586664E+02  0.41572718905E+02  0.47000000000E+01 0.  1.
        -11    1    3    3    0    0 -0.78869324497E+01  0.18242154645E+02 -0.36374348611E+02  0.41449645915E+02  0.00000000000E+00 0.  1.
         11    1    3    3    0    0  0.29030138027E+02 -0.29249126806E+02  0.33151116795E+02  0.52889099799E+02  0.00000000000E+00 0. -1.
<mgrwt>
<rscale>  0 0.11804815E+03</rscale>
<asrwt>0</asrwt>
<pdfrwt beam="1">  1        1 0.11496295E-01 0.12723310E+03</pdfrwt>
<pdfrwt beam="2">  1       -1 0.28850830E-01 0.12723310E+03</pdfrwt>
<totfact> 0.55024850E+03</totfact>
</mgrwt>
</event>
<event>
 7    1  0.5107591E-006  0.1433916E+03  0.7546771E-02  0.1218852E+00
          2   -1    0    0  501    0  0.00000000000E+00  0.00000000000E+00  0.85763397869E+02  0.85763397869E+02  0.00000000000E+00 0. -1.
         -2   -1    0    0    0  501 -0.00000000000E+00 -0.00000000000E+00 -0.21494869422E+03  0.21494869422E+03  0.00000000000E+00 0.  1.
         23    2    1    2    0    0  0.68380336439E+02 -0.16694598367E+02 -0.13999750093E+02  0.11678585179E+03  0.92132307848E+02 0.  0.
          5    1    1    2  502    0 -0.42765917527E+01  0.32807113745E+02  0.15928150031E+02  0.37018804853E+02  0.47000000000E+01 0. -1.
         -5    1    1    2    0  502 -0.64103744686E+02 -0.16112515378E+02 -0.13111369629E+03  0.14690743544E+03  0.47000000000E+01 0. -1.
        -11    1    3    3    0    0  0.13987105731E+02 -0.14193028063E+02 -0.48425561579E+02  0.52365219245E+02  0.00000000000E+00 0.  1.
         11    1    3    3    0    0  0.54393230708E+02 -0.25015703038E+01  0.34425811487E+02  0.64420632544E+02  0.00000000000E+00 0. -1.
<mgrwt>
<rscale>  0 0.13597360E+03</rscale>
<asrwt>0</asrwt>
<pdfrwt beam="1">  1        2 0.13194369E-01 0.14339160E+03</pdfrwt>
<pdfrwt beam="2">  1       -2 0.33069029E-01 0.14339160E+03</pdfrwt>
<totfact> 0.37336635E+03</totfact>
</mgrwt>
</event>
<event>
 7    1  0.5107591E-006  0.1605785E+03  0.7546771E-02  0.1198769E+00
          1   -1    0    0  501    0  0.00000000000E+00  0.00000000000E+00  0.53858189876E+03  0.53858189876E+03  0.00000000000E+00 0. -1.
         -1   -1    0    0    0  501 -0.00000000000E+00 -0.00000000000E+00 -0.51337384159E+02  0.51337384159E+02  0.00000000000E+00 0.  1.
         23    2    1    2    0    0 -0.45423322246E+02 -0.89984921325E+02  0.36984269789E+03  0.39100062606E+03  0.77053904033E+02 0.  0.
          5    1    1    2  502    0  0.76354570807E+02  0.80079733920E+02  0.45212874851E+02  0.11962055977E+03  0.47000000000E+01 0.  1.
         -5    1    1    2    0  502 -0.30931248561E+02  0.99051874050E+01  0.72188941859E+02  0.79298097088E+02  0.47000000000E+01 0.  1.
        -11    1    3    3    0    0 -0.89650397849E+01 -0.63827364269E+02  0.11148931981E+03  0.12877955117E+03  0.00000000000E+00 0.  1.
         11    1    3    3    0    0 -0.36458282461E+02 -0.26157557057E+02  0.25835337808E+03  0.26222107489E+03  0.00000000000E+00 0. -1.
<mgrwt>
<rscale>  0 0.15139500E+03</rscale>
<asrwt>0</asrwt>
<pdfrwt beam="1">  1        1 0.82858750E-01 0.16057847E+03</pdfrwt>
<pdfrwt beam="2">  1       -1 0.78980595E-02 0.16057847E+03</pdfrwt>
<totfact> 0.35092869E+03</totfact>
</mgrwt>
</event>
<event>
 7    1  0.5107591E-006  0.1306616E+03  0.7546771E-02  0.1254569E+00
          2   -1    0    0  501    0  0.00000000000E+00  0.00000000000E+00  0.64549302680E+03  0.64549302680E+03  0.00000000000E+00 0.  1.
         -2   -1    0    0    0  501 -0.00000000000E+00 -0.00000000000E+00 -0.16602708093E+02  0.16602708093E+02  0.00000000000E+00 0. -1.
         23    2    1    2    0    0  0.23529916743E+02 -0.29921666412E+02  0.27857561956E+03  0.28820692151E+03  0.63323697706E+02 0.  0.
          5    1    1    2  502    0 -0.67900199191E+02  0.25459161995E+02  0.28857136327E+03  0.29758045581E+03  0.47000000000E+01 0.  1.
         -5    1    1    2    0  502  0.44370282448E+02  0.44625044175E+01  0.61743335874E+02  0.76308357570E+02  0.47000000000E+01 0.  1.
        -11    1    3    3    0    0  0.42474526598E+02 -0.70293910514E+01  0.18860739927E+03  0.19345864883E+03  0.00000000000E+00 0.  1.
         11    1    3    3    0    0 -0.18944609855E+02 -0.22892275361E+02  0.89968220288E+02  0.94748272678E+02  0.00000000000E+00 0. -1.
<mgrwt>
<rscale>  0 0.11330490E+03</rscale>
<asrwt>0</asrwt>
<pdfrwt beam="1">  1        2 0.99306600E-01 0.13066161E+03</pdfrwt>
<pdfrwt beam="2">  1       -2 0.25542633E-02 0.13066161E+03</pdfrwt>
<totfact> 0.23391203E+04</totfact>
</mgrwt>
</event>
<event>
 7    1  0.5107591E-006  0.1294670E+03  0.7546771E-02  0.1241805E+00
         -2   -1    0    0    0  501 -0.00000000000E+00  0.00000000000E+00  0.68699482068E+02  0.68699482068E+02  0.00000000000E+00 0.  1.
          2   -1    0    0  501    0  0.00000000000E+00 -0.00000000000E+00 -0.20066446612E+03  0.20066446612E+03  0.00000000000E+00 0. -1.
         23    2    1    2    0    0  0.19389363648E+02  0.27592897062E+02 -0.90399649869E+02  0.13338828516E+03  0.92103325301E+02 0.  0.
          5    1    1    2  502    0 -0.45590348572E+02  0.34818591216E+02 -0.23469521539E+01  0.57605662582E+02  0.47000000000E+01 0. -1.
         -5    1    1    2    0  502  0.26200984923E+02 -0.62411488278E+02 -0.39218382026E+02  0.78370000439E+02  0.47000000000E+01 0. -1.
        -11    1    3    3    0    0  0.54950946035E+02  0.14801549920E+02 -0.36677101339E+02  0.67704520623E+02  0.00000000000E+00 0.  1.
         11    1    3    3    0    0 -0.35561582387E+02  0.12791347143E+02 -0.53722548530E+02  0.65683764540E+02  0.00000000000E+00 0. -1.
<mgrwt>
<rscale>  0 0.12078642E+03</rscale>
<asrwt>0</asrwt>
<pdfrwt beam="2">  1        2 0.30871456E-01 0.12946700E+03</pdfrwt>
<pdfrwt beam="1">  1       -2 0.10569151E-01 0.12946700E+03</pdfrwt>
<totfact> 0.96970830E+03</totfact>
</mgrwt>
</event>
<event>
 7    1  0.5107591E-006  0.1735255E+03  0.7546771E-02  0.1180544E+00
         -3   -1    0    0    0  501 -0.00000000000E+00  0.00000000000E+00  0.14150592890E+03  0.14150592890E+03  0.00000000000E+00 0.  1.
          3   -1    0    0  501    0  0.00000000000E+00 -0.00000000000E+00 -0.18930167378E+03  0.18930167378E+03  0.00000000000E+00 0. -1.
         23    2    1    2    0    0  0.99975673406E+02 -0.67017149170E+02 -0.45863966143E+02  0.15727132127E+03  0.90245950315E+02 0.  0.
          5    1    1    2  502    0  0.40340848208E+01 -0.27040980489E+02 -0.16813484566E+02  0.32438738098E+02  0.47000000000E+01 0.  1.
         -5    1    1    2    0  502 -0.10400975823E+03  0.94058129658E+02  0.14881705824E+02  0.14109754331E+03  0.47000000000E+01 0.  1.
        -11    1    3    3    0    0  0.35106702846E+02 -0.61485506172E+02  0.99743264846E+01  0.71501295392E+02  0.00000000000E+00 0.  1.
         11    1    3    3    0    0  0.64868970560E+02 -0.55316429979E+01 -0.55838292627E+02  0.85770025879E+02  0.00000000000E+00 0. -1.
<mgrwt>
<rscale>  0 0.16744028E+03</rscale>
<asrwt>0</asrwt>
<pdfrwt beam="2">  1        3 0.29123334E-01 0.17352553E+03</pdfrwt>
<pdfrwt beam="1">  1       -3 0.21770143E-01 0.17352553E+03</pdfrwt>
<totfact> 0.52482667E+02</totfact>
</mgrwt>
</event>
<event>
 7    1  0.5107591E-006  0.1485068E+03  0.7546771E-02  0.1213198E+00
          1   -1    0    0  501    0  0.00000000000E+00  0.00000000000E+00  0.17728689039E+03  0.17728689039E+03  0.00000000000E+00 0. -1.
         -1   -1    0    0    0  501 -0.00000000000E+00 -0.00000000000E+00 -0.10122958380E+03  0.10122958380E+03  0.00000000000E+00 0.  1.
         23    2    1    2    0    0  0.31933170228E+02  0.73685273712E+02  0.17646398188E+02  0.11893544032E+03  0.85936003346E+02 0.  0.
          5    1    1    2  502    0  0.25905950644E+02 -0.78422202942E+02  0.89892264544E+01  0.83210915061E+02  0.47000000000E+01 0. -1.
         -5    1    1    2    0  502 -0.57839120871E+02  0.47369292293E+01  0.49421681949E+02  0.76370118818E+02  0.47000000000E+01 0. -1.
        -11    1    3    3    0    0  0.48550457598E+02  0.51615291139E+02 -0.18694861195E+02  0.73285626472E+02  0.00000000000E+00 0.  1.
         11    1    3    3    0    0 -0.16617287371E+02  0.22069982574E+02  0.36341259383E+02  0.45649813843E+02  0.00000000000E+00 0. -1.
<mgrwt>
<rscale>  0 0.14009712E+03</rscale>
<asrwt>0</asrwt>
<pdfrwt beam="1">  1        1 0.27274906E-01 0.14850681E+03</pdfrwt>
<pdfrwt beam="2">  1       -1 0.15573782E-01 0.14850681E+03</pdfrwt>
<totfact> 0.49765310E+03</totfact>
</mgrwt>
</event>
<event>
 7    1  0.5107591E-006  0.1357424E+03  0.7546771E-02  0.1230938E+00
         -1   -1    0    0    0  501 -0.00000000000E+00  0.00000000000E+00  0.95807445550E+02  0.95807445550E+02  0.00000000000E+00 0.  1.
          1   -1    0    0  501    0  0.00000000000E+00 -0.00000000000E+00 -0.16629264718E+03  0.16629264718E+03  0.00000000000E+00 0. -1.
         23    2    1    2    0    0 -0.45519445147E+02 -0.26987554416E+02 -0.68348822190E+02  0.12634085856E+03  0.92141755287E+02 0.  0.
          5    1    1    2  502    0  0.78587938746E+00  0.57272911335E+02 -0.39651015768E+02  0.69821895066E+02  0.47000000000E+01 0.  1.
         -5    1    1    2    0  502  0.44733565760E+02 -0.30285356919E+02  0.37514636327E+02  0.65937339104E+02  0.47000000000E+01 0.  1.
        -11    1    3    3    0    0 -0.37018091023E+01 -0.54303947755E+02 -0.23777756039E+02  0.59397001731E+02  0.00000000000E+00 0. -1.
         11    1    3    3    0    0 -0.41817636045E+02  0.27316393339E+02 -0.44571066151E+02  0.66943856830E+02  0.00000000000E+00 0.  1.
<mgrwt>
<rscale>  0 0.12768080E+03</rscale>
<asrwt>0</asrwt>
<pdfrwt beam="2">  1        1 0.25583484E-01 0.13574242E+03</pdfrwt>
<pdfrwt beam="1">  1       -1 0.14739607E-01 0.13574242E+03</pdfrwt>
<totfact> 0.58467205E+03</totfact>
</mgrwt>
</event>
<event>
 7    1  0.5107591E-006  0.1476618E+03  0.7546771E-02  0.1209566E+00
          1   -1    0    0  501    0  0.00000000000E+00  0.00000000000E+00  0.45055521442E+03  0.45055521442E+03  0.00000000000E+00 0. -1.
         -1   -1    0    0    0  501 -0.00000000000E+00 -0.00000000000E+00 -0.48775409585E+02  0.48775409585E+02  0.00000000000E+00 0.  1.
         23    2    1    2    0    0  0.54298511465E+02  0.56847860813E+02  0.27823753218E+03  0.30680348480E+03  0.10262673309E+03 0.  0.
          5    1    1    2  502    0 -0.35678054567E+02  0.33395535754E+02  0.71092121590E+02  0.86396557444E+02  0.47000000000E+01 0. -1.
         -5    1    1    2    0  502 -0.18620456898E+02 -0.90243396567E+02  0.52450151073E+02  0.10613058177E+03  0.47000000000E+01 0. -1.
        -11    1    3    3    0    0  0.20908629979E+02  0.76940853642E+02  0.12172902777E+03  0.14551639759E+03  0.00000000000E+00 0. -1.
         11    1    3    3    0    0  0.33389881486E+02 -0.20092992829E+02  0.15650850441E+03  0.16128708720E+03  0.00000000000E+00 0.  1.
<mgrwt>
<rscale>  0 0.14283364E+03</rscale>
<asrwt>0</asrwt>
<pdfrwt beam="1">  1        1 0.69316184E-01 0.14766180E+03</pdfrwt>
<pdfrwt beam="2">  1       -1 0.75039095E-02 0.14766180E+03</pdfrwt>
<totfact> 0.47692954E+03</totfact>
</mgrwt>
</event>
<event>
 7    1  0.5107591E-006  0.3747933E+03  0.7546771E-02  0.1053719E+00
         -1   -1    0    0    0  501 -0.00000000000E+00  0.00000000000E+00  0.75380982803E+03  0.75380982803E+03  0.00000000000E+00 0.  1.
          1   -1    0    0  501    0  0.00000000000E+00 -0.00000000000E+00 -0.18209891094E+03  0.18209891094E+03  0.00000000000E+00 0. -1.
         23    2    1    2    0    0  0.35241373106E+03 -0.25489126293E+02  0.29500189137E+03  0.47003547337E+03  0.95195046663E+02 0.  0.
          5    1    1    2  502    0 -0.14907179854E+03  0.56682776940E+02  0.70101410667E+02  0.17427459970E+03  0.47000000000E+01 0. -1.
         -5    1    1    2    0  502 -0.20334193252E+03 -0.31193650647E+02  0.20660761506E+03  0.29159866591E+03  0.47000000000E+01 0. -1.
        -11    1    3    3    0    0  0.21666302631E+03 -0.56553115224E+02  0.15338370743E+03  0.27141791304E+03  0.00000000000E+00 0. -1.
         11    1    3    3    0    0  0.13575070475E+03  0.31063988931E+02  0.14161818394E+03  0.19861756033E+03  0.00000000000E+00 0.  1.
<mgrwt>
<rscale>  0 0.37255840E+03</rscale>
<asrwt>0</asrwt>
<pdfrwt beam="2">  1        1 0.28015218E-01 0.37479330E+03</pdfrwt>
<pdfrwt beam="1">  1       -1 0.11597074E+00 0.37479330E+03</pdfrwt>
<totfact> 0.11797530E+02</totfact>
</mgrwt>
</event>
<event>
 7    1  0.5107591E-006  0.1303521E+03  0.7546771E-02  0.1239739E+00
          2   -1    0    0  501    0  0.00000000000E+00  0.00000000000E+00  0.20210341746E+03  0.20210341746E+03  0.00000000000E+00 0. -1.
         -2   -1    0    0    0  501 -0.00000000000E+00 -0.00000000000E+00 -0.66170516976E+02  0.66170516976E+02  0.00000000000E+00 0.  1.
         23    2    1    2    0    0  0.66146990536E+01  0.36404780735E+02  0.69633697009E+02  0.12203014781E+03  0.93131320790E+02 0.  0.
          5    1    1    2  502    0 -0.52853956577E+02 -0.80030021335E+01  0.73814447284E+02  0.91259253760E+02  0.47000000000E+01 0. -1.
         -5    1    1    2    0  502  0.46239257524E+02 -0.28401778602E+02 -0.75152438129E+01  0.54984532858E+02  0.47000000000E+01 0. -1.
        -11    1    3    3    0    0 -0.91528618663E+01  0.90658143235E+01 -0.21789435606E+02  0.25312909231E+02  0.00000000000E+00 0.  1.
         11    1    3    3    0    0  0.15767560920E+02  0.27338966412E+02  0.91423132615E+02  0.96717238582E+02  0.00000000000E+00 0. -1.
<mgrwt>
<rscale>  0 0.12205869E+03</rscale>
<asrwt>0</asrwt>
<pdfrwt beam="1">  1        2 0.31092833E-01 0.13035206E+03</pdfrwt>
<pdfrwt beam="2">  1       -2 0.10180080E-01 0.13035206E+03</pdfrwt>
<totfact> 0.10213530E+04</totfact>
</mgrwt>
</event>
<event>
 7    1  0.5107591E-006  0.1407178E+03  0.7546771E-02  0.1224144E+00
          1   -1    0    0  501    0  0.00000000000E+00  0.00000000000E+00  0.22326465916E+03  0.22326465916E+03  0.00000000000E+00 0. -1.
         -1   -1    0    0    0  501 -0.00000000000E+00 -0.00000000000E+00 -0.72732207583E+02  0.72732207583E+02  0.00000000000E+00 0.  1.
         23    2    1    2    0    0  0.57981439671E+02  0.28531692514E+02  0.93276766926E+02  0.14407680631E+03  0.88778747700E+02 0.  0.
          5    1    1    2  502    0 -0.59723993986E+02  0.36905151962E+02  0.49067661650E+02  0.85782697082E+02  0.47000000000E+01 0.  1.
         -5    1    1    2    0  502  0.17425543145E+01 -0.65436844476E+02  0.81880229970E+01  0.66137363351E+02  0.47000000000E+01 0.  1.
        -11    1    3    3    0    0  0.26301031000E+02 -0.10047458655E+02 -0.95849193228E+01  0.29741659932E+02  0.00000000000E+00 0.  1.
         11    1    3    3    0    0  0.31680408671E+02  0.38579151169E+02  0.10286168625E+03  0.11433514637E+03  0.00000000000E+00 0. -1.
<mgrwt>
<rscale>  0 0.13225716E+03</rscale>
<asrwt>0</asrwt>
<pdfrwt beam="1">  1        1 0.34348409E-01 0.14071777E+03</pdfrwt>
<pdfrwt beam="2">  1       -1 0.11189571E-01 0.14071777E+03</pdfrwt>
<totfact> 0.62245605E+03</totfact>
</mgrwt>
</event>
<event>
 7    1  0.5107591E-006  0.1528378E+03  0.7546771E-02  0.1205685E+00
          3   -1    0    0  501    0  0.00000000000E+00  0.00000000000E+00  0.13650467448E+03  0.13650467448E+03  0.00000000000E+00 0. -1.
         -3   -1    0    0    0  501 -0.00000000000E+00 -0.00000000000E+00 -0.14312406556E+03  0.14312406556E+03  0.00000000000E+00 0.  1.
         23    2    1    2    0    0  0.58034052388E+02 -0.66066502981E+02 -0.45112724877E+01  0.12677638865E+03  0.91209468182E+02 0.  0.
          5    1    1    2  502    0  0.37371300390E+02  0.14152015544E+02 -0.15899583037E+02  0.43264077219E+02  0.47000000000E+01 0.  1.
         -5    1    1    2    0  502 -0.95405352778E+02  0.51914487437E+02  0.13791464440E+02  0.10958827417E+03  0.47000000000E+01 0.  1.
        -11    1    3    3    0    0  0.81824280657E+02 -0.56197961819E+02  0.48224137608E+01  0.99381484654E+02  0.00000000000E+00 0. -1.
         11    1    3    3    0    0 -0.23790228269E+02 -0.98685411620E+01 -0.93336862485E+01  0.27394903992E+02  0.00000000000E+00 0.  1.
<mgrwt>
<rscale>  0 0.14583572E+03</rscale>
<asrwt>0</asrwt>
<pdfrwt beam="1">  1        3 0.21000719E-01 0.15283781E+03</pdfrwt>
<pdfrwt beam="2">  1       -3 0.22019087E-01 0.15283781E+03</pdfrwt>
<totfact> 0.91374508E+02</totfact>
</mgrwt>
</event>
<event>
 7    1  0.5107591E-006  0.1418933E+03  0.7546771E-02  0.1221146E+00
         -2   -1    0    0    0  501 -0.00000000000E+00  0.00000000000E+00  0.12342289261E+03  0.12342289261E+03  0.00000000000E+00 0.  1.
          2   -1    0    0  501    0  0.00000000000E+00 -0.00000000000E+00 -0.14583423099E+03  0.14583423099E+03  0.00000000000E+00 0. -1.
         23    2    1    2    0    0 -0.68361599723E+01 -0.66799189702E+02 -0.50332312254E+02  0.12464287118E+03  0.92160939946E+02 0.  0.
          5    1    1    2  502    0 -0.16324843890E+02 -0.28710615602E+02  0.31881155516E+02  0.46144317671E+02  0.47000000000E+01 0.  1.
         -5    1    1    2    0  502  0.23161003862E+02  0.95509805303E+02 -0.39601816404E+01  0.98469934740E+02  0.47000000000E+01 0.  1.
        -11    1    3    3    0    0  0.40435922857E+02 -0.24232472444E+02 -0.69622826403E+01  0.47652386694E+02  0.00000000000E+00 0.  1.
         11    1    3    3    0    0 -0.47272082829E+02 -0.42566717258E+02 -0.43370029614E+02  0.76990484488E+02  0.00000000000E+00 0. -1.
<mgrwt>
<rscale>  0 0.13434600E+03</rscale>
<asrwt>0</asrwt>
<pdfrwt beam="2">  1        2 0.22436036E-01 0.14189327E+03</pdfrwt>
<pdfrwt beam="1">  1       -2 0.18988137E-01 0.14189327E+03</pdfrwt>
<totfact> 0.53450157E+03</totfact>
</mgrwt>
</event>
<event>
 7    1  0.5107591E-006  0.1877110E+03  0.7546771E-02  0.1165047E+00
          1   -1    0    0  501    0  0.00000000000E+00  0.00000000000E+00  0.45483478043E+02  0.45483478043E+02  0.00000000000E+00 0. -1.
         -1   -1    0    0    0  501 -0.00000000000E+00 -0.00000000000E+00 -0.76643792522E+03  0.76643792522E+03  0.00000000000E+00 0.  1.
         23    2    1    2    0    0  0.13872823757E+03  0.19112374567E+02 -0.22378060156E+03  0.28049194830E+03  0.94800678612E+02 0.  0.
          5    1    1    2  502    0 -0.52121314710E+02 -0.69496018454E+02 -0.21353249133E+03  0.23057437603E+03  0.47000000000E+01 0. -1.
         -5    1    1    2    0  502 -0.86606922861E+02  0.50383643887E+02 -0.28364135429E+03  0.30085507894E+03  0.47000000000E+01 0. -1.
        -11    1    3    3    0    0 -0.11697642777E+02 -0.10050589033E+02 -0.26954595214E+02  0.31054780463E+02  0.00000000000E+00 0. -1.
         11    1    3    3    0    0  0.15042588035E+03  0.29162963600E+02 -0.19682600634E+03  0.24943716783E+03  0.00000000000E+00 0.  1.
<mgrwt>
<rscale>  0 0.18287707E+03</rscale>
<asrwt>0</asrwt>
<pdfrwt beam="1">  1        1 0.69974587E-02 0.18771104E+03</pdfrwt>
<pdfrwt beam="2">  1       -1 0.11791352E+00 0.18771104E+03</pdfrwt>
<totfact> 0.71725824E+02</totfact>
</mgrwt>
</event>
<event>
 7    1  0.5107591E-006  0.1459596E+03  0.7546771E-02  0.1217121E+00
         -3   -1    0    0    0  501 -0.00000000000E+00  0.00000000000E+00  0.15917169164E+03  0.15917169164E+03  0.00000000000E+00 0.  1.
          3   -1    0    0  501    0  0.00000000000E+00 -0.00000000000E+00 -0.11109260460E+03  0.11109260460E+03  0.00000000000E+00 0. -1.
         23    2    1    2    0    0 -0.73935621868E+02 -0.14549975108E+02 -0.70720310582E+01  0.11423271535E+03  0.85562384706E+02 0.  0.
          5    1    1    2  502    0  0.36386612681E+02  0.56764933382E+02  0.70123888400E+02  0.97394522272E+02  0.47000000000E+01 0. -1.
         -5    1    1    2    0  502  0.37549009187E+02 -0.42214958274E+02 -0.14972770294E+02  0.58637058617E+02  0.47000000000E+01 0. -1.
        -11    1    3    3    0    0 -0.38705974579E+02  0.13956920359E+01  0.38400393557E+02  0.54540724690E+02  0.00000000000E+00 0.  1.
         11    1    3    3    0    0 -0.35229647289E+02 -0.15945667144E+02 -0.45472424615E+02  0.59691990662E+02  0.00000000000E+00 0. -1.
<mgrwt>
<rscale>  0 0.13721882E+03</rscale>
<asrwt>0</asrwt>
<pdfrwt beam="2">  1        3 0.17091170E-01 0.14595961E+03</pdfrwt>
<pdfrwt beam="1">  1       -3 0.24487953E-01 0.14595961E+03</pdfrwt>
<totfact> 0.10761822E+03</totfact>
</mgrwt>
</event>
<event>
 7    1  0.5107591E-006  0.2170156E+03  0.7546771E-02  0.1139810E+00
         -1   -1    0    0    0  501 -0.00000000000E+00  0.00000000000E+00  0.55655180846E+03  0.55655180846E+03  0.00000000000E+00 0.  1.
          1   -1    0    0  501    0  0.00000000000E+00 -0.00000000000E+00 -0.78418628526E+02  0.78418628526E+02  0.00000000000E+00 0. -1.
         23    2    1    2    0    0  0.14689539043E+03 -0.99459804197E+02  0.19531609418E+03  0.27848582921E+03  0.89081266529E+02 0.  0.
          5    1    1    2  502    0 -0.18825579616E+02 -0.18743761407E+02  0.10117917150E+03  0.10471411455E+03  0.47000000000E+01 0. -1.
         -5    1    1    2    0  502 -0.12806981082E+03  0.11820356560E+03  0.18163791425E+03  0.25177049322E+03  0.47000000000E+01 0. -1.
        -11    1    3    3    0    0  0.39658311759E+02 -0.77990051932E+02  0.69180928068E+02  0.11154026493E+03  0.00000000000E+00 0. -1.
         11    1    3    3    0    0  0.10723707867E+03 -0.21469752265E+02  0.12613516611E+03  0.16694556428E+03  0.00000000000E+00 0.  1.
<mgrwt>
<rscale>  0 0.21223328E+03</rscale>
<asrwt>0</asrwt>
<pdfrwt beam="2">  1        1 0.12064405E-01 0.21701560E+03</pdfrwt>
<pdfrwt beam="1">  1       -1 0.85623353E-01 0.21701560E+03</pdfrwt>
<totfact> 0.70339864E+02</totfact>
</mgrwt>
</event>
<event>
 7    1  0.5107591E-006  0.1591358E+03  0.7546771E-02  0.1198089E+00
         -2   -1    0    0    0  501 -0.00000000000E+00  0.00000000000E+00  0.33406564992E+02  0.33406564992E+02  0.00000000000E+00 0.  1.
          2   -1    0    0  501    0  0.00000000000E+00 -0.00000000000E+00 -0.63714606865E+03  0.63714606865E+03  0.00000000000E+00 0. -1.
         23    2    1    2    0    0  0.80258282721E+02 -0.57085598972E+02 -0.25790048849E+03  0.28985743386E+03  0.88343151663E+02 0.  0.
          5    1    1    2  502    0 -0.90253273578E+02  0.73918032360E+02 -0.18610063060E+03  0.21969311234E+03  0.47000000000E+01 0. -1.
         -5    1    1    2    0  502  0.99949908566E+01 -0.16832433388E+02 -0.15973838457E+03  0.16100208744E+03  0.47000000000E+01 0. -1.
        -11    1    3    3    0    0  0.80051752401E+02 -0.45667442964E+02 -0.26198982297E+03  0.27772732265E+03  0.00000000000E+00 0. -1.
         11    1    3    3    0    0  0.20653032002E+00 -0.11418156008E+02  0.40893344796E+01  0.12130111206E+02  0.00000000000E+00 0.  1.
<mgrwt>
<rscale>  0 0.15195682E+03</rscale>
<asrwt>0</asrwt>
<pdfrwt beam="2">  1        2 0.98022469E-01 0.15913582E+03</pdfrwt>
<pdfrwt beam="1">  1       -2 0.51394717E-02 0.15913582E+03</pdfrwt>
<totfact> 0.85392922E+03</totfact>
</mgrwt>
</event>
<event>
 7    1  0.5107591E-006  0.2571301E+03  0.7546771E-02  0.1111134E+00
         -2   -1    0    0    0  501 -0.00000000000E+00  0.00000000000E+00  0.45681706133E+02  0.45681706133E+02  0.00000000000E+00 0.  1.
          2   -1    0    0  501    0  0.00000000000E+00 -0.00000000000E+00 -0.16705427037E+04  0.16705427037E+04  0.00000000000E+00 0. -1.
         23    2    1    2    0    0 -0.18866424484E+03 -0.12207191327E+03 -0.11585892827E+04  0.11837535656E+04  0.91910983376E+02 0.  0.
          5    1    1    2  502    0  0.56361353734E+02 -0.16585896048E+02 -0.64916682312E+02  0.87681011541E+02  0.47000000000E+01 0.  1.
         -5    1    1    2    0  502  0.13230289111E+03  0.13865780932E+03 -0.40135503253E+03  0.44478983264E+03  0.47000000000E+01 0.  1.
        -11    1    3    3    0    0 -0.12333116331E+03 -0.29829835774E+02 -0.52152643717E+03  0.53674036518E+03  0.00000000000E+00 0.  1.
         11    1    3    3    0    0 -0.65333081530E+02 -0.92242077499E+02 -0.63706284553E+03  0.64701320045E+03  0.00000000000E+00 0. -1.
<mgrwt>
<rscale>  0 0.25346562E+03</rscale>
<asrwt>0</asrwt>
<pdfrwt beam="2">  1        2 0.25700658E+00 0.25713010E+03</pdfrwt>
<pdfrwt beam="1">  1       -2 0.70279546E-02 0.25713010E+03</pdfrwt>
<totfact> 0.12844705E+03</totfact>
</mgrwt>
</event>
<event>
 7    1  0.5107591E-006  0.1422884E+03  0.7546771E-02  0.1220145E+00
          2   -1    0    0  501    0  0.00000000000E+00  0.00000000000E+00  0.21057804287E+03  0.21057804287E+03  0.00000000000E+00 0. -1.
         -2   -1    0    0    0  501 -0.00000000000E+00 -0.00000000000E+00 -0.78898349303E+02  0.78898349303E+02  0.00000000000E+00 0.  1.
         23    2    1    2    0    0  0.20970722867E+02 -0.64665332327E+02  0.57052303922E+02  0.12880516292E+03  0.93351101707E+02 0.  0.
          5    1    1    2  502    0  0.16986680243E+01  0.92807092342E+02  0.20103834256E+02  0.95090988079E+02  0.47000000000E+01 0. -1.
         -5    1    1    2    0  502 -0.22669390891E+02 -0.28141760015E+02  0.54523555389E+02  0.65580241174E+02  0.47000000000E+01 0. -1.
        -11    1    3    3    0    0  0.44474126245E+02 -0.36015886382E+01  0.42824262521E+02  0.61845265029E+02  0.00000000000E+00 0. -1.
         11    1    3    3    0    0 -0.23503403379E+02 -0.61063743689E+02  0.14228041401E+02  0.66959897893E+02  0.00000000000E+00 0.  1.
<mgrwt>
<rscale>  0 0.13505311E+03</rscale>
<asrwt>0</asrwt>
<pdfrwt beam="1">  1        2 0.32396622E-01 0.14228843E+03</pdfrwt>
<pdfrwt beam="2">  1       -2 0.12138208E-01 0.14228843E+03</pdfrwt>
<totfact> 0.74399881E+03</totfact>
</mgrwt>
</event>
<event>
 7    1  0.5107591E-006  0.1487927E+03  0.7546771E-02  0.1221475E+00
          2   -1    0    0  501    0  0.00000000000E+00  0.00000000000E+00  0.35703470254E+03  0.35703470254E+03  0.00000000000E+00 0. -1.
         -2   -1    0    0    0  501 -0.00000000000E+00 -0.00000000000E+00 -0.47369248684E+02  0.47369248684E+02  0.00000000000E+00 0.  1.
         23    2    1    2    0    0  0.32749014729E+02  0.12971386703E+02  0.18837368762E+03  0.21243793851E+03  0.91675932985E+02 0.  0.
          5    1    1    2  502    0 -0.46409524906E+02 -0.56155834290E+02  0.12658030625E+03  0.14612318659E+03  0.47000000000E+01 0. -1.
         -5    1    1    2    0  502  0.13660510177E+02  0.43184447588E+02 -0.52885400262E+01  0.45842826128E+02  0.47000000000E+01 0.  1.
        -11    1    3    3    0    0  0.37499986060E+02  0.35753271930E+02  0.18062569103E+03  0.18791004674E+03  0.00000000000E+00 0.  1.
         11    1    3    3    0    0 -0.47509713309E+01 -0.22781885227E+02  0.77479965987E+01  0.24527891764E+02  0.00000000000E+00 0. -1.
<mgrwt>
<rscale>  0 0.13411434E+03</rscale>
<asrwt>0</asrwt>
<pdfrwt beam="1">  1        2 0.54928414E-01 0.14879267E+03</pdfrwt>
<pdfrwt beam="2">  1       -2 0.72875769E-02 0.14879267E+03</pdfrwt>
<totfact> 0.94529181E+03</totfact>
</mgrwt>
</event>
<event>
 7    1  0.5107591E-006  0.1311763E+03  0.7546771E-02  0.1238974E+00
         -1   -1    0    0    0  501 -0.00000000000E+00  0.00000000000E+00  0.56946767445E+03  0.56946767445E+03  0.00000000000E+00 0.  1.
          1   -1    0    0  501    0  0.00000000000E+00 -0.00000000000E+00 -0.26573714112E+02  0.26573714112E+02  0.00000000000E+00 0. -1.
         23    2    1    2    0    0 -0.36832639410E+02  0.14998207710E+02  0.13745405668E+03  0.16990907611E+03  0.91618158062E+02 0.  0.
          5    1    1    2  502    0  0.36121841224E+02  0.48235133037E+02  0.26855339157E+03  0.27527155610E+03  0.47000000000E+01 0. -1.
         -5    1    1    2    0  502  0.71079818683E+00 -0.63233340747E+02  0.13688651208E+03  0.15086075634E+03  0.47000000000E+01 0. -1.
        -11    1    3    3    0    0  0.10602277042E+02  0.25264268718E+02  0.11161000319E+03  0.11492381983E+03  0.00000000000E+00 0.  1.
         11    1    3    3    0    0 -0.47434916452E+02 -0.10266061008E+02  0.25844053490E+02  0.54985256281E+02  0.00000000000E+00 0. -1.
<mgrwt>
<rscale>  0 0.12253449E+03</rscale>
<asrwt>0</asrwt>
<pdfrwt beam="2">  1        1 0.40882641E-02 0.13117634E+03</pdfrwt>
<pdfrwt beam="1">  1       -1 0.87610402E-01 0.13117634E+03</pdfrwt>
<totfact> 0.28581798E+03</totfact>
</mgrwt>
</event>
<event>
 7    1  0.5107591E-006  0.1341881E+03  0.7546771E-02  0.1233869E+00
         -1   -1    0    0    0  501 -0.00000000000E+00  0.00000000000E+00  0.96684226349E+02  0.96684226349E+02  0.00000000000E+00 0.  1.
          1   -1    0    0  501    0  0.00000000000E+00 -0.00000000000E+00 -0.14621783282E+03  0.14621783282E+03  0.00000000000E+00 0. -1.
         23    2    1    2    0    0  0.44494774756E+02 -0.19912345866E+02 -0.24094543142E+02  0.10632390163E+03  0.91367053962E+02 0.  0.
          5    1    1    2  502    0 -0.12061898018E+02 -0.21810727253E+02  0.43036505194E+02  0.49954258942E+02  0.47000000000E+01 0. -1.
         -5    1    1    2    0  502 -0.32432876738E+02  0.41723073120E+02 -0.68475568523E+02  0.86623898599E+02  0.47000000000E+01 0. -1.
        -11    1    3    3    0    0 -0.22633555486E+02 -0.19360749728E+02 -0.25454264579E+02  0.39179536103E+02  0.00000000000E+00 0. -1.
         11    1    3    3    0    0  0.67128330242E+02 -0.55159613779E+00  0.13597214372E+01  0.67144365526E+02  0.00000000000E+00 0.  1.
<mgrwt>
<rscale>  0 0.12577121E+03</rscale>
<asrwt>0</asrwt>
<pdfrwt beam="2">  1        1 0.22495051E-01 0.13418810E+03</pdfrwt>
<pdfrwt beam="1">  1       -1 0.14874496E-01 0.13418810E+03</pdfrwt>
<totfact> 0.67711229E+03</totfact>
</mgrwt>
</event>
<event>
 7    1  0.5107591E-006  0.5720946E+03  0.7546771E-02  0.9965054E-01
         -3   -1    0    0    0  501 -0.00000000000E+00  0.00000000000E+00  0.31216881092E+03  0.31216881092E+03  0.00000000000E+00 0.  1.
          3   -1    0    0  501    0  0.00000000000E+00 -0.00000000000E+00 -0.26211157923E+03  0.26211157923E+03  0.00000000000E+00 0. -1.
         23    2    1    2    0    0 -0.26455732633E+02  0.87049671963E+02 -0.94064835997E+02  0.15967935531E+03  0.91497278440E+02 0.  0.
          5    1    1    2  502    0 -0.69996346779E+02  0.86513286365E+02 -0.62728775048E+02  0.12783202454E+03  0.47000000000E+01 0. -1.
         -5    1    1    2    0  502  0.96452079412E+02 -0.17356295833E+03  0.20685084273E+03  0.28676901030E+03  0.47000000000E+01 0.  1.
        -11    1    3    3    0    0 -0.55909691512E+02  0.81176212019E+02 -0.77455297655E+02  0.12535866200E+03  0.00000000000E+00 0. -1.
         11    1    3    3    0    0  0.29453958879E+02  0.58734599436E+01 -0.16609538342E+02  0.34320693310E+02  0.00000000000E+00 0.  1.
<mgrwt>
<rscale>  0 0.57209461E+03</rscale>
<asrwt>0</asrwt>
<pdfrwt beam="2">  1        3 0.40324858E-01 0.57209461E+03</pdfrwt>
<pdfrwt beam="1">  1       -3 0.48025971E-01 0.57209461E+03</pdfrwt>
<totfact> 0.69076426E+01</totfact>
</mgrwt>
</event>
<event>
 7    1  0.5107591E-006  0.1483836E+03  0.7546771E-02  0.1211543E+00
          1   -1    0    0  501    0  0.00000000000E+00  0.00000000000E+00  0.10154106966E+04  0.10154106966E+04  0.00000000000E+00 0. -1.
         -1   -1    0    0    0  501 -0.00000000000E+00 -0.00000000000E+00 -0.18019894927E+02  0.18019894927E+02  0.00000000000E+00 0.  1.
         23    2    1    2    0    0  0.70870879893E+02  0.37016471027E+02  0.44462800395E+03  0.46109816039E+03  0.92328494393E+02 0.  0.
          5    1    1    2  502    0  0.36111563987E+02 -0.64633585510E+01  0.13218515958E+03  0.13726189009E+03  0.47000000000E+01 0.  1.
         -5    1    1    2    0  502 -0.10698244388E+03 -0.30553112476E+02  0.42057763813E+03  0.43507054103E+03  0.47000000000E+01 0.  1.
        -11    1    3    3    0    0  0.85053942410E+01  0.45796290230E+02  0.94559500981E+02  0.10540939785E+03  0.00000000000E+00 0.  1.
         11    1    3    3    0    0  0.62365485652E+02 -0.87798192029E+01  0.35006850297E+03  0.35568876254E+03  0.00000000000E+00 0. -1.
<mgrwt>
<rscale>  0 0.14133552E+03</rscale>
<asrwt>0</asrwt>
<pdfrwt beam="1">  1        1 0.15621699E+00 0.14838363E+03</pdfrwt>
<pdfrwt beam="2">  1       -1 0.27722923E-02 0.14838363E+03</pdfrwt>
<totfact> 0.64433987E+03</totfact>
</mgrwt>
</event>
<event>
 7    1  0.5107591E-006  0.1311037E+03  0.7546771E-02  0.1239687E+00
         -2   -1    0    0    0  501 -0.00000000000E+00  0.00000000000E+00  0.19851319422E+03  0.19851319422E+03  0.00000000000E+00 0.  1.
          2   -1    0    0  501    0  0.00000000000E+00 -0.00000000000E+00 -0.68390323836E+02  0.68390323836E+02  0.00000000000E+00 0. -1.
         23    2    1    2    0    0  0.19322272614E+02  0.34503208186E+02  0.33862890437E+02  0.10425618177E+03  0.90326266911E+02 0.  0.
          5    1    1    2  502    0  0.15422019580E+02  0.36860715035E+02  0.66551174983E+02  0.77766958874E+02  0.47000000000E+01 0. -1.
         -5    1    1    2    0  502 -0.34744292194E+02 -0.71363923221E+02  0.29708804964E+02  0.84880377414E+02  0.47000000000E+01 0. -1.
        -11    1    3    3    0    0  0.71218760820E+00  0.24430363678E+02  0.63384679102E+02  0.67933551545E+02  0.00000000000E+00 0.  1.
         11    1    3    3    0    0  0.18610085006E+02  0.10072844508E+02 -0.29521788665E+02  0.36322630224E+02  0.00000000000E+00 0. -1.
<mgrwt>
<rscale>  0 0.12209117E+03</rscale>
<asrwt>0</asrwt>
<pdfrwt beam="2">  1        2 0.10521588E-01 0.13110367E+03</pdfrwt>
<pdfrwt beam="1">  1       -2 0.30540491E-01 0.13110367E+03</pdfrwt>
<totfact> 0.56332837E+03</totfact>
</mgrwt>
</event>
<event>
 7    1  0.5107591E-006  0.1390687E+03  0.7546771E-02  0.1225535E+00
         -2   -1    0    0    0  501 -0.00000000000E+00  0.00000000000E+00  0.12516796618E+04  0.12516796618E+04  0.00000000000E+00 0. -1.
          2   -1    0    0  501    0  0.00000000000E+00 -0.00000000000E+00 -0.12528325008E+02  0.12528325008E+02  0.00000000000E+00 0.  1.
         23    2    1    2    0    0  0.25734725975E+02 -0.55250835811E+02  0.49687192894E+03  0.50901343462E+03  0.92184770310E+02 0.  0.
          5    1    1    2  502    0 -0.51299577413E+02 -0.27066758238E+01  0.13365534919E+03  0.14326484253E+03  0.47000000000E+01 0. -1.
         -5    1    1    2    0  502  0.25564851437E+02  0.57957511634E+02  0.60862405865E+03  0.61192970965E+03  0.47000000000E+01 0. -1.
        -11    1    3    3    0    0 -0.30764447751E+01  0.24168959243E+02  0.78398989788E+02  0.82097531650E+02  0.00000000000E+00 0.  1.
         11    1    3    3    0    0  0.28811170750E+02 -0.79419795054E+02  0.41847293915E+03  0.42691590297E+03  0.00000000000E+00 0. -1.
<mgrwt>
<rscale>  0 0.13130298E+03</rscale>
<asrwt>0</asrwt>
<pdfrwt beam="2">  1        2 0.19274356E-02 0.13906866E+03</pdfrwt>
<pdfrwt beam="1">  1       -2 0.19256600E+00 0.13906866E+03</pdfrwt>
<totfact> 0.90025585E+02</totfact>
</mgrwt>
</event>
<event>
 7    1  0.5107591E-006  0.1271968E+03  0.7546771E-02  0.1246884E+00
          2   -1    0    0  501    0  0.00000000000E+00  0.00000000000E+00  0.10675748876E+03  0.10675748876E+03  0.00000000000E+00 0. -1.
         -2   -1    0    0    0  501 -0.00000000000E+00 -0.00000000000E+00 -0.11582292731E+03  0.11582292731E+03  0.00000000000E+00 0.  1.
         23    2    1    2    0    0  0.49555714609E+01 -0.22981456169E+02  0.10259679668E+02  0.93923916809E+02  0.90353395651E+02 0.  0.
          5    1    1    2  502    0 -0.55753988700E+02  0.44265543676E+02 -0.16938543975E+02  0.73327688392E+02  0.47000000000E+01 0.  1.
         -5    1    1    2    0  502  0.50798417240E+02 -0.21284087507E+02 -0.23865742395E+01  0.55328810864E+02  0.47000000000E+01 0.  1.
        -11    1    3    3    0    0  0.17759007740E+01  0.13052497888E+02  0.43099059460E+02  0.45067177092E+02  0.00000000000E+00 0. -1.
         11    1    3    3    0    0  0.31796706869E+01 -0.36033954057E+02 -0.32839379792E+02  0.48856739717E+02  0.00000000000E+00 0.  1.
<mgrwt>
<rscale>  0 0.11773338E+03</rscale>
<asrwt>0</asrwt>
<pdfrwt beam="1">  1        2 0.16424229E-01 0.12719683E+03</pdfrwt>
<pdfrwt beam="2">  1       -2 0.17818912E-01 0.12719683E+03</pdfrwt>
<totfact> 0.84069607E+03</totfact>
</mgrwt>
</event>
<event>
 7    1  0.5107591E-006  0.1414377E+03  0.7546771E-02  0.1231181E+00
          1   -1    0    0  501    0  0.00000000000E+00  0.00000000000E+00  0.16085799374E+03  0.16085799374E+03  0.00000000000E+00 0. -1.
         -1   -1    0    0    0  501 -0.00000000000E+00 -0.00000000000E+00 -0.17223397771E+03  0.17223397771E+03  0.00000000000E+00 0.  1.
         23    2    1    2    0    0 -0.13621463782E+02  0.31223017603E+01  0.11167157528E+03  0.14562107489E+03  0.92410300743E+02 0.  0.
          5    1    1    2  502    0 -0.22256127055E+02  0.61860362074E+02 -0.45962580588E+02  0.80353521402E+02  0.47000000000E+01 0. -1.
         -5    1    1    2    0  502  0.35877590838E+02 -0.64982663834E+02 -0.77084978663E+02  0.10711737515E+03  0.47000000000E+01 0.  1.
        -11    1    3    3    0    0  0.37254501859E+02 -0.41269873450E+01  0.70218503355E+02  0.79596282242E+02  0.00000000000E+00 0.  1.
         11    1    3    3    0    0 -0.50875965642E+02  0.72492891054E+01  0.41453071925E+02  0.66024792651E+02  0.00000000000E+00 0. -1.
<mgrwt>
<rscale>  0 0.12752096E+03</rscale>
<asrwt>0</asrwt>
<pdfrwt beam="1">  1        1 0.24747383E-01 0.14143774E+03</pdfrwt>
<pdfrwt beam="2">  1       -1 0.26497535E-01 0.14143774E+03</pdfrwt>
<totfact> 0.23811473E+03</totfact>
</mgrwt>
</event>
<event>
 7    1  0.5107591E-006  0.1185890E+03  0.7546771E-02  0.1255548E+00
         -2   -1    0    0    0  501 -0.00000000000E+00  0.00000000000E+00  0.28881099229E+03  0.28881099229E+03  0.00000000000E+00 0.  1.
          2   -1    0    0  501    0  0.00000000000E+00 -0.00000000000E+00 -0.42407339638E+02  0.42407339638E+02  0.00000000000E+00 0. -1.
         23    2    1    2    0    0  0.15763809421E+02 -0.32660768350E+02  0.73905065597E+02  0.12188818722E+03  0.89886305883E+02 0.  0.
          5    1    1    2  502    0 -0.58042438054E+02  0.44974263064E+02  0.96219633040E+02  0.12112768773E+03  0.47000000000E+01 0. -1.
         -5    1    1    2    0  502  0.42278628632E+02 -0.12313494713E+02  0.76278954011E+02  0.88202456973E+02  0.47000000000E+01 0.  1.
        -11    1    3    3    0    0 -0.30112902741E+02  0.11410371653E+01  0.20837428549E+01  0.30206470525E+02  0.00000000000E+00 0. -1.
         11    1    3    3    0    0  0.45876712163E+02 -0.33801805516E+02  0.71821322742E+02  0.91681716691E+02  0.00000000000E+00 0.  1.
<mgrwt>
<rscale>  0 0.11275714E+03</rscale>
<asrwt>0</asrwt>
<pdfrwt beam="2">  1        2 0.65242063E-02 0.11858898E+03</pdfrwt>
<pdfrwt beam="1">  1       -2 0.44432459E-01 0.11858898E+03</pdfrwt>
<totfact> 0.50488317E+03</totfact>
</mgrwt>
</event>
<event>
 7    1  0.5107591E-006  0.1207252E+03  0.7546771E-02  0.1254940E+00
          3   -1    0    0  501    0  0.00000000000E+00  0.00000000000E+00  0.89531371571E+02  0.89531371571E+02  0.00000000000E+00 0. -1.
         -3   -1    0    0    0  501 -0.00000000000E+00 -0.00000000000E+00 -0.60814003051E+03  0.60814003051E+03  0.00000000000E+00 0.  1.
         23    2    1    2    0    0 -0.20400179749E+02 -0.16623210697E+02  0.57315221494E+02  0.10923034291E+03  0.89183713367E+02 0.  0.
          5    1    1    2  502    0  0.62254652060E+02  0.21960035928E+02 -0.21305982822E+03  0.22310191680E+03  0.47000000000E+01 0. -1.
         -5    1    1    2    0  502 -0.41854472311E+02 -0.53368252313E+01 -0.36286405221E+03  0.36533914236E+03  0.47000000000E+01 0.  1.
        -11    1    3    3    0    0 -0.40732817544E+02 -0.29523008541E+02  0.66563939838E+02  0.83435774972E+02  0.00000000000E+00 0.  1.
         11    1    3    3    0    0  0.20332637795E+02  0.12899797844E+02 -0.92487183445E+01  0.25794567939E+02  0.00000000000E+00 0. -1.
<mgrwt>
<rscale>  0 0.11309716E+03</rscale>
<asrwt>0</asrwt>
<pdfrwt beam="1">  1        3 0.13774057E-01 0.12072516E+03</pdfrwt>
<pdfrwt beam="2">  1       -3 0.93560004E-01 0.12072516E+03</pdfrwt>
<totfact> 0.10491475E+02</totfact>
</mgrwt>
</event>
<event>
 7    1  0.5107591E-006  0.1198874E+03  0.7546771E-02  0.1252759E+00
         -2   -1    0    0    0  501 -0.00000000000E+00  0.00000000000E+00  0.10999710158E+04  0.10999710158E+04  0.00000000000E+00 0.  1.
          2   -1    0    0  501    0  0.00000000000E+00 -0.00000000000E+00 -0.13338251345E+02  0.13338251345E+02  0.00000000000E+00 0. -1.
         23    2    1    2    0    0  0.16523585821E+02  0.17655859001E+02  0.26433408526E+03  0.28231702836E+03  0.96154238741E+02 0.  0.
          5    1    1    2  502    0  0.31683320424E+02  0.14113170684E+02  0.92537742075E+02  0.98936030284E+02  0.47000000000E+01 0. -1.
         -5    1    1    2    0  502 -0.48206906245E+02 -0.31769029684E+02  0.72976093713E+03  0.73205620851E+03  0.47000000000E+01 0.  1.
        -11    1    3    3    0    0  0.22981097511E+02 -0.36897046354E+02  0.13416558131E+03  0.14103164922E+03  0.00000000000E+00 0.  1.
         11    1    3    3    0    0 -0.64575116907E+01  0.54552905355E+02  0.13016850395E+03  0.14128537915E+03  0.00000000000E+00 0. -1.
<mgrwt>
<rscale>  0 0.11432770E+03</rscale>
<asrwt>0</asrwt>
<pdfrwt beam="2">  1        2 0.20520395E-02 0.11988738E+03</pdfrwt>
<pdfrwt beam="1">  1       -2 0.16922624E+00 0.11988738E+03</pdfrwt>
<totfact> 0.11660028E+03</totfact>
</mgrwt>
</event>
<event>
 7    1  0.5107591E-006  0.1426292E+03  0.7546771E-02  0.1220437E+00
         -1   -1    0    0    0  501 -0.00000000000E+00  0.00000000000E+00  0.47136726748E+03  0.47136726748E+03  0.00000000000E+00 0.  1.
          1   -1    0    0  501    0  0.00000000000E+00 -0.00000000000E+00 -0.35083809723E+02  0.35083809723E+02  0.00000000000E+00 0. -1.
         23    2    1    2    0    0 -0.42164333137E+02 -0.54234647943E+02  0.17653262168E+03  0.21011750510E+03  0.90919587574E+02 0.  0.
          5    1    1    2  502    0  0.80043525425E+02  0.21144461333E+02  0.10652478932E+03  0.13499509230E+03  0.47000000000E+01 0. -1.
         -5    1    1    2    0  502 -0.37879192288E+02  0.33090186610E+02  0.15322604676E+03  0.16133847980E+03  0.47000000000E+01 0. -1.
        -11    1    3    3    0    0  0.16007875083E+02 -0.52286861207E+02  0.71226275264E+02  0.89796159203E+02  0.00000000000E+00 0. -1.
         11    1    3    3    0    0 -0.58172208220E+02 -0.19477867361E+01  0.10530634642E+03  0.12032134590E+03  0.00000000000E+00 0.  1.
<mgrwt>
<rscale>  0 0.13484632E+03</rscale>
<asrwt>0</asrwt>
<pdfrwt beam="2">  1        1 0.53975095E-02 0.14262920E+03</pdfrwt>
<pdfrwt beam="1">  1       -1 0.72518036E-01 0.14262920E+03</pdfrwt>
<totfact> 0.28893744E+03</totfact>
</mgrwt>
</event>
<event>
 7    1  0.5107591E-006  0.1413075E+03  0.7546771E-02  0.1221668E+00
         -2   -1    0    0    0  501 -0.00000000000E+00  0.00000000000E+00  0.17792221496E+03  0.17792221496E+03  0.00000000000E+00 0. -1.
          2   -1    0    0  501    0  0.00000000000E+00 -0.00000000000E+00 -0.92149075196E+02  0.92149075196E+02  0.00000000000E+00 0.  1.
         23    2    1    2    0    0  0.47393692852E+02  0.45763185526E+02  0.29282796020E+02  0.11789055120E+03  0.93275230619E+02 0.  0.
          5    1    1    2  502    0 -0.46263642122E+01 -0.57135768804E+02 -0.22303310196E+02  0.61688142851E+02  0.47000000000E+01 0.  1.
         -5    1    1    2    0  502 -0.42767328640E+02  0.11372583278E+02  0.78793653941E+02  0.90492596110E+02  0.47000000000E+01 0.  1.
        -11    1    3    3    0    0  0.10115376009E+02  0.48899360943E+02 -0.21873153149E+02  0.54515164506E+02  0.00000000000E+00 0.  1.
         11    1    3    3    0    0  0.37278316842E+02 -0.31361754165E+01  0.51155949169E+02  0.63375386691E+02  0.00000000000E+00 0. -1.
<mgrwt>
<rscale>  0 0.13397896E+03</rscale>
<asrwt>0</asrwt>
<pdfrwt beam="2">  1        2 0.14176781E-01 0.14130753E+03</pdfrwt>
<pdfrwt beam="1">  1       -2 0.27372649E-01 0.14130753E+03</pdfrwt>
<totfact> 0.48156698E+03</totfact>
</mgrwt>
</event>
<event>
 7    1  0.5107591E-006  0.1453324E+03  0.7546771E-02  0.1216601E+00
          2   -1    0    0  501    0  0.00000000000E+00  0.00000000000E+00  0.94708287172E+03  0.94708287172E+03  0.00000000000E+00 0. -1.
         -2   -1    0    0    0  501 -0.00000000000E+00 -0.00000000000E+00 -0.18523838774E+02  0.18523838774E+02  0.00000000000E+00 0.  1.
         23    2    1    2    0    0  0.30511404020E+02 -0.67580208439E+02  0.48438258620E+03  0.49825864504E+03  0.90206192650E+02 0.  0.
          5    1    1    2  502    0 -0.59717651715E+02  0.14407946669E+02  0.34891019183E+03  0.35430805638E+03  0.47000000000E+01 0.  1.
         -5    1    1    2    0  502  0.29206247695E+02  0.53172261770E+02  0.95266254913E+02  0.11304000907E+03  0.47000000000E+01 0.  1.
        -11    1    3    3    0    0  0.60290027553E+02 -0.33049228925E+02  0.23979222307E+03  0.24945430283E+03  0.00000000000E+00 0. -1.
         11    1    3    3    0    0 -0.29778623533E+02 -0.34530979515E+02  0.24459036313E+03  0.24880434221E+03  0.00000000000E+00 0.  1.
<mgrwt>
<rscale>  0 0.13759556E+03</rscale>
<asrwt>0</asrwt>
<pdfrwt beam="1">  1        2 0.14570502E+00 0.14533237E+03</pdfrwt>
<pdfrwt beam="2">  1       -2 0.28498221E-02 0.14533237E+03</pdfrwt>
<totfact> 0.12488162E+04</totfact>
</mgrwt>
</event>
<event>
 7    1  0.5107591E-006  0.1756995E+03  0.7546771E-02  0.1177721E+00
          1   -1    0    0  501    0  0.00000000000E+00  0.00000000000E+00  0.14726288215E+03  0.14726288215E+03  0.00000000000E+00 0. -1.
         -1   -1    0    0    0  501 -0.00000000000E+00 -0.00000000000E+00 -0.22936064212E+03  0.22936064212E+03  0.00000000000E+00 0.  1.
         23    2    1    2    0    0  0.37818488930E+02 -0.11754016693E+03  0.43748321321E+02  0.16050423402E+03  0.92745698405E+02 0.  0.
          5    1    1    2  502    0  0.15551152062E+02  0.84136830273E+02 -0.12806107915E+02  0.86642546931E+02  0.47000000000E+01 0.  1.
         -5    1    1    2    0  502 -0.53369640992E+02  0.33403336658E+02 -0.11303997337E+03  0.12947674331E+03  0.47000000000E+01 0.  1.
        -11    1    3    3    0    0  0.52924434836E+02 -0.84304962911E+02  0.64403895213E+02  0.11855877991E+03  0.00000000000E+00 0. -1.
         11    1    3    3    0    0 -0.15105945906E+02 -0.33235204021E+02 -0.20655573892E+02  0.41945454114E+02  0.00000000000E+00 0.  1.
<mgrwt>
<rscale>  0 0.17012129E+03</rscale>
<asrwt>0</asrwt>
<pdfrwt beam="1">  1        1 0.22655828E-01 0.17569949E+03</pdfrwt>
<pdfrwt beam="2">  1       -1 0.35286253E-01 0.17569949E+03</pdfrwt>
<totfact> 0.16528749E+03</totfact>
</mgrwt>
</event>
<event>
 7    1  0.5107591E-006  0.1317237E+03  0.7546771E-02  0.1239615E+00
         -1   -1    0    0    0  501 -0.00000000000E+00  0.00000000000E+00  0.81361567511E+02  0.81361567511E+02  0.00000000000E+00 0.  1.
          1   -1    0    0  501    0  0.00000000000E+00 -0.00000000000E+00 -0.16125411132E+03  0.16125411132E+03  0.00000000000E+00 0. -1.
         23    2    1    2    0    0 -0.26098270333E+02 -0.32330685285E+02 -0.34231585345E+02  0.10320245389E+03  0.88048578235E+02 0.  0.
          5    1    1    2  502    0  0.42474701640E+02  0.67407254611E+02 -0.58964390423E+00  0.79814008379E+02  0.47000000000E+01 0. -1.
         -5    1    1    2    0  502 -0.16376431307E+02 -0.35076569326E+02 -0.45071314558E+02  0.59599216555E+02  0.47000000000E+01 0. -1.
        -11    1    3    3    0    0 -0.30231437525E+02 -0.13330650701E+01  0.22983139340E+02  0.37999231192E+02  0.00000000000E+00 0.  1.
         11    1    3    3    0    0  0.41331671914E+01 -0.30997620215E+02 -0.57214724684E+02  0.65203222702E+02  0.00000000000E+00 0. -1.
<mgrwt>
<rscale>  0 0.12213577E+03</rscale>
<asrwt>0</asrwt>
<pdfrwt beam="2">  1        1 0.24808325E-01 0.13172367E+03</pdfrwt>
<pdfrwt beam="1">  1       -1 0.12517164E-01 0.13172367E+03</pdfrwt>
<totfact> 0.78193584E+03</totfact>
</mgrwt>
</event>
<event>
 7    1  0.5107591E-006  0.1408612E+03  0.7546771E-02  0.1222366E+00
         -2   -1    0    0    0  501 -0.00000000000E+00  0.00000000000E+00  0.10412752824E+03  0.10412752824E+03  0.00000000000E+00 0.  1.
          2   -1    0    0  501    0  0.00000000000E+00 -0.00000000000E+00 -0.15949581481E+03  0.15949581481E+03  0.00000000000E+00 0. -1.
         23    2    1    2    0    0  0.18050482152E+02  0.62379284273E+02 -0.45599856276E+02  0.12242386104E+03  0.93226926617E+02 0.  0.
          5    1    1    2  502    0 -0.41227788825E+02 -0.71085303678E+02 -0.48094068510E+02  0.95330899482E+02  0.47000000000E+01 0.  1.
         -5    1    1    2    0  502  0.23177306672E+02  0.87060194044E+01  0.38325638219E+02  0.45868582531E+02  0.47000000000E+01 0.  1.
        -11    1    3    3    0    0  0.41947605426E+02 -0.48284707689E+01 -0.18885129245E+02  0.46255419548E+02  0.00000000000E+00 0.  1.
         11    1    3    3    0    0 -0.23897123274E+02  0.67207755042E+02 -0.26714727031E+02  0.76168441489E+02  0.00000000000E+00 0. -1.
<mgrwt>
<rscale>  0 0.13349098E+03</rscale>
<asrwt>0</asrwt>
<pdfrwt beam="2">  1        2 0.24537817E-01 0.14086118E+03</pdfrwt>
<pdfrwt beam="1">  1       -2 0.16019620E-01 0.14086118E+03</pdfrwt>
<totfact> 0.64175731E+03</totfact>
</mgrwt>
</event>
<event>
 7    1  0.5107591E-006  0.2342086E+03  0.7546771E-02  0.1126550E+00
          1   -1    0    0  501    0  0.00000000000E+00  0.00000000000E+00  0.11220237026E+04  0.11220237026E+04  0.00000000000E+00 0. -1.
         -1   -1    0    0    0  501 -0.00000000000E+00 -0.00000000000E+00 -0.45993902583E+02  0.45993902583E+02  0.00000000000E+00 0.  1.
         23    2    1    2    0    0 -0.19802134257E+03  0.37615548155E+01  0.57150501531E+03  0.61178120903E+03  0.91824091533E+02 0.  0.
          5    1    1    2  502    0  0.21002877565E+03 -0.22008562564E+02  0.44306576726E+03  0.49084195781E+03  0.47000000000E+01 0.  1.
         -5    1    1    2    0  502 -0.12007433079E+02  0.18247007748E+02  0.61459017415E+02  0.65394438315E+02  0.47000000000E+01 0.  1.
        -11    1    3    3    0    0 -0.12778992251E+03 -0.36534609165E+02  0.41189104551E+03  0.43280396871E+03  0.00000000000E+00 0.  1.
         11    1    3    3    0    0 -0.70231420062E+02  0.40296163980E+02  0.15961396980E+03  0.17897724031E+03  0.00000000000E+00 0. -1.
<mgrwt>
<rscale>  0 0.23012797E+03</rscale>
<asrwt>0</asrwt>
<pdfrwt beam="1">  1        1 0.17261901E+00 0.23420860E+03</pdfrwt>
<pdfrwt beam="2">  1       -1 0.70759859E-02 0.23420860E+03</pdfrwt>
<totfact> 0.13533434E+03</totfact>
</mgrwt>
</event>
<event>
 7    1  0.5107591E-006  0.1364923E+03  0.7546771E-02  0.1229814E+00
         -1   -1    0    0    0  501 -0.00000000000E+00  0.00000000000E+00  0.24446005935E+03  0.24446005935E+03  0.00000000000E+00 0.  1.
          1   -1    0    0  501    0  0.00000000000E+00 -0.00000000000E+00 -0.60630464029E+02  0.60630464029E+02  0.00000000000E+00 0. -1.
         23    2    1    2    0    0 -0.70095892243E+01  0.54368466262E+02  0.78425078755E+02  0.13263688266E+03  0.91853063093E+02 0.  0.
          5    1    1    2  502    0  0.63655066263E+02 -0.27649377886E+02  0.34216555757E+02  0.77519792610E+02  0.47000000000E+01 0. -1.
         -5    1    1    2    0  502 -0.56645477039E+02 -0.26719088376E+02  0.71187960812E+02  0.94933848111E+02  0.47000000000E+01 0. -1.
        -11    1    3    3    0    0  0.17985454078E+02  0.63678218051E+02  0.21169330197E+02  0.69473250633E+02  0.00000000000E+00 0.  1.
         11    1    3    3    0    0 -0.24995043302E+02 -0.93097517889E+01  0.57255748558E+02  0.63163632028E+02  0.00000000000E+00 0. -1.
<mgrwt>
<rscale>  0 0.12842337E+03</rscale>
<asrwt>0</asrwt>
<pdfrwt beam="2">  1        1 0.93277638E-02 0.13649229E+03</pdfrwt>
<pdfrwt beam="1">  1       -1 0.37609239E-01 0.13649229E+03</pdfrwt>
<totfact> 0.46433068E+03</totfact>
</mgrwt>
</event>
<event>
 7    1  0.5107591E-006  0.2264807E+03  0.7546771E-02  0.1129142E+00
         -1   -1    0    0    0  501 -0.00000000000E+00  0.00000000000E+00  0.47368540537E+03  0.47368540537E+03  0.00000000000E+00 0. -1.
          1   -1    0    0  501    0  0.00000000000E+00 -0.00000000000E+00 -0.27071512007E+02  0.27071512007E+02  0.00000000000E+00 0.  1.
         23    2    1    2    0    0 -0.11019149737E+02 -0.24198885506E+02  0.14766520164E+03  0.17564206488E+03  0.91313281953E+02 0.  0.
          5    1    1    2  502    0  0.13559120729E+02  0.60527199361E+02  0.27338698745E+03  0.28037461819E+03  0.47000000000E+01 0.  1.
         -5    1    1    2    0  502 -0.25399709922E+01 -0.36328313855E+02  0.25561704274E+02  0.44740234304E+02  0.47000000000E+01 0.  1.
        -11    1    3    3    0    0 -0.24403098825E+02 -0.46927646353E+02  0.44390939638E+02  0.69052666468E+02  0.00000000000E+00 0.  1.
         11    1    3    3    0    0  0.13383949088E+02  0.22728760847E+02  0.10327426200E+03  0.10658939841E+03  0.00000000000E+00 0. -1.
<mgrwt>
<rscale>  0 0.22648073E+03</rscale>
<asrwt>0</asrwt>
<pdfrwt beam="2">  1        1 0.41648483E-02 0.22648073E+03</pdfrwt>
<pdfrwt beam="1">  1       -1 0.72874672E-01 0.22648073E+03</pdfrwt>
<totfact> 0.41944141E+03</totfact>
</mgrwt>
</event>
<event>
 7    1  0.5107591E-006  0.3345401E+03  0.7546771E-02  0.1069146E+00
          2   -1    0    0  501    0  0.00000000000E+00  0.00000000000E+00  0.47489616659E+03  0.47489616659E+03  0.00000000000E+00 0. -1.
         -2   -1    0    0    0  501 -0.00000000000E+00 -0.00000000000E+00 -0.58916599245E+02  0.58916599245E+02  0.00000000000E+00 0.  1.
         23    2    1    2    0    0  0.59325449837E+01  0.71590381424E+02  0.30307587367E+03  0.32506024880E+03  0.92998937325E+02 0.  0.
          5    1    1    2  502    0  0.36044578808E+02  0.17736251240E+02  0.10153058176E+03  0.10929014275E+03  0.47000000000E+01 0. -1.
         -5    1    1    2    0  502 -0.41977123792E+02 -0.89326632664E+02  0.11373111913E+02  0.99462374290E+02  0.47000000000E+01 0.  1.
        -11    1    3    3    0    0  0.38394136180E+02  0.76008941628E+01  0.16352281077E+03  0.16814158596E+03  0.00000000000E+00 0.  1.
         11    1    3    3    0    0 -0.32461591197E+02  0.63989487261E+02  0.13955306290E+03  0.15691866284E+03  0.00000000000E+00 0. -1.
<mgrwt>
<rscale>  0 0.33454009E+03</rscale>
<asrwt>0</asrwt>
<pdfrwt beam="1">  1        2 0.73060946E-01 0.33454009E+03</pdfrwt>
<pdfrwt beam="2">  1       -2 0.90640925E-02 0.33454009E+03</pdfrwt>
<totfact> 0.51331286E+03</totfact>
</mgrwt>
</event>
<event>
 7    1  0.5107591E-006  0.1377234E+03  0.7546771E-02  0.1228340E+00
          2   -1    0    0  501    0  0.00000000000E+00  0.00000000000E+00  0.10164087650E+03  0.10164087650E+03  0.00000000000E+00 0. -1.
         -2   -1    0    0    0  501 -0.00000000000E+00 -0.00000000000E+00 -0.21638840984E+03  0.21638840984E+03  0.00000000000E+00 0.  1.
         23    2    1    2    0    0 -0.12000709029E+02 -0.56517527616E+02  0.36584787942E+02  0.11340964996E+03  0.90471288541E+02 0.  0.
          5    1    1    2  502    0  0.28838844759E+02  0.74324751455E+01  0.12546959153E+02  0.32656344526E+02  0.47000000000E+01 0.  1.
         -5    1    1    2    0  502 -0.16838135730E+02  0.49085052470E+02 -0.16387928043E+03  0.17196329186E+03  0.47000000000E+01 0.  1.
        -11    1    3    3    0    0 -0.42826096004E+02 -0.79397135459E+01 -0.28663133066E+01  0.43650077916E+02  0.00000000000E+00 0.  1.
         11    1    3    3    0    0  0.30825386975E+02 -0.48577814070E+02  0.39451101248E+02  0.69759572043E+02  0.00000000000E+00 0. -1.
<mgrwt>
<rscale>  0 0.12940553E+03</rscale>
<asrwt>0</asrwt>
<pdfrwt beam="1">  1        2 0.15637058E-01 0.13772336E+03</pdfrwt>
<pdfrwt beam="2">  1       -2 0.33290525E-01 0.13772336E+03</pdfrwt>
<totfact> 0.30126311E+03</totfact>
</mgrwt>
</event>
<event>
 7    1  0.5107591E-006  0.1652150E+03  0.7546771E-02  0.1190040E+00
          1   -1    0    0  501    0  0.00000000000E+00  0.00000000000E+00  0.21115967864E+03  0.21115967864E+03  0.00000000000E+00 0. -1.
         -1   -1    0    0    0  501 -0.00000000000E+00 -0.00000000000E+00 -0.11141308247E+03  0.11141308247E+03  0.00000000000E+00 0.  1.
         23    2    1    2    0    0  0.66965591548E+02 -0.84779762048E+02  0.36944782123E+02  0.14582420289E+03  0.90707126053E+02 0.  0.
          5    1    1    2  502    0 -0.12560486703E+02 -0.45804733798E+01  0.70339544340E+02  0.71752965518E+02  0.47000000000E+01 0.  1.
         -5    1    1    2    0  502 -0.54405104845E+02  0.89360235428E+02 -0.75377302903E+01  0.10499559270E+03  0.47000000000E+01 0.  1.
        -11    1    3    3    0    0 -0.26415820088E+01 -0.60209838579E+02 -0.57644322487E+01  0.60542805488E+02  0.00000000000E+00 0.  1.
         11    1    3    3    0    0  0.69607173557E+02 -0.24569923469E+02  0.42709214372E+02  0.85281397398E+02  0.00000000000E+00 0. -1.
<mgrwt>
<rscale>  0 0.15881557E+03</rscale>
<asrwt>0</asrwt>
<pdfrwt beam="1">  1        1 0.32486104E-01 0.16521497E+03</pdfrwt>
<pdfrwt beam="2">  1       -1 0.17140474E-01 0.16521497E+03</pdfrwt>
<totfact> 0.34560175E+03</totfact>
</mgrwt>
</event>
<event>
 7    1  0.5107591E-006  0.1304978E+03  0.7546771E-02  0.1246034E+00
         -1   -1    0    0    0  501 -0.00000000000E+00  0.00000000000E+00  0.20822395512E+03  0.20822395512E+03  0.00000000000E+00 0. -1.
          1   -1    0    0  501    0  0.00000000000E+00 -0.00000000000E+00 -0.15289563848E+03  0.15289563848E+03  0.00000000000E+00 0.  1.
         23    2    1    2    0    0  0.14360527120E+02  0.66103340224E+02 -0.11611586657E+03  0.14566011175E+03  0.56196951490E+02 0.  0.
          5    1    1    2  502    0  0.39457455201E+02 -0.44632877766E+02  0.13287794120E+03  0.14569702058E+03  0.47000000000E+01 0. -1.
         -5    1    1    2    0  502 -0.53817982321E+02 -0.21470462458E+02  0.38566242008E+02  0.69762461266E+02  0.47000000000E+01 0.  1.
        -11    1    3    3    0    0  0.54650521202E+01 -0.99595074448E+01 -0.15274896317E+02  0.19036308484E+02  0.00000000000E+00 0. -1.
         11    1    3    3    0    0  0.88954749997E+01  0.76062847668E+02 -0.10084097025E+03  0.12662380326E+03  0.00000000000E+00 0.  1.
<mgrwt>
<rscale>  0 0.11823683E+03</rscale>
<asrwt>0</asrwt>
<pdfrwt beam="2">  1        1 0.23522406E-01 0.13049782E+03</pdfrwt>
<pdfrwt beam="1">  1       -1 0.32034455E-01 0.13049782E+03</pdfrwt>
<totfact> 0.18417017E+03</totfact>
</mgrwt>
</event>
<event>
 7    1  0.5107591E-006  0.1250489E+03  0.7546771E-02  0.1250448E+00
         -1   -1    0    0    0  501 -0.00000000000E+00  0.00000000000E+00  0.14721898689E+03  0.14721898689E+03  0.00000000000E+00 0.  1.
          1   -1    0    0  501    0  0.00000000000E+00 -0.00000000000E+00 -0.81113063037E+02  0.81113063037E+02  0.00000000000E+00 0. -1.
         23    2    1    2    0    0 -0.11537979386E+01  0.31746414611E+01  0.12734968885E+02  0.92369982667E+02  0.91425514313E+02 0.  0.
          5    1    1    2  502    0 -0.29524964823E+02 -0.54795961545E+02  0.40381130019E+02  0.74344109458E+02  0.47000000000E+01 0. -1.
         -5    1    1    2    0  502  0.30678762761E+02  0.51621320084E+02  0.12989824952E+02  0.61617957805E+02  0.47000000000E+01 0. -1.
        -11    1    3    3    0    0 -0.81839424906E+00  0.23844960359E+02  0.46795358321E+02  0.52526730948E+02  0.00000000000E+00 0.  1.
         11    1    3    3    0    0 -0.33540368949E+00 -0.20670318898E+02 -0.34060389436E+02  0.39843251719E+02  0.00000000000E+00 0. -1.
<mgrwt>
<rscale>  0 0.11565137E+03</rscale>
<asrwt>0</asrwt>
<pdfrwt beam="2">  1        1 0.12478933E-01 0.12504889E+03</pdfrwt>
<pdfrwt beam="1">  1       -1 0.22649075E-01 0.12504889E+03</pdfrwt>
<totfact> 0.73482437E+03</totfact>
</mgrwt>
</event>
<event>
 7    1  0.5107591E-006  0.1250705E+03  0.7546771E-02  0.1250441E+00
         -1   -1    0    0    0  501 -0.00000000000E+00  0.00000000000E+00  0.38932199686E+02  0.38932199686E+02  0.00000000000E+00 0.  1.
          1   -1    0    0  501    0  0.00000000000E+00 -0.00000000000E+00 -0.33117452660E+03  0.33117452660E+03  0.00000000000E+00 0. -1.
         23    2    1    2    0    0 -0.39370482397E+01 -0.16604809115E+01 -0.18069074255E+03  0.20251682428E+03  0.91354595549E+02 0.  0.
          5    1    1    2  502    0  0.54345135102E+02 -0.32920883600E+02 -0.54528006925E+02  0.83860430630E+02  0.47000000000E+01 0. -1.
         -5    1    1    2    0  502 -0.50408086862E+02  0.34581364512E+02 -0.57023577436E+02  0.83729471372E+02  0.47000000000E+01 0. -1.
        -11    1    3    3    0    0 -0.40722060366E+02  0.20756223697E+02 -0.68586124548E+02  0.82420649737E+02  0.00000000000E+00 0.  1.
         11    1    3    3    0    0  0.36785012126E+02 -0.22416704609E+02 -0.11210461800E+03  0.12009617454E+03  0.00000000000E+00 0. -1.
<mgrwt>
<rscale>  0 0.11565576E+03</rscale>
<asrwt>0</asrwt>
<pdfrwt beam="2">  1        1 0.50949925E-01 0.12507046E+03</pdfrwt>
<pdfrwt beam="1">  1       -1 0.59895694E-02 0.12507046E+03</pdfrwt>
<totfact> 0.97422178E+03</totfact>
</mgrwt>
</event>
<event>
 7    1  0.5107591E-006  0.1484601E+03  0.7546771E-02  0.1215347E+00
          3   -1    0    0  501    0  0.00000000000E+00  0.00000000000E+00  0.70103617867E+02  0.70103617867E+02  0.00000000000E+00 0. -1.
         -3   -1    0    0    0  501 -0.00000000000E+00 -0.00000000000E+00 -0.25267452732E+03  0.25267452732E+03  0.00000000000E+00 0.  1.
         23    2    1    2    0    0 -0.47337019483E+02  0.64616638276E+02 -0.47631090441E+02  0.12215624612E+03  0.78976732863E+02 0.  0.
          5    1    1    2  502    0 -0.27917314545E+02  0.18354319395E+02 -0.48372311675E+02  0.58976504039E+02  0.47000000000E+01 0. -1.
         -5    1    1    2    0  502  0.75254334028E+02 -0.82970957671E+02 -0.86567507340E+02  0.14164539503E+03  0.47000000000E+01 0. -1.
        -11    1    3    3    0    0 -0.54413038757E+02  0.25567487265E+02  0.50396945688E-01  0.60120526709E+02  0.00000000000E+00 0. -1.
         11    1    3    3    0    0  0.70760192739E+01  0.39049151010E+02 -0.47681487387E+02  0.62035719411E+02  0.00000000000E+00 0.  1.
<mgrwt>
<rscale>  0 0.13851068E+03</rscale>
<asrwt>0</asrwt>
<pdfrwt beam="1">  1        3 0.10785172E-01 0.14846007E+03</pdfrwt>
<pdfrwt beam="2">  1       -3 0.38873004E-01 0.14846007E+03</pdfrwt>
<totfact> 0.99810251E+02</totfact>
</mgrwt>
</event>
<event>
 7    1  0.5107591E-006  0.1943384E+03  0.7546771E-02  0.1159296E+00
          2   -1    0    0  501    0  0.00000000000E+00  0.00000000000E+00  0.46439561249E+03  0.46439561249E+03  0.00000000000E+00 0. -1.
         -2   -1    0    0    0  501 -0.00000000000E+00 -0.00000000000E+00 -0.73791831137E+02  0.73791831137E+02  0.00000000000E+00 0.  1.
         23    2    1    2    0    0  0.72473152420E+02 -0.12993910345E+03  0.15850687905E+03  0.23547240503E+03  0.90478143198E+02 0.  0.
          5    1    1    2  502    0 -0.10205439718E+03  0.63930693172E+02  0.16169590159E+03  0.20166776665E+03  0.47000000000E+01 0. -1.
         -5    1    1    2    0  502  0.29581244756E+02  0.66008410274E+02  0.70401000707E+02  0.10104727195E+03  0.47000000000E+01 0. -1.
        -11    1    3    3    0    0  0.77622229158E+02 -0.51830580531E+02  0.66123332007E+02  0.11438494033E+03  0.00000000000E+00 0.  1.
         11    1    3    3    0    0 -0.51490767378E+01 -0.78108522915E+02  0.92383547046E+02  0.12108746470E+03  0.00000000000E+00 0. -1.
<mgrwt>
<rscale>  0 0.18907766E+03</rscale>
<asrwt>0</asrwt>
<pdfrwt beam="1">  1        2 0.71445477E-01 0.19433842E+03</pdfrwt>
<pdfrwt beam="2">  1       -2 0.11352590E-01 0.19433842E+03</pdfrwt>
<totfact> 0.36013328E+03</totfact>
</mgrwt>
</event>
<event>
 7    1  0.5107591E-006  0.1434321E+03  0.7546771E-02  0.1220127E+00
          2   -1    0    0  501    0  0.00000000000E+00  0.00000000000E+00  0.47817331183E+03  0.47817331183E+03  0.00000000000E+00 0.  1.
         -2   -1    0    0    0  501 -0.00000000000E+00 -0.00000000000E+00 -0.36385126236E+02  0.36385126236E+02  0.00000000000E+00 0. -1.
         23    2    1    2    0    0  0.51466840176E+02 -0.47942058928E+02  0.25683386645E+03  0.28050531302E+03  0.88160756719E+02 0.  0.
          5    1    1    2  502    0 -0.92884248489E+02  0.35112756908E+02  0.13648138854E+03  0.16884800483E+03  0.47000000000E+01 0. -1.
         -5    1    1    2    0  502  0.41417408313E+02  0.12829302020E+02  0.48472930600E+02  0.65205120218E+02  0.47000000000E+01 0. -1.
        -11    1    3    3    0    0 -0.53795967779E+01 -0.36945434828E+02  0.18251348300E+03  0.18629298616E+03  0.00000000000E+00 0.  1.
         11    1    3    3    0    0  0.56846436954E+02 -0.10996624100E+02  0.74320383446E+02  0.94212326855E+02  0.00000000000E+00 0. -1.
<mgrwt>
<rscale>  0 0.13506534E+03</rscale>
<asrwt>0</asrwt>
<pdfrwt beam="1">  1        2 0.73565120E-01 0.14343209E+03</pdfrwt>
<pdfrwt beam="2">  1       -2 0.55977121E-02 0.14343209E+03</pdfrwt>
<totfact> 0.10294707E+04</totfact>
</mgrwt>
</event>
<event>
 7    1  0.5107591E-006  0.1378476E+03  0.7546771E-02  0.1226764E+00
         -1   -1    0    0    0  501 -0.00000000000E+00  0.00000000000E+00  0.44075500517E+02  0.44075500517E+02  0.00000000000E+00 0.  1.
          1   -1    0    0  501    0  0.00000000000E+00 -0.00000000000E+00 -0.35793543684E+03  0.35793543684E+03  0.00000000000E+00 0. -1.
         23    2    1    2    0    0  0.53738487390E+02  0.22126193676E+02 -0.11064514611E+03  0.15645400863E+03  0.94117559377E+02 0.  0.
          5    1    1    2  502    0  0.36946857893E+02 -0.18906823564E+02 -0.35530906008E+02  0.54836790270E+02  0.47000000000E+01 0.  1.
         -5    1    1    2    0  502 -0.90685345283E+02 -0.32193701129E+01 -0.16768388420E+03  0.19072013846E+03  0.47000000000E+01 0.  1.
        -11    1    3    3    0    0  0.53849186033E+01  0.33349868891E+02  0.14988484443E+01  0.33815050644E+02  0.00000000000E+00 0.  1.
         11    1    3    3    0    0  0.48353568787E+02 -0.11223675214E+02 -0.11214399456E+03  0.12263895798E+03  0.00000000000E+00 0. -1.
<mgrwt>
<rscale>  0 0.13046743E+03</rscale>
<asrwt>0</asrwt>
<pdfrwt beam="2">  1        1 0.55066993E-01 0.13784758E+03</pdfrwt>
<pdfrwt beam="1">  1       -1 0.67808458E-02 0.13784758E+03</pdfrwt>
<totfact> 0.74002327E+03</totfact>
</mgrwt>
</event>
<event>
 7    1  0.5107591E-006  0.1385785E+03  0.7546771E-02  0.1226274E+00
         -1   -1    0    0    0  501 -0.00000000000E+00  0.00000000000E+00  0.57231689525E+02  0.57231689525E+02  0.00000000000E+00 0.  1.
          1   -1    0    0  501    0  0.00000000000E+00 -0.00000000000E+00 -0.28052304922E+03  0.28052304922E+03  0.00000000000E+00 0. -1.
         23    2    1    2    0    0 -0.18102388814E+02 -0.57030489034E+02 -0.13196281883E+03  0.17178814059E+03  0.92286545782E+02 0.  0.
          5    1    1    2  502    0 -0.51930268783E+01  0.70269546919E+02  0.57230408991E-01  0.70617774163E+02  0.47000000000E+01 0.  1.
         -5    1    1    2    0  502  0.23295415693E+02 -0.13239057885E+02 -0.91385771276E+02  0.95348823998E+02  0.47000000000E+01 0.  1.
        -11    1    3    3    0    0  0.10268100076E+02 -0.73917317846E+02 -0.74087450944E+02  0.10515775836E+03  0.00000000000E+00 0.  1.
         11    1    3    3    0    0 -0.28370488890E+02  0.16886828813E+02 -0.57875367884E+02  0.66630382221E+02  0.00000000000E+00 0. -1.
<mgrwt>
<rscale>  0 0.13079965E+03</rscale>
<asrwt>0</asrwt>
<pdfrwt beam="2">  1        1 0.43157391E-01 0.13857853E+03</pdfrwt>
<pdfrwt beam="1">  1       -1 0.88048755E-02 0.13857853E+03</pdfrwt>
<totfact> 0.67591280E+03</totfact>
</mgrwt>
</event>
<event>
 7    1  0.5107591E-006  0.1697783E+03  0.7546771E-02  0.1184792E+00
          1   -1    0    0  501    0  0.00000000000E+00  0.00000000000E+00  0.57884438372E+03  0.57884438372E+03  0.00000000000E+00 0. -1.
         -1   -1    0    0    0  501 -0.00000000000E+00 -0.00000000000E+00 -0.46423270198E+02  0.46423270198E+02  0.00000000000E+00 0.  1.
         23    2    1    2    0    0  0.14412714718E+02 -0.11398392327E+03  0.33131171991E+03  0.36207635566E+03  0.90176329857E+02 0.  0.
          5    1    1    2  502    0  0.12597734705E+02 -0.11560370150E+02  0.94712300175E+02  0.96357951837E+02  0.47000000000E+01 0.  1.
         -5    1    1    2    0  502 -0.27010449423E+02  0.12554429342E+03  0.10639709343E+03  0.16683334642E+03  0.47000000000E+01 0.  1.
        -11    1    3    3    0    0 -0.32515701000E+02 -0.25346911505E+02  0.59812751171E+02  0.72645040691E+02  0.00000000000E+00 0.  1.
         11    1    3    3    0    0  0.46928415718E+02 -0.88637011762E+02  0.27149896874E+03  0.28943131496E+03  0.00000000000E+00 0. -1.
<mgrwt>
<rscale>  0 0.16350843E+03</rscale>
<asrwt>0</asrwt>
<pdfrwt beam="1">  1        1 0.89052977E-01 0.16977830E+03</pdfrwt>
<pdfrwt beam="2">  1       -1 0.71420420E-02 0.16977830E+03</pdfrwt>
<totfact> 0.37157072E+03</totfact>
</mgrwt>
</event>
<event>
 7    1  0.5107591E-006  0.1506812E+03  0.7546771E-02  0.1208597E+00
          1   -1    0    0  501    0  0.00000000000E+00  0.00000000000E+00  0.18991249764E+03  0.18991249764E+03  0.00000000000E+00 0.  1.
         -1   -1    0    0    0  501 -0.00000000000E+00 -0.00000000000E+00 -0.10727264379E+03  0.10727264379E+03  0.00000000000E+00 0. -1.
         23    2    1    2    0    0  0.32482504503E+02 -0.77643117583E+02  0.77529740324E+02  0.14641735489E+03  0.91343387120E+02 0.  0.
          5    1    1    2  502    0 -0.39233528110E+01 -0.17487052011E+02 -0.38086989595E+02  0.42354438513E+02  0.47000000000E+01 0. -1.
         -5    1    1    2    0  502 -0.28559151692E+02  0.95130169594E+02  0.43197103126E+02  0.10841334803E+03  0.47000000000E+01 0. -1.
        -11    1    3    3    0    0  0.40847406552E+02  0.49635655977E+01  0.24202282977E+02  0.47737805844E+02  0.00000000000E+00 0.  1.
         11    1    3    3    0    0 -0.83649020487E+01 -0.82606683180E+02  0.53327457346E+02  0.98679549043E+02  0.00000000000E+00 0. -1.
<mgrwt>
<rscale>  0 0.14357540E+03</rscale>
<asrwt>0</asrwt>
<pdfrwt beam="1">  1        1 0.29217307E-01 0.15068116E+03</pdfrwt>
<pdfrwt beam="2">  1       -1 0.16503484E-01 0.15068116E+03</pdfrwt>
<totfact> 0.41702648E+03</totfact>
</mgrwt>
</event>
<event>
 7    1  0.5107591E-006  0.1494198E+03  0.7546771E-02  0.1210648E+00
         -1   -1    0    0    0  501 -0.00000000000E+00  0.00000000000E+00  0.11698279277E+03  0.11698279277E+03  0.00000000000E+00 0.  1.
          1   -1    0    0  501    0  0.00000000000E+00 -0.00000000000E+00 -0.16014346591E+03  0.16014346591E+03  0.00000000000E+00 0. -1.
         23    2    1    2    0    0  0.21305646686E+02 -0.79030819667E+02 -0.37678225871E+02  0.12760589008E+03  0.90353823601E+02 0.  0.
          5    1    1    2  502    0 -0.37022665020E+02 -0.22815892890E+02 -0.14211249740E+02  0.45992307104E+02  0.47000000000E+01 0.  1.
         -5    1    1    2    0  502  0.15717018334E+02  0.10184671256E+03  0.87288024708E+01  0.10352806149E+03  0.47000000000E+01 0.  1.
        -11    1    3    3    0    0  0.55782653231E+02 -0.46241398884E+02 -0.33551286592E+02  0.79847731365E+02  0.00000000000E+00 0.  1.
         11    1    3    3    0    0 -0.34477006545E+02 -0.32789420784E+02 -0.41269392797E+01  0.47758158711E+02  0.00000000000E+00 0. -1.
<mgrwt>
<rscale>  0 0.14201091E+03</rscale>
<asrwt>0</asrwt>
<pdfrwt beam="2">  1        1 0.24637456E-01 0.14941982E+03</pdfrwt>
<pdfrwt beam="1">  1       -1 0.17997353E-01 0.14941982E+03</pdfrwt>
<totfact> 0.44983234E+03</totfact>
</mgrwt>
</event>
<event>
 7    1  0.5107591E-006  0.1384965E+03  0.7546771E-02  0.1226661E+00
         -1   -1    0    0    0  501 -0.00000000000E+00  0.00000000000E+00  0.98093466339E+02  0.98093466339E+02  0.00000000000E+00 0.  1.
          1   -1    0    0  501    0  0.00000000000E+00 -0.00000000000E+00 -0.15679081945E+03  0.15679081945E+03  0.00000000000E+00 0. -1.
         23    2    1    2    0    0 -0.56150249670E+02 -0.20076630452E+02 -0.20360706605E+02  0.11117976604E+03  0.91599456192E+02 0.  0.
          5    1    1    2  502    0  0.64469456904E+02 -0.36570424929E+02  0.66049786656E+00  0.74271347842E+02  0.47000000000E+01 0.  1.
         -5    1    1    2    0  502 -0.83192072339E+01  0.56647055381E+02 -0.38997144375E+02  0.69433171912E+02  0.47000000000E+01 0.  1.
        -11    1    3    3    0    0 -0.70054880194E+01 -0.39601066240E+02 -0.38104623813E+02  0.55401116105E+02  0.00000000000E+00 0.  1.
         11    1    3    3    0    0 -0.49144761650E+02  0.19524435788E+02  0.17743917208E+02  0.55778649933E+02  0.00000000000E+00 0. -1.
<mgrwt>
<rscale>  0 0.13053703E+03</rscale>
<asrwt>0</asrwt>
<pdfrwt beam="2">  1        1 0.24121664E-01 0.13849654E+03</pdfrwt>
<pdfrwt beam="1">  1       -1 0.15091303E-01 0.13849654E+03</pdfrwt>
<totfact> 0.60746598E+03</totfact>
</mgrwt>
</event>
<event>
 7    1  0.5107591E-006  0.1304662E+03  0.7546771E-02  0.1245879E+00
          3   -1    0    0  501    0  0.00000000000E+00  0.00000000000E+00  0.12387135919E+03  0.12387135919E+03  0.00000000000E+00 0. -1.
         -3   -1    0    0    0  501 -0.00000000000E+00 -0.00000000000E+00 -0.14052287223E+03  0.14052287223E+03  0.00000000000E+00 0.  1.
         23    2    1    2    0    0 -0.37085657477E+02  0.47161965896E+01  0.65757420151E+02  0.11008070013E+03  0.79975832191E+02 0.  0.
          5    1    1    2  502    0  0.23933522194E+02  0.16452583130E+02 -0.11173433374E+03  0.11554285920E+03  0.47000000000E+01 0. -1.
         -5    1    1    2    0  502  0.13152135282E+02 -0.21168779720E+02  0.29325400551E+02  0.38770672096E+02  0.47000000000E+01 0. -1.
        -11    1    3    3    0    0 -0.13739032946E+02  0.19345448843E+02  0.76812699017E+02  0.80394018108E+02  0.00000000000E+00 0. -1.
         11    1    3    3    0    0 -0.23346624531E+02 -0.14629252254E+02 -0.11055278866E+02  0.29686682019E+02  0.00000000000E+00 0.  1.
<mgrwt>
<rscale>  0 0.11832913E+03</rscale>
<asrwt>0</asrwt>
<pdfrwt beam="1">  1        3 0.19057132E-01 0.13046622E+03</pdfrwt>
<pdfrwt beam="2">  1       -3 0.21618903E-01 0.13046622E+03</pdfrwt>
<totfact> 0.10931905E+03</totfact>
</mgrwt>
</event>
<event>
 7    1  0.5107591E-006  0.1663480E+03  0.7546771E-02  0.1187396E+00
         -4   -1    0    0    0  501 -0.00000000000E+00  0.00000000000E+00  0.35203804685E+03  0.35203804685E+03  0.00000000000E+00 0.  1.
          4   -1    0    0  501    0  0.00000000000E+00 -0.00000000000E+00 -0.74887602813E+02  0.74887602813E+02  0.00000000000E+00 0. -1.
         23    2    1    2    0    0 -0.18046051366E+02  0.10826461862E+03  0.73394466674E+02  0.16388923435E+03  0.97087825092E+02 0.  0.
          5    1    1    2  502    0 -0.17315217919E+02  0.20161783056E+02  0.12072395698E+02  0.29565977160E+02  0.47000000000E+01 0. -1.
         -5    1    1    2    0  502  0.35361269285E+02 -0.12842640168E+03  0.19168358167E+03  0.23347043816E+03  0.47000000000E+01 0. -1.
        -11    1    3    3    0    0  0.24782203498E+02  0.61020393372E+02 -0.10478733575E+01  0.65869143429E+02  0.00000000000E+00 0. -1.
         11    1    3    3    0    0 -0.42828254864E+02  0.47244225250E+02  0.74442340031E+02  0.98020090917E+02  0.00000000000E+00 0.  1.
<mgrwt>
<rscale>  0 0.16115716E+03</rscale>
<asrwt>0</asrwt>
<pdfrwt beam="2">  1        4 0.11521170E-01 0.16634800E+03</pdfrwt>
<pdfrwt beam="1">  1       -4 0.54159699E-01 0.16634800E+03</pdfrwt>
<totfact> 0.33825423E+02</totfact>
</mgrwt>
</event>
<event>
 7    1  0.5107591E-006  0.1453218E+03  0.7546771E-02  0.1216390E+00
          2   -1    0    0  501    0  0.00000000000E+00  0.00000000000E+00  0.14380970204E+03  0.14380970204E+03  0.00000000000E+00 0. -1.
         -2   -1    0    0    0  501 -0.00000000000E+00 -0.00000000000E+00 -0.11994172269E+03  0.11994172269E+03  0.00000000000E+00 0.  1.
         23    2    1    2    0    0 -0.59472099885E+02  0.44144691939E+02  0.12647007519E+02  0.11799708728E+03  0.90981763651E+02 0.  0.
          5    1    1    2  502    0  0.46233892725E+01 -0.74617225676E+02 -0.16970946294E+02  0.76806309078E+02  0.47000000000E+01 0.  1.
         -5    1    1    2    0  502  0.54848710613E+02  0.30472533737E+02  0.28191918125E+02  0.68948028368E+02  0.47000000000E+01 0.  1.
        -11    1    3    3    0    0 -0.27812221976E+02  0.67925542142E+02 -0.71153185318E+01  0.73742977458E+02  0.00000000000E+00 0.  1.
         11    1    3    3    0    0 -0.31659877909E+02 -0.23780850203E+02  0.19762326051E+02  0.44254109826E+02  0.00000000000E+00 0. -1.
<mgrwt>
<rscale>  0 0.13774904E+03</rscale>
<asrwt>0</asrwt>
<pdfrwt beam="1">  1        2 0.22124570E-01 0.14532177E+03</pdfrwt>
<pdfrwt beam="2">  1       -2 0.18452573E-01 0.14532177E+03</pdfrwt>
<totfact> 0.57052405E+03</totfact>
</mgrwt>
</event>
<event>
 7    1  0.5107591E-006  0.1860558E+03  0.7546771E-02  0.1177449E+00
         -2   -1    0    0    0  501 -0.00000000000E+00  0.00000000000E+00  0.43819432687E+02  0.43819432687E+02  0.00000000000E+00 0.  1.
          2   -1    0    0  501    0  0.00000000000E+00 -0.00000000000E+00 -0.70614611755E+03  0.70614611755E+03  0.00000000000E+00 0. -1.
         23    2    1    2    0    0 -0.44009104875E+02  0.85530984833E+02 -0.44518036953E+03  0.46401226564E+03  0.88710036464E+02 0.  0.
          5    1    1    2  502    0  0.49460562079E+02  0.25663430667E+02 -0.13907876793E+03  0.14989980842E+03  0.47000000000E+01 0. -1.
         -5    1    1    2    0  502 -0.54514572036E+01 -0.11119441550E+03 -0.78067547407E+02  0.13605347619E+03  0.47000000000E+01 0.  1.
        -11    1    3    3    0    0  0.69371816651E+01 -0.12876949946E+02 -0.20969995599E+02  0.25567186877E+02  0.00000000000E+00 0.  1.
         11    1    3    3    0    0 -0.50946286541E+02  0.98407934778E+02 -0.42421037393E+03  0.43844507876E+03  0.00000000000E+00 0. -1.
<mgrwt>
<rscale>  0 0.17038295E+03</rscale>
<asrwt>0</asrwt>
<pdfrwt beam="2">  1        2 0.10863786E+00 0.18605579E+03</pdfrwt>
<pdfrwt beam="1">  1       -2 0.67414515E-02 0.18605579E+03</pdfrwt>
<totfact> 0.50384453E+03</totfact>
</mgrwt>
</event>
<event>
 7    1  0.5107591E-006  0.1565263E+03  0.7546771E-02  0.1200809E+00
          2   -1    0    0  501    0  0.00000000000E+00  0.00000000000E+00  0.12255686330E+04  0.12255686330E+04  0.00000000000E+00 0. -1.
         -2   -1    0    0    0  501 -0.00000000000E+00 -0.00000000000E+00 -0.16872230579E+02  0.16872230579E+02  0.00000000000E+00 0.  1.
         23    2    1    2    0    0 -0.33954169965E+02  0.87856984350E+02  0.54341124501E+03  0.55899018153E+03  0.91118090843E+02 0.  0.
          5    1    1    2  502    0  0.77188179873E+02 -0.63583782005E+02  0.34202333595E+03  0.35637475329E+03  0.47000000000E+01 0.  1.
         -5    1    1    2    0  502 -0.43234009909E+02 -0.24273202345E+02  0.32326182143E+03  0.32707592874E+03  0.47000000000E+01 0.  1.
        -11    1    3    3    0    0  0.28124155567E+02  0.51628157969E+02  0.22342411681E+03  0.23102980499E+03  0.00000000000E+00 0. -1.
         11    1    3    3    0    0 -0.62078325532E+02  0.36228826381E+02  0.31998712820E+03  0.32796037653E+03  0.00000000000E+00 0.  1.
<mgrwt>
<rscale>  0 0.14972705E+03</rscale>
<asrwt>0</asrwt>
<pdfrwt beam="1">  1        2 0.18854895E+00 0.15652634E+03</pdfrwt>
<pdfrwt beam="2">  1       -2 0.25957287E-02 0.15652634E+03</pdfrwt>
<totfact> 0.99136450E+03</totfact>
</mgrwt>
</event>
<event>
 7    1  0.5107591E-006  0.1686931E+03  0.7546771E-02  0.1185503E+00
         -1   -1    0    0    0  501 -0.00000000000E+00  0.00000000000E+00  0.82494207709E+02  0.82494207709E+02  0.00000000000E+00 0.  1.
          1   -1    0    0  501    0  0.00000000000E+00 -0.00000000000E+00 -0.33689470789E+03  0.33689470789E+03  0.00000000000E+00 0. -1.
         23    2    1    2    0    0 -0.98650871012E+02  0.59007128978E+02 -0.18734837972E+03  0.23785832481E+03  0.90902869474E+02 0.  0.
          5    1    1    2  502    0  0.73895564044E+02  0.26042592077E+02 -0.19466900270E+02  0.80869160956E+02  0.47000000000E+01 0. -1.
         -5    1    1    2    0  502  0.24755306967E+02 -0.85049721055E+02 -0.47585220192E+02  0.10066142983E+03  0.47000000000E+01 0.  1.
        -11    1    3    3    0    0 -0.87875958813E+02  0.34961976817E+02 -0.70196170835E+02  0.11777956682E+03  0.00000000000E+00 0.  1.
         11    1    3    3    0    0 -0.10774912199E+02  0.24045152162E+02 -0.11715220888E+03  0.12007875799E+03  0.00000000000E+00 0. -1.
<mgrwt>
<rscale>  0 0.16286215E+03</rscale>
<asrwt>0</asrwt>
<pdfrwt beam="2">  1        1 0.51829955E-01 0.16869312E+03</pdfrwt>
<pdfrwt beam="1">  1       -1 0.12691417E-01 0.16869312E+03</pdfrwt>
<totfact> 0.31012137E+03</totfact>
</mgrwt>
</event>
<event>
 7    1  0.5107591E-006  0.1836628E+03  0.7546771E-02  0.1169626E+00
          1   -1    0    0  501    0  0.00000000000E+00  0.00000000000E+00  0.62625117098E+03  0.62625117098E+03  0.00000000000E+00 0. -1.
         -1   -1    0    0    0  501 -0.00000000000E+00 -0.00000000000E+00 -0.48666811486E+02  0.48666811486E+02  0.00000000000E+00 0.  1.
         23    2    1    2    0    0  0.90912179305E+01 -0.13428133325E+03  0.31540997823E+03  0.35481264141E+03  0.91073758233E+02 0.  0.
          5    1    1    2  502    0  0.18112629131E+02  0.13928295024E+03  0.15458184292E+03  0.20891491982E+03  0.47000000000E+01 0. -1.
         -5    1    1    2    0  502 -0.27203847062E+02 -0.50016169893E+01  0.10759253835E+03  0.11119042124E+03  0.47000000000E+01 0. -1.
        -11    1    3    3    0    0 -0.21006316390E+02 -0.54571741297E+02  0.21653474116E+03  0.22429140511E+03  0.00000000000E+00 0. -1.
         11    1    3    3    0    0  0.30097534321E+02 -0.79709591950E+02  0.98875237065E+02  0.13052123630E+03  0.00000000000E+00 0.  1.
<mgrwt>
<rscale>  0 0.17812873E+03</rscale>
<asrwt>0</asrwt>
<pdfrwt beam="1">  1        1 0.96346328E-01 0.18366280E+03</pdfrwt>
<pdfrwt beam="2">  1       -1 0.74872022E-02 0.18366280E+03</pdfrwt>
<totfact> 0.31130518E+03</totfact>
</mgrwt>
</event>
<event>
 7    1  0.5107591E-006  0.1358884E+03  0.7546771E-02  0.1231244E+00
          1   -1    0    0  501    0  0.00000000000E+00  0.00000000000E+00  0.20030819067E+03  0.20030819067E+03  0.00000000000E+00 0. -1.
         -1   -1    0    0    0  501 -0.00000000000E+00 -0.00000000000E+00 -0.75650887041E+02  0.75650887041E+02  0.00000000000E+00 0.  1.
         23    2    1    2    0    0 -0.22347357487E+02 -0.48376511082E+02  0.82352352734E+02  0.13363769731E+03  0.90760304821E+02 0.  0.
          5    1    1    2  502    0 -0.25892809106E+02  0.36624604810E+02  0.71497581288E+02  0.84532794647E+02  0.47000000000E+01 0.  1.
         -5    1    1    2    0  502  0.48240166593E+02  0.11751906272E+02 -0.29192630392E+02  0.57788585752E+02  0.47000000000E+01 0.  1.
        -11    1    3    3    0    0 -0.34294812952E+02 -0.21955993842E+02 -0.55304913960E+01  0.41094843911E+02  0.00000000000E+00 0.  1.
         11    1    3    3    0    0  0.11947455465E+02 -0.26420517240E+02  0.87882844130E+02  0.92542853402E+02  0.00000000000E+00 0. -1.
<mgrwt>
<rscale>  0 0.12747947E+03</rscale>
<asrwt>0</asrwt>
<pdfrwt beam="1">  1        1 0.30816645E-01 0.13588843E+03</pdfrwt>
<pdfrwt beam="2">  1       -1 0.11638598E-01 0.13588843E+03</pdfrwt>
<totfact> 0.66883677E+03</totfact>
</mgrwt>
</event>
<event>
 6    1  0.5107591E-006  0.1531292E+03  0.7546771E-02  0.1226167E+00
         -2   -1    0    0    0  501 -0.00000000000E+00  0.00000000000E+00  0.86477927132E+03  0.86477927132E+03  0.00000000000E+00 0.  1.
          2   -1    0    0  501    0  0.00000000000E+00 -0.00000000000E+00 -0.17428478674E+02  0.17428478674E+02  0.00000000000E+00 0. -1.
          5    1    1    2  502    0 -0.29020794780E+02 -0.85558022196E+02  0.31141745203E+03  0.32429199978E+03  0.47000000000E+01 0. -1.
         -5    1    1    2    0  502  0.52568032572E+02  0.20950349636E+02  0.35339865694E+03  0.35793157995E+03  0.47000000000E+01 0.  1.
        -11    1    1    2    0    0 -0.27414165845E+02  0.13797813716E+02  0.65195106846E+02  0.72057741493E+02  0.00000000000E+00 0. -1.
         11    1    1    2    0    0  0.38669280535E+01  0.50809858843E+02  0.11733957683E+03  0.12792642878E+03  0.00000000000E+00 0.  1.
<mgrwt>
<rscale>  0 0.13087237E+03</rscale>
<asrwt>0</asrwt>
<pdfrwt beam="2">  1        2 0.26813051E-02 0.15312921E+03</pdfrwt>
<pdfrwt beam="1">  1       -2 0.13304293E+00 0.15312921E+03</pdfrwt>
<totfact> 0.15242706E+03</totfact>
</mgrwt>
</event>
<event>
 7    1  0.5107591E-006  0.1268672E+03  0.7546771E-02  0.1247211E+00
         -2   -1    0    0    0  501 -0.00000000000E+00  0.00000000000E+00  0.58577692299E+02  0.58577692299E+02  0.00000000000E+00 0. -1.
          2   -1    0    0  501    0  0.00000000000E+00 -0.00000000000E+00 -0.21979976230E+03  0.21979976230E+03  0.00000000000E+00 0.  1.
         23    2    1    2    0    0 -0.21314830934E+02  0.40788965063E+01 -0.10204661588E+03  0.13838812315E+03  0.90921952253E+02 0.  0.
          5    1    1    2  502    0  0.15438555710E+02 -0.45098932755E+02 -0.80100456623E+02  0.93329716003E+02  0.47000000000E+01 0. -1.
         -5    1    1    2    0  502  0.58762752235E+01  0.41020036249E+02  0.20925002499E+02  0.46659615450E+02  0.47000000000E+01 0. -1.
        -11    1    3    3    0    0 -0.60928701418E+00  0.41250050457E+02 -0.81039501052E+02  0.90935903933E+02  0.00000000000E+00 0.  1.
         11    1    3    3    0    0 -0.20705543920E+02 -0.37171153950E+02 -0.21007114825E+02  0.47452219213E+02  0.00000000000E+00 0. -1.
<mgrwt>
<rscale>  0 0.11754034E+03</rscale>
<asrwt>0</asrwt>
<pdfrwt beam="2">  1        2 0.33815348E-01 0.12686717E+03</pdfrwt>
<pdfrwt beam="1">  1       -2 0.90119527E-02 0.12686717E+03</pdfrwt>
<totfact> 0.11266900E+04</totfact>
</mgrwt>
</event>
<event>
 7    1  0.5107591E-006  0.1653315E+03  0.7546771E-02  0.1189856E+00
         -2   -1    0    0    0  501 -0.00000000000E+00  0.00000000000E+00  0.27738258582E+02  0.27738258582E+02  0.00000000000E+00 0.  1.
          2   -1    0    0  501    0  0.00000000000E+00 -0.00000000000E+00 -0.85527283342E+03  0.85527283342E+03  0.00000000000E+00 0. -1.
         23    2    1    2    0    0  0.96730206015E+02  0.48488777425E+02 -0.34015603115E+03  0.36835356924E+03  0.90941366578E+02 0.  0.
          5    1    1    2  502    0 -0.98687536914E+02  0.16413069922E+02 -0.28766164884E+03  0.30459798590E+03  0.47000000000E+01 0.  1.
         -5    1    1    2    0  502  0.19573308996E+01 -0.64901847347E+02 -0.19971689485E+03  0.21005953685E+03  0.47000000000E+01 0.  1.
        -11    1    3    3    0    0  0.27351961749E+02  0.46612853486E+02 -0.64770556750E+02  0.84357056275E+02  0.00000000000E+00 0.  1.
         11    1    3    3    0    0  0.69378244266E+02  0.18759239386E+01 -0.27538547440E+03  0.28399651297E+03  0.00000000000E+00 0. -1.
<mgrwt>
<rscale>  0 0.15897778E+03</rscale>
<asrwt>0</asrwt>
<pdfrwt beam="2">  1        2 0.13158043E+00 0.16533155E+03</pdfrwt>
<pdfrwt beam="1">  1       -2 0.42674246E-02 0.16533155E+03</pdfrwt>
<totfact> 0.79018383E+03</totfact>
</mgrwt>
</event>
<event>
 7    1  0.5107591E-006  0.1570309E+03  0.7546771E-02  0.1200405E+00
         -1   -1    0    0    0  501 -0.00000000000E+00  0.00000000000E+00  0.58726142404E+03  0.58726142404E+03  0.00000000000E+00 0.  1.
          1   -1    0    0  501    0  0.00000000000E+00 -0.00000000000E+00 -0.36752004698E+02  0.36752004698E+02  0.00000000000E+00 0. -1.
         23    2    1    2    0    0  0.77980174392E+02  0.54338801621E+02  0.18954224858E+03  0.23036889776E+03  0.90055272464E+02 0.  0.
          5    1    1    2  502    0 -0.33451701254E+02 -0.25920543047E+02  0.17381602368E+02  0.45990226891E+02  0.47000000000E+01 0.  1.
         -5    1    1    2    0  502 -0.44528473138E+02 -0.28418258574E+02  0.34358556839E+03  0.34765430408E+03  0.47000000000E+01 0.  1.
        -11    1    3    3    0    0  0.13548150424E+02  0.31833806818E+02  0.67474916406E+01  0.35248720259E+02  0.00000000000E+00 0. -1.
         11    1    3    3    0    0  0.64432023967E+02  0.22504994803E+02  0.18279475694E+03  0.19512017750E+03  0.00000000000E+00 0.  1.
<mgrwt>
<rscale>  0 0.15005538E+03</rscale>
<asrwt>0</asrwt>
<pdfrwt beam="2">  1        1 0.56541550E-02 0.15703095E+03</pdfrwt>
<pdfrwt beam="1">  1       -1 0.90347905E-01 0.15703095E+03</pdfrwt>
<totfact> 0.17320048E+03</totfact>
</mgrwt>
</event>
<event>
 7    1  0.5107591E-006  0.1384057E+03  0.7546771E-02  0.1228613E+00
          2   -1    0    0  501    0  0.00000000000E+00  0.00000000000E+00  0.17031593919E+03  0.17031593919E+03  0.00000000000E+00 0. -1.
         -2   -1    0    0    0  501 -0.00000000000E+00 -0.00000000000E+00 -0.92394224477E+02  0.92394224477E+02  0.00000000000E+00 0.  1.
         23    2    1    2    0    0 -0.49493787852E+02  0.32881792277E+02  0.65151517024E+02  0.12371660333E+03  0.86776900556E+02 0.  0.
          5    1    1    2  502    0  0.69875042305E+01 -0.38257437608E+02 -0.49584778492E+02  0.63191747925E+02  0.47000000000E+01 0.  1.
         -5    1    1    2    0  502  0.42506283622E+02  0.53756453309E+01  0.62354976177E+02  0.75801812406E+02  0.47000000000E+01 0.  1.
        -11    1    3    3    0    0 -0.70985631844E+02  0.36003935126E+02  0.35980126656E+02  0.87348799574E+02  0.00000000000E+00 0.  1.
         11    1    3    3    0    0  0.21491843992E+02 -0.31221428488E+01  0.29171390369E+02  0.36367803758E+02  0.00000000000E+00 0. -1.
<mgrwt>
<rscale>  0 0.12922309E+03</rscale>
<asrwt>0</asrwt>
<pdfrwt beam="1">  1        2 0.26202452E-01 0.13840568E+03</pdfrwt>
<pdfrwt beam="2">  1       -2 0.14214496E-01 0.13840568E+03</pdfrwt>
<totfact> 0.72505565E+03</totfact>
</mgrwt>
</event>
<event>
 7    1  0.5107591E-006  0.1276438E+03  0.7546771E-02  0.1246357E+00
          1   -1    0    0  501    0  0.00000000000E+00  0.00000000000E+00  0.18087793174E+02  0.18087793174E+02  0.00000000000E+00 0. -1.
         -1   -1    0    0    0  501 -0.00000000000E+00 -0.00000000000E+00 -0.83350505754E+03  0.83350505754E+03  0.00000000000E+00 0.  1.
         23    2    1    2    0    0 -0.17886595576E+02 -0.18692218155E+02 -0.17269981803E+03  0.19632294451E+03  0.89711437813E+02 0.  0.
          5    1    1    2  502    0  0.38227169934E+02  0.60401123520E+02 -0.50046984894E+03  0.50557073881E+03  0.47000000000E+01 0. -1.
         -5    1    1    2    0  502 -0.20340574358E+02 -0.41708905365E+02 -0.14224759740E+03  0.14969916739E+03  0.47000000000E+01 0. -1.
        -11    1    3    3    0    0  0.31187301198E+01 -0.53024125792E+02 -0.99105013648E+02  0.11244148756E+03  0.00000000000E+00 0.  1.
         11    1    3    3    0    0 -0.21005325696E+02  0.34331907637E+02 -0.73594804378E+02  0.83881456956E+02  0.00000000000E+00 0. -1.
<mgrwt>
<rscale>  0 0.11804526E+03</rscale>
<asrwt>0</asrwt>
<pdfrwt beam="1">  1        1 0.27827377E-02 0.12764378E+03</pdfrwt>
<pdfrwt beam="2">  1       -1 0.12823153E+00 0.12764378E+03</pdfrwt>
<totfact> 0.20622519E+03</totfact>
</mgrwt>
</event>
<event>
 7    1  0.5107591E-006  0.1314282E+03  0.7546771E-02  0.1238242E+00
         -1   -1    0    0    0  501 -0.00000000000E+00  0.00000000000E+00  0.21223994649E+03  0.21223994649E+03  0.00000000000E+00 0.  1.
          1   -1    0    0  501    0  0.00000000000E+00 -0.00000000000E+00 -0.10937104559E+03  0.10937104559E+03  0.00000000000E+00 0. -1.
         23    2    1    2    0    0 -0.34029744863E+02 -0.22233783933E+02 -0.56095283905E+02  0.11535148764E+03  0.92232966665E+02 0.  0.
          5    1    1    2  502    0  0.44755728043E+02 -0.29560423554E+02  0.13979266775E+03  0.14980311676E+03  0.47000000000E+01 0. -1.
         -5    1    1    2    0  502 -0.10725983179E+02  0.51794207488E+02  0.19171517057E+02  0.56456387687E+02  0.47000000000E+01 0. -1.
        -11    1    3    3    0    0 -0.11514482525E+01  0.24280711866E+02  0.11554705304E+02  0.26914494542E+02  0.00000000000E+00 0.  1.
         11    1    3    3    0    0 -0.32878296611E+02 -0.46514495799E+02 -0.67649989209E+02  0.88436993093E+02  0.00000000000E+00 0. -1.
<mgrwt>
<rscale>  0 0.12299128E+03</rscale>
<asrwt>0</asrwt>
<pdfrwt beam="2">  1        1 0.16826315E-01 0.13142820E+03</pdfrwt>
<pdfrwt beam="1">  1       -1 0.32652299E-01 0.13142820E+03</pdfrwt>
<totfact> 0.27297751E+03</totfact>
</mgrwt>
</event>
<event>
 7    1  0.5107591E-006  0.1802157E+03  0.7546771E-02  0.1173628E+00
         -2   -1    0    0    0  501 -0.00000000000E+00  0.00000000000E+00  0.99282404343E+02  0.99282404343E+02  0.00000000000E+00 0.  1.
          2   -1    0    0  501    0  0.00000000000E+00 -0.00000000000E+00 -0.29140879671E+03  0.29140879671E+03  0.00000000000E+00 0. -1.
         23    2    1    2    0    0  0.12478295948E+03  0.35771304189E+02 -0.11524113581E+03  0.19476000012E+03  0.88320807762E+02 0.  0.
          5    1    1    2  502    0 -0.49672451008E+02  0.41215639682E+02 -0.57437465859E+02  0.86528803458E+02  0.47000000000E+01 0.  1.
         -5    1    1    2    0  502 -0.75110508475E+02 -0.76986943871E+02 -0.19447790699E+02  0.10940239747E+03  0.47000000000E+01 0.  1.
        -11    1    3    3    0    0  0.35277496533E+02 -0.29145204365E+02 -0.25704236096E+02  0.52484783056E+02  0.00000000000E+00 0.  1.
         11    1    3    3    0    0  0.89505462950E+02  0.64916508554E+02 -0.89536899712E+02  0.14227521706E+03  0.00000000000E+00 0. -1.
<mgrwt>
<rscale>  0 0.17410996E+03</rscale>
<asrwt>0</asrwt>
<pdfrwt beam="2">  1        2 0.44832122E-01 0.18021568E+03</pdfrwt>
<pdfrwt beam="1">  1       -2 0.15274216E-01 0.18021568E+03</pdfrwt>
<totfact> 0.36652277E+03</totfact>
</mgrwt>
</event>
<event>
 7    1  0.5107591E-006  0.1507163E+03  0.7546771E-02  0.1208823E+00
          2   -1    0    0  501    0  0.00000000000E+00  0.00000000000E+00  0.61441055473E+02  0.61441055473E+02  0.00000000000E+00 0. -1.
         -2   -1    0    0    0  501 -0.00000000000E+00 -0.00000000000E+00 -0.31791989439E+03  0.31791989439E+03  0.00000000000E+00 0.  1.
         23    2    1    2    0    0 -0.73236768760E+02  0.41567443563E+02 -0.79457994573E+02  0.14687053570E+03  0.90365395432E+02 0.  0.
          5    1    1    2  502    0  0.17939975499E+02 -0.56599225881E+02 -0.16234224077E+02  0.61732933857E+02  0.47000000000E+01 0. -1.
         -5    1    1    2    0  502  0.55296793261E+02  0.15031782318E+02 -0.16078662026E+03  0.17075748031E+03  0.47000000000E+01 0. -1.
        -11    1    3    3    0    0 -0.29060777815E+02 -0.27857952858E+02 -0.34978528039E+02  0.53330026893E+02  0.00000000000E+00 0.  1.
         11    1    3    3    0    0 -0.44175990945E+02  0.69425396420E+02 -0.44479466534E+02  0.93540508804E+02  0.00000000000E+00 0. -1.
<mgrwt>
<rscale>  0 0.14340201E+03</rscale>
<asrwt>0</asrwt>
<pdfrwt beam="1">  1        2 0.94524700E-02 0.15071633E+03</pdfrwt>
<pdfrwt beam="2">  1       -2 0.48910753E-01 0.15071633E+03</pdfrwt>
<totfact> 0.26704178E+03</totfact>
</mgrwt>
</event>
<event>
 7    1  0.5107591E-006  0.1471971E+03  0.7546771E-02  0.1213349E+00
          1   -1    0    0  501    0  0.00000000000E+00  0.00000000000E+00  0.35731710374E+03  0.35731710374E+03  0.00000000000E+00 0. -1.
         -1   -1    0    0    0  501 -0.00000000000E+00 -0.00000000000E+00 -0.51565062025E+02  0.51565062025E+02  0.00000000000E+00 0.  1.
         23    2    1    2    0    0 -0.68043815652E+02 -0.37578404663E+02  0.17227051184E+03  0.21017558797E+03  0.91948633405E+02 0.  0.
          5    1    1    2  502    0  0.44486470743E+02  0.60809012794E+02  0.16804774886E+02  0.77338687441E+02  0.47000000000E+01 0.  1.
         -5    1    1    2    0  502  0.23557344909E+02 -0.23230608131E+02  0.11667675499E+03  0.12136789036E+03  0.47000000000E+01 0.  1.
        -11    1    3    3    0    0 -0.42186051883E+02  0.24484606350E+02  0.45622833516E+02  0.66787737345E+02  0.00000000000E+00 0.  1.
         11    1    3    3    0    0 -0.25857763769E+02 -0.62063011014E+02  0.12664767832E+03  0.14338785063E+03  0.00000000000E+00 0. -1.
<mgrwt>
<rscale>  0 0.13998545E+03</rscale>
<asrwt>0</asrwt>
<pdfrwt beam="1">  1        1 0.54971861E-01 0.14719710E+03</pdfrwt>
<pdfrwt beam="2">  1       -1 0.79330867E-02 0.14719710E+03</pdfrwt>
<totfact> 0.58803595E+03</totfact>
</mgrwt>
</event>
<event>
 7    1  0.5107591E-006  0.1558267E+03  0.7546771E-02  0.1201758E+00
         -4   -1    0    0    0  501 -0.00000000000E+00  0.00000000000E+00  0.97576361818E+02  0.97576361818E+02  0.00000000000E+00 0. -1.
          4   -1    0    0  501    0  0.00000000000E+00 -0.00000000000E+00 -0.28473362394E+03  0.28473362394E+03  0.00000000000E+00 0.  1.
         23    2    1    2    0    0 -0.71068850034E+02 -0.60053429200E+02 -0.18536095829E+03  0.22647295465E+03  0.90962181846E+02 0.  0.
          5    1    1    2  502    0  0.98023013656E+02  0.43404484413E+02  0.29260658605E+02  0.11122381317E+03  0.47000000000E+01 0. -1.
         -5    1    1    2    0  502 -0.26954163622E+02  0.16648944787E+02 -0.31056962438E+02  0.44613217940E+02  0.47000000000E+01 0. -1.
        -11    1    3    3    0    0 -0.48679638094E+02 -0.84125261166E+02 -0.13570761359E+03  0.16692310540E+03  0.00000000000E+00 0.  1.
         11    1    3    3    0    0 -0.22389211940E+02  0.24071831966E+02 -0.49653344698E+02  0.59549849246E+02  0.00000000000E+00 0. -1.
<mgrwt>
<rscale>  0 0.14895932E+03</rscale>
<asrwt>0</asrwt>
<pdfrwt beam="2">  1        4 0.43805173E-01 0.15582668E+03</pdfrwt>
<pdfrwt beam="1">  1       -4 0.15011748E-01 0.15582668E+03</pdfrwt>
<totfact> 0.32584585E+02</totfact>
</mgrwt>
</event>
<event>
 7    1  0.5107591E-006  0.2434866E+03  0.7546771E-02  0.1120360E+00
          3   -1    0    0  501    0  0.00000000000E+00  0.00000000000E+00  0.14922207114E+03  0.14922207114E+03  0.00000000000E+00 0. -1.
         -3   -1    0    0    0  501 -0.00000000000E+00 -0.00000000000E+00 -0.67369325237E+03  0.67369325237E+03  0.00000000000E+00 0.  1.
         23    2    1    2    0    0  0.20780742847E+03  0.21840878035E+02  0.18998919659E+02  0.22739414929E+03  0.87670912534E+02 0.  0.
          5    1    1    2  502    0 -0.18454541811E+03  0.20640472988E+02 -0.35249706890E+03  0.39844612440E+03  0.47000000000E+01 0. -1.
         -5    1    1    2    0  502 -0.23262010360E+02 -0.42481351023E+02 -0.19097303199E+03  0.19707504981E+03  0.47000000000E+01 0. -1.
        -11    1    3    3    0    0  0.16524294339E+03 -0.20174846664E+02  0.19298796488E+02  0.16758489885E+03  0.00000000000E+00 0. -1.
         11    1    3    3    0    0  0.42564485078E+02  0.42015724699E+02 -0.29987682954E+00  0.59809250439E+02  0.00000000000E+00 0.  1.
<mgrwt>
<rscale>  0 0.23915024E+03</rscale>
<asrwt>0</asrwt>
<pdfrwt beam="1">  1        3 0.22957241E-01 0.24348659E+03</pdfrwt>
<pdfrwt beam="2">  1       -3 0.10364512E+00 0.24348659E+03</pdfrwt>
<totfact> 0.36140379E+01</totfact>
</mgrwt>
</event>
<event>
 7    1  0.5107591E-006  0.1960602E+03  0.7546771E-02  0.1157818E+00
          2   -1    0    0  501    0  0.00000000000E+00  0.00000000000E+00  0.44019723816E+03  0.44019723816E+03  0.00000000000E+00 0. -1.
         -2   -1    0    0    0  501 -0.00000000000E+00 -0.00000000000E+00 -0.78753778997E+02  0.78753778997E+02  0.00000000000E+00 0.  1.
         23    2    1    2    0    0  0.13051675976E+03  0.76023366534E+02  0.18760475639E+03  0.25692147792E+03  0.89436705883E+02 0.  0.
          5    1    1    2  502    0 -0.12641508532E+03 -0.46140732939E+02  0.18561188160E+03  0.22931114588E+03  0.47000000000E+01 0.  1.
         -5    1    1    2    0  502 -0.41016744387E+01 -0.29882633595E+02 -0.11773178835E+02  0.32718393354E+02  0.47000000000E+01 0.  1.
        -11    1    3    3    0    0  0.20447428075E+02 -0.11669373170E+02  0.68904266465E+02  0.72815311042E+02  0.00000000000E+00 0. -1.
         11    1    3    3    0    0  0.11006933168E+03  0.87692739704E+02  0.11870048993E+03  0.18410616688E+03  0.00000000000E+00 0.  1.
<mgrwt>
<rscale>  0 0.19071460E+03</rscale>
<asrwt>0</asrwt>
<pdfrwt beam="1">  1        2 0.67722651E-01 0.19606016E+03</pdfrwt>
<pdfrwt beam="2">  1       -2 0.12115966E-01 0.19606016E+03</pdfrwt>
<totfact> 0.34409046E+03</totfact>
</mgrwt>
</event>
<event>
 7    1  0.5107591E-006  0.1461080E+03  0.7546771E-02  0.1224916E+00
         -1   -1    0    0    0  501 -0.00000000000E+00  0.00000000000E+00  0.13225374695E+03  0.13225374695E+03  0.00000000000E+00 0.  1.
          1   -1    0    0  501    0  0.00000000000E+00 -0.00000000000E+00 -0.11158901965E+03  0.11158901965E+03  0.00000000000E+00 0. -1.
         23    2    1    2    0    0  0.74040816925E+02  0.15500834318E+02  0.20508542809E+01  0.96553876917E+02  0.59967713888E+02 0.  0.
          5    1    1    2  502    0 -0.63888875979E+02 -0.67031966043E+02  0.51401938701E+01  0.92863257203E+02  0.47000000000E+01 0.  1.
         -5    1    1    2    0  502 -0.10151940946E+02  0.51531131725E+02  0.13473679151E+02  0.54425632487E+02  0.47000000000E+01 0.  1.
        -11    1    3    3    0    0  0.58264197555E+02  0.49300509139E+01  0.27649538331E+02  0.64680129010E+02  0.00000000000E+00 0.  1.
         11    1    3    3    0    0  0.15776619369E+02  0.10570783404E+02 -0.25598684051E+02  0.31873747907E+02  0.00000000000E+00 0. -1.
<mgrwt>
<rscale>  0 0.13172657E+03</rscale>
<asrwt>0</asrwt>
<pdfrwt beam="2">  1        1 0.17167541E-01 0.14610798E+03</pdfrwt>
<pdfrwt beam="1">  1       -1 0.20346730E-01 0.14610798E+03</pdfrwt>
<totfact> 0.58436511E+03</totfact>
</mgrwt>
</event>
<event>
 7    1  0.5107591E-006  0.1308071E+03  0.7546771E-02  0.1240278E+00
         -1   -1    0    0    0  501 -0.00000000000E+00  0.00000000000E+00  0.62184763104E+02  0.62184763104E+02  0.00000000000E+00 0.  1.
          1   -1    0    0  501    0  0.00000000000E+00 -0.00000000000E+00 -0.30344973422E+03  0.30344973422E+03  0.00000000000E+00 0. -1.
         23    2    1    2    0    0 -0.34736029200E+02  0.16687579282E+02 -0.20904920393E+03  0.23091871531E+03  0.90204303622E+02 0.  0.
          5    1    1    2  502    0 -0.32115029006E+02  0.20016821266E+02 -0.43085913680E+02  0.57537241673E+02  0.47000000000E+01 0. -1.
         -5    1    1    2    0  502  0.66851058206E+02 -0.36704400548E+02  0.10870146498E+02  0.77178540332E+02  0.47000000000E+01 0. -1.
        -11    1    3    3    0    0  0.17634797088E+02 -0.24381816583E+02 -0.84583668465E+02  0.89776700870E+02  0.00000000000E+00 0. -1.
         11    1    3    3    0    0 -0.52370826288E+02  0.41069395865E+02 -0.12446553546E+03  0.14114201444E+03  0.00000000000E+00 0.  1.
<mgrwt>
<rscale>  0 0.12172531E+03</rscale>
<asrwt>0</asrwt>
<pdfrwt beam="2">  1        1 0.46684574E-01 0.13080706E+03</pdfrwt>
<pdfrwt beam="1">  1       -1 0.95668867E-02 0.13080706E+03</pdfrwt>
<totfact> 0.53876071E+03</totfact>
</mgrwt>
</event>
<event>
 7    1  0.5107591E-006  0.1725538E+03  0.7546771E-02  0.1188726E+00
          2   -1    0    0  501    0  0.00000000000E+00  0.00000000000E+00  0.13950441082E+04  0.13950441082E+04  0.00000000000E+00 0. -1.
         -2   -1    0    0    0  501 -0.00000000000E+00 -0.00000000000E+00 -0.16145567852E+02  0.16145567852E+02  0.00000000000E+00 0.  1.
         23    2    1    2    0    0  0.88251116324E+02  0.11355997930E+01  0.60643226862E+03  0.61968544571E+03  0.91980465765E+02 0.  0.
          5    1    1    2  502    0 -0.32886392397E+02 -0.55447417903E+02  0.58519613398E+03  0.58875507317E+03  0.47000000000E+01 0. -1.
         -5    1    1    2    0  502 -0.55364723928E+02  0.54311818110E+02  0.18727013775E+03  0.20274915717E+03  0.47000000000E+01 0.  1.
        -11    1    3    3    0    0  0.11630083298E+02 -0.36600853167E+02  0.12608750003E+03  0.13180644503E+03  0.00000000000E+00 0. -1.
         11    1    3    3    0    0  0.76621033027E+02  0.37736452960E+02  0.48034476860E+03  0.48787900068E+03  0.00000000000E+00 0.  1.
<mgrwt>
<rscale>  0 0.15997417E+03</rscale>
<asrwt>0</asrwt>
<pdfrwt beam="1">  1        2 0.21462208E+00 0.17255378E+03</pdfrwt>
<pdfrwt beam="2">  1       -2 0.24839346E-02 0.17255378E+03</pdfrwt>
<totfact> 0.85908533E+03</totfact>
</mgrwt>
</event>
<event>
 7    1  0.5107591E-006  0.1499834E+03  0.7546771E-02  0.1209854E+00
         -4   -1    0    0    0  501 -0.00000000000E+00  0.00000000000E+00  0.51876259449E+03  0.51876259449E+03  0.00000000000E+00 0.  1.
          4   -1    0    0  501    0  0.00000000000E+00 -0.00000000000E+00 -0.36257695287E+02  0.36257695287E+02  0.00000000000E+00 0. -1.
         23    2    1    2    0    0  0.40791010190E+02  0.72156598322E+02  0.18662170774E+03  0.22329466355E+03  0.90345801102E+02 0.  0.
          5    1    1    2  502    0 -0.82289545934E+02 -0.29510741760E+02  0.20596097382E+03  0.22379558974E+03  0.47000000000E+01 0.  1.
         -5    1    1    2    0  502  0.41498535744E+02 -0.42645856562E+02  0.89922217649E+02  0.10793003649E+03  0.47000000000E+01 0.  1.
        -11    1    3    3    0    0  0.26337368924E+02  0.71414983109E+00  0.39806970520E+01  0.26646068394E+02  0.00000000000E+00 0. -1.
         11    1    3    3    0    0  0.14453641266E+02  0.71442448491E+02  0.18264101069E+03  0.19664859516E+03  0.00000000000E+00 0.  1.
<mgrwt>
<rscale>  0 0.14261414E+03</rscale>
<asrwt>0</asrwt>
<pdfrwt beam="2">  1        4 0.55781074E-02 0.14998343E+03</pdfrwt>
<pdfrwt beam="1">  1       -4 0.79809624E-01 0.14998343E+03</pdfrwt>
<totfact> 0.48377520E+02</totfact>
</mgrwt>
</event>
<event>
 7    1  0.5107591E-006  0.1935711E+03  0.7546771E-02  0.1160490E+00
          2   -1    0    0  501    0  0.00000000000E+00  0.00000000000E+00  0.62681889912E+03  0.62681889912E+03  0.00000000000E+00 0. -1.
         -2   -1    0    0    0  501 -0.00000000000E+00 -0.00000000000E+00 -0.53968380722E+02  0.53968380722E+02  0.00000000000E+00 0.  1.
         23    2    1    2    0    0 -0.13476386551E+03  0.60687384263E+02  0.22672525974E+03  0.28421136882E+03  0.86761170488E+02 0.  0.
          5    1    1    2  502    0  0.13639206374E+03 -0.26701340856E+02  0.18282061386E+03  0.22969811386E+03  0.47000000000E+01 0.  1.
         -5    1    1    2    0  502 -0.16281982300E+01 -0.33986043407E+02  0.16330464480E+03  0.16687779717E+03  0.47000000000E+01 0.  1.
        -11    1    3    3    0    0 -0.35140238677E+02  0.38776921956E+02  0.24639896921E+02  0.57841253193E+02  0.00000000000E+00 0.  1.
         11    1    3    3    0    0 -0.99623626836E+02  0.21910462307E+02  0.20208536282E+03  0.22637011562E+03  0.00000000000E+00 0. -1.
<mgrwt>
<rscale>  0 0.18776800E+03</rscale>
<asrwt>0</asrwt>
<pdfrwt beam="1">  1        2 0.96433672E-01 0.19357107E+03</pdfrwt>
<pdfrwt beam="2">  1       -2 0.83028282E-02 0.19357107E+03</pdfrwt>
<totfact> 0.42082115E+03</totfact>
</mgrwt>
</event>
<event>
 7    1  0.5107591E-006  0.1640414E+03  0.7546771E-02  0.1191574E+00
          2   -1    0    0  501    0  0.00000000000E+00  0.00000000000E+00  0.60145331587E+03  0.60145331587E+03  0.00000000000E+00 0. -1.
         -2   -1    0    0    0  501 -0.00000000000E+00 -0.00000000000E+00 -0.44827286097E+02  0.44827286097E+02  0.00000000000E+00 0.  1.
         23    2    1    2    0    0 -0.10567657701E+03 -0.10818032443E+02  0.38236190250E+03  0.40695325672E+03  0.90142997064E+02 0.  0.
          5    1    1    2  502    0  0.12150504428E+03  0.67965473406E+01  0.18330816051E+03  0.22007644251E+03  0.47000000000E+01 0. -1.
         -5    1    1    2    0  502 -0.15828467268E+02  0.40214851027E+01 -0.90440332378E+01  0.19250902724E+02  0.47000000000E+01 0. -1.
        -11    1    3    3    0    0 -0.83248006137E+02  0.27568457681E+02  0.18621103689E+03  0.20582711348E+03  0.00000000000E+00 0. -1.
         11    1    3    3    0    0 -0.22428570876E+02 -0.38386490125E+02  0.19615086561E+03  0.20112614325E+03  0.00000000000E+00 0.  1.
<mgrwt>
<rscale>  0 0.15747778E+03</rscale>
<asrwt>0</asrwt>
<pdfrwt beam="1">  1        2 0.92531274E-01 0.16404143E+03</pdfrwt>
<pdfrwt beam="2">  1       -2 0.68965060E-02 0.16404143E+03</pdfrwt>
<totfact> 0.58425478E+03</totfact>
</mgrwt>
</event>
<event>
 7    1  0.5107591E-006  0.1315810E+03  0.7546771E-02  0.1241737E+00
         -2   -1    0    0    0  501 -0.00000000000E+00  0.00000000000E+00  0.42500251260E+02  0.42500251260E+02  0.00000000000E+00 0.  1.
          2   -1    0    0  501    0  0.00000000000E+00 -0.00000000000E+00 -0.33202459949E+03  0.33202459949E+03  0.00000000000E+00 0. -1.
         23    2    1    2    0    0  0.34663687428E+02  0.22141677681E+02 -0.18183599203E+03  0.20449441089E+03  0.84034581981E+02 0.  0.
          5    1    1    2  502    0 -0.12896982323E+02  0.35649220311E+02 -0.10070288799E+03  0.10770497069E+03  0.47000000000E+01 0. -1.
         -5    1    1    2    0  502 -0.21766705106E+02 -0.57790897992E+02 -0.69854682104E+01  0.62325469176E+02  0.47000000000E+01 0. -1.
        -11    1    3    3    0    0  0.42288457212E+02 -0.52988509011E+01 -0.35660651388E+02  0.55570437210E+02  0.00000000000E+00 0.  1.
         11    1    3    3    0    0 -0.76247697841E+01  0.27440528582E+02 -0.14617534064E+03  0.14892397368E+03  0.00000000000E+00 0. -1.
<mgrwt>
<rscale>  0 0.12082826E+03</rscale>
<asrwt>0</asrwt>
<pdfrwt beam="2">  1        2 0.51080707E-01 0.13158103E+03</pdfrwt>
<pdfrwt beam="1">  1       -2 0.65385003E-02 0.13158103E+03</pdfrwt>
<totfact> 0.11947031E+04</totfact>
</mgrwt>
</event>
<event>
 7    1  0.5107591E-006  0.1271322E+03  0.7546771E-02  0.1246224E+00
          4   -1    0    0  501    0  0.00000000000E+00  0.00000000000E+00  0.27121128122E+02  0.27121128122E+02  0.00000000000E+00 0.  1.
         -4   -1    0    0    0  501 -0.00000000000E+00 -0.00000000000E+00 -0.50393524818E+03  0.50393524818E+03  0.00000000000E+00 0. -1.
         23    2    1    2    0    0  0.14529774755E+02  0.18052748311E+02 -0.12415106177E+03  0.15617795111E+03  0.91875188143E+02 0.  0.
          5    1    1    2  502    0 -0.33240637513E+02 -0.66753357995E+02 -0.21130613042E+03  0.22412791335E+03  0.47000000000E+01 0.  1.
         -5    1    1    2    0  502  0.18710862758E+02  0.48700609684E+02 -0.14135692786E+03  0.15075051185E+03  0.47000000000E+01 0.  1.
        -11    1    3    3    0    0  0.93884398931E+01 -0.33336016197E+02 -0.83682254395E+02  0.90565735685E+02  0.00000000000E+00 0. -1.
         11    1    3    3    0    0  0.51413348623E+01  0.51388764508E+02 -0.40468807378E+02  0.65612215421E+02  0.00000000000E+00 0.  1.
<mgrwt>
<rscale>  0 0.11812439E+03</rscale>
<asrwt>0</asrwt>
<pdfrwt beam="1">  1        4 0.41724811E-02 0.12713222E+03</pdfrwt>
<pdfrwt beam="2">  1       -4 0.77528502E-01 0.12713222E+03</pdfrwt>
<totfact> 0.79553194E+02</totfact>
</mgrwt>
</event>
<event>
 7    1  0.5107591E-006  0.1290072E+03  0.7546771E-02  0.1244081E+00
         -2   -1    0    0    0  501 -0.00000000000E+00  0.00000000000E+00  0.25816646796E+02  0.25816646796E+02  0.00000000000E+00 0.  1.
          2   -1    0    0  501    0  0.00000000000E+00 -0.00000000000E+00 -0.49241748326E+03  0.49241748326E+03  0.00000000000E+00 0. -1.
         23    2    1    2    0    0 -0.30922805387E+02 -0.75957304636E+01 -0.23049139264E+03  0.24917924744E+03  0.89163334741E+02 0.  0.
          5    1    1    2  502    0  0.51271290766E+01 -0.21696640517E+02  0.61713425995E+01  0.23605235262E+02  0.47000000000E+01 0.  1.
         -5    1    1    2    0  502  0.25795676310E+02  0.29292370980E+02 -0.24228078643E+03  0.24544964736E+03  0.47000000000E+01 0.  1.
        -11    1    3    3    0    0 -0.20053542717E+02 -0.39927761102E+02 -0.57302419465E+02  0.72663181589E+02  0.00000000000E+00 0.  1.
         11    1    3    3    0    0 -0.10869262670E+02  0.32332030638E+02 -0.17318897317E+03  0.17651606585E+03  0.00000000000E+00 0. -1.
<mgrwt>
<rscale>  0 0.11940522E+03</rscale>
<asrwt>0</asrwt>
<pdfrwt beam="2">  1        2 0.75756531E-01 0.12900721E+03</pdfrwt>
<pdfrwt beam="1">  1       -2 0.39717921E-02 0.12900721E+03</pdfrwt>
<totfact> 0.16533411E+04</totfact>
</mgrwt>
</event>
<event>
 7    1  0.5107591E-006  0.1549286E+03  0.7546771E-02  0.1201340E+00
          1   -1    0    0  501    0  0.00000000000E+00  0.00000000000E+00  0.93357537928E+03  0.93357537928E+03  0.00000000000E+00 0. -1.
         -1   -1    0    0    0  501 -0.00000000000E+00 -0.00000000000E+00 -0.22300095210E+02  0.22300095210E+02  0.00000000000E+00 0.  1.
         23    2    1    2    0    0  0.46688983509E+02  0.78745966982E+02  0.41352215980E+03  0.43456842728E+03  0.97305461550E+02 0.  0.
          5    1    1    2  502    0 -0.82171431438E+00 -0.61835042060E+02  0.82766294220E+02  0.10342435448E+03  0.47000000000E+01 0.  1.
         -5    1    1    2    0  502 -0.45867269194E+02 -0.16910924922E+02  0.41498683005E+03  0.41788269273E+03  0.47000000000E+01 0.  1.
        -11    1    3    3    0    0  0.33875141517E+02  0.10127027716E+03  0.35112562283E+03  0.36700462839E+03  0.00000000000E+00 0.  1.
         11    1    3    3    0    0  0.12813841992E+02 -0.22524310175E+02  0.62396536963E+02  0.67563798890E+02  0.00000000000E+00 0. -1.
<mgrwt>
<rscale>  0 0.14929691E+03</rscale>
<asrwt>0</asrwt>
<pdfrwt beam="1">  1        1 0.14362695E+00 0.15492858E+03</pdfrwt>
<pdfrwt beam="2">  1       -1 0.34307846E-02 0.15492858E+03</pdfrwt>
<totfact> 0.54388050E+03</totfact>
</mgrwt>
</event>
<event>
 7    1  0.5107591E-006  0.1360405E+03  0.7546771E-02  0.1232251E+00
         -2   -1    0    0    0  501 -0.00000000000E+00  0.00000000000E+00  0.63266108115E+02  0.63266108115E+02  0.00000000000E+00 0.  1.
          2   -1    0    0  501    0  0.00000000000E+00 -0.00000000000E+00 -0.27154231162E+03  0.27154231162E+03  0.00000000000E+00 0. -1.
         23    2    1    2    0    0 -0.40599621766E+02 -0.35133775541E+02 -0.16060393189E+03  0.19065692284E+03  0.87599816313E+02 0.  0.
          5    1    1    2  502    0  0.24047988574E+02  0.12008165185E+01  0.40934005303E+02  0.47722431884E+02  0.47000000000E+01 0.  1.
         -5    1    1    2    0  502  0.16551633192E+02  0.33932959022E+02 -0.88606276915E+02  0.96429065007E+02  0.47000000000E+01 0.  1.
        -11    1    3    3    0    0 -0.38337923114E+02 -0.61245853674E+02 -0.13912906520E+03  0.15677291770E+03  0.00000000000E+00 0.  1.
         11    1    3    3    0    0 -0.22616986518E+01  0.26112078133E+02 -0.21474866697E+02  0.33884005148E+02  0.00000000000E+00 0. -1.
<mgrwt>
<rscale>  0 0.12682088E+03</rscale>
<asrwt>0</asrwt>
<pdfrwt beam="2">  1        2 0.41775740E-01 0.13604047E+03</pdfrwt>
<pdfrwt beam="1">  1       -2 0.97332474E-02 0.13604047E+03</pdfrwt>
<totfact> 0.80176793E+03</totfact>
</mgrwt>
</event>
<event>
 7    1  0.5107591E-006  0.1327249E+03  0.7546771E-02  0.1235316E+00
         -2   -1    0    0    0  501 -0.00000000000E+00  0.00000000000E+00  0.77695358352E+02  0.77695358352E+02  0.00000000000E+00 0.  1.
          2   -1    0    0  501    0  0.00000000000E+00 -0.00000000000E+00 -0.36453134756E+03  0.36453134756E+03  0.00000000000E+00 0. -1.
         23    2    1    2    0    0 -0.41062448453E+02 -0.17476793853E+02 -0.29145816202E+03  0.30942136800E+03  0.93819826105E+02 0.  0.
          5    1    1    2  502    0  0.74906102462E+02  0.19530711114E+02 -0.30893012840E+02  0.83479584959E+02  0.47000000000E+01 0. -1.
         -5    1    1    2    0  502 -0.33843654009E+02 -0.20539172615E+01  0.35515185650E+02  0.49325752955E+02  0.47000000000E+01 0. -1.
        -11    1    3    3    0    0  0.22284815832E+02 -0.12080804437E+02 -0.25446195899E+02  0.35917512974E+02  0.00000000000E+00 0.  1.
         11    1    3    3    0    0 -0.63347264285E+02 -0.53959894156E+01 -0.26601196612E+03  0.27350385502E+03  0.00000000000E+00 0. -1.
<mgrwt>
<rscale>  0 0.12484198E+03</rscale>
<asrwt>0</asrwt>
<pdfrwt beam="2">  1        2 0.56081747E-01 0.13272488E+03</pdfrwt>
<pdfrwt beam="1">  1       -2 0.11953132E-01 0.13272488E+03</pdfrwt>
<totfact> 0.42338295E+03</totfact>
</mgrwt>
</event>
<event>
 7    1  0.5107591E-006  0.1317218E+03  0.7546771E-02  0.1238219E+00
         -2   -1    0    0    0  501 -0.00000000000E+00  0.00000000000E+00  0.71882714625E+02  0.71882714625E+02  0.00000000000E+00 0.  1.
          2   -1    0    0  501    0  0.00000000000E+00 -0.00000000000E+00 -0.24295893226E+03  0.24295893226E+03  0.00000000000E+00 0. -1.
         23    2    1    2    0    0  0.25103686396E+02  0.33050213132E+02 -0.15157648717E+03  0.18168427811E+03  0.91165968375E+02 0.  0.
          5    1    1    2  502    0 -0.57886171378E+02 -0.61482004720E+02  0.17900657880E+01  0.84593971870E+02  0.47000000000E+01 0.  1.
         -5    1    1    2    0  502  0.32782484983E+02  0.28431791588E+02 -0.21289796251E+02  0.48563396905E+02  0.47000000000E+01 0.  1.
        -11    1    3    3    0    0 -0.28213489678E+02  0.16792904696E+02 -0.19161375734E+02  0.38015272826E+02  0.00000000000E+00 0.  1.
         11    1    3    3    0    0  0.53317176074E+02  0.16257308436E+02 -0.13241511144E+03  0.14366900528E+03  0.00000000000E+00 0. -1.
<mgrwt>
<rscale>  0 0.12300599E+03</rscale>
<asrwt>0</asrwt>
<pdfrwt beam="2">  1        2 0.37378297E-01 0.13172185E+03</pdfrwt>
<pdfrwt beam="1">  1       -2 0.11058879E-01 0.13172185E+03</pdfrwt>
<totfact> 0.73633253E+03</totfact>
</mgrwt>
</event>
<event>
 7    1  0.5107591E-006  0.3576488E+03  0.7546771E-02  0.1060644E+00
         -1   -1    0    0    0  501 -0.00000000000E+00  0.00000000000E+00  0.18116654344E+03  0.18116654344E+03  0.00000000000E+00 0.  1.
          1   -1    0    0  501    0  0.00000000000E+00 -0.00000000000E+00 -0.79735506118E+03  0.79735506118E+03  0.00000000000E+00 0. -1.
         23    2    1    2    0    0 -0.16771991461E+03  0.29009992260E+03 -0.48811658700E+03  0.59863331892E+03  0.88408784415E+02 0.  0.
          5    1    1    2  502    0  0.15791264820E+02 -0.20118378105E+02  0.23428691533E+02  0.35001525240E+02  0.47000000000E+01 0.  1.
         -5    1    1    2    0  502  0.15192864979E+03 -0.26998154449E+03 -0.15150062227E+03  0.34488676046E+03  0.47000000000E+01 0.  1.
        -11    1    3    3    0    0 -0.10159606900E+03  0.90794346161E+02 -0.20469108000E+03  0.24589390550E+03  0.00000000000E+00 0.  1.
         11    1    3    3    0    0 -0.66123845613E+02  0.19930557644E+03 -0.28342550700E+03  0.35273941342E+03  0.00000000000E+00 0. -1.
<mgrwt>
<rscale>  0 0.35484388E+03</rscale>
<asrwt>0</asrwt>
<pdfrwt beam="2">  1        1 0.12267001E+00 0.35764884E+03</pdfrwt>
<pdfrwt beam="1">  1       -1 0.27871776E-01 0.35764884E+03</pdfrwt>
<totfact> 0.26806444E+02</totfact>
</mgrwt>
</event>
<event>
 7    1  0.5107591E-006  0.1252413E+03  0.7546771E-02  0.1248200E+00
          1   -1    0    0  501    0  0.00000000000E+00  0.00000000000E+00  0.20114869702E+02  0.20114869702E+02  0.00000000000E+00 0. -1.
         -1   -1    0    0    0  501 -0.00000000000E+00 -0.00000000000E+00 -0.84930711523E+03  0.84930711523E+03  0.00000000000E+00 0.  1.
         23    2    1    2    0    0  0.39323097280E+01 -0.26848307577E+02 -0.14252172117E+03  0.17142357158E+03  0.91308845181E+02 0.  0.
          5    1    1    2  502    0  0.51533704128E+02  0.32234862385E+02 -0.23103684757E+03  0.23894544136E+03  0.47000000000E+01 0. -1.
         -5    1    1    2    0  502 -0.55466013856E+02 -0.53865548072E+01 -0.45563367679E+03  0.45905297199E+03  0.47000000000E+01 0.  1.
        -11    1    3    3    0    0  0.42199664882E+01 -0.59714255537E+02 -0.10972168819E+03  0.12498979675E+03  0.00000000000E+00 0. -1.
         11    1    3    3    0    0 -0.28765676016E+00  0.32865947960E+02 -0.32800032975E+02  0.46433774829E+02  0.00000000000E+00 0.  1.
<mgrwt>
<rscale>  0 0.11695884E+03</rscale>
<asrwt>0</asrwt>
<pdfrwt beam="1">  1        1 0.30945958E-02 0.12524127E+03</pdfrwt>
<pdfrwt beam="2">  1       -1 0.13066261E+00 0.12524127E+03</pdfrwt>
<totfact> 0.16997659E+03</totfact>
</mgrwt>
</event>
<event>
 7    1  0.5107591E-006  0.1606219E+03  0.7546771E-02  0.1195505E+00
          2   -1    0    0  501    0  0.00000000000E+00  0.00000000000E+00  0.50839088851E+02  0.50839088851E+02  0.00000000000E+00 0. -1.
         -2   -1    0    0    0  501 -0.00000000000E+00 -0.00000000000E+00 -0.43307172554E+03  0.43307172554E+03  0.00000000000E+00 0.  1.
         23    2    1    2    0    0 -0.92938728644E+02  0.39189797747E+02 -0.17401862695E+03  0.22094226281E+03  0.91430593584E+02 0.  0.
          5    1    1    2  502    0 -0.13117549398E+02 -0.42258518627E+02 -0.24579507358E+02  0.50833991390E+02  0.47000000000E+01 0.  1.
         -5    1    1    2    0  502  0.10605627804E+03  0.30687208799E+01 -0.18363450238E+03  0.21213456018E+03  0.47000000000E+01 0.  1.
        -11    1    3    3    0    0 -0.88637665567E+02  0.64952489013E+02 -0.13671885535E+03  0.17540669028E+03  0.00000000000E+00 0. -1.
         11    1    3    3    0    0 -0.43010630765E+01 -0.25762691266E+02 -0.37299771602E+02  0.45535572538E+02  0.00000000000E+00 0.  1.
<mgrwt>
<rscale>  0 0.15411564E+03</rscale>
<asrwt>0</asrwt>
<pdfrwt beam="1">  1        2 0.78213982E-02 0.16062187E+03</pdfrwt>
<pdfrwt beam="2">  1       -2 0.66626420E-01 0.16062187E+03</pdfrwt>
<totfact> 0.18086122E+03</totfact>
</mgrwt>
</event>
<event>
 7    1  0.5107591E-006  0.1395314E+03  0.7546771E-02  0.1228124E+00
         -2   -1    0    0    0  501 -0.00000000000E+00  0.00000000000E+00  0.44712591049E+03  0.44712591049E+03  0.00000000000E+00 0.  1.
          2   -1    0    0  501    0  0.00000000000E+00 -0.00000000000E+00 -0.47459402365E+02  0.47459402365E+02  0.00000000000E+00 0. -1.
         23    2    1    2    0    0  0.49578713877E+02  0.33433412711E+01  0.44209212243E+02  0.11272289736E+03  0.91009726637E+02 0.  0.
          5    1    1    2  502    0 -0.61676705976E+02  0.43295143644E+02  0.12226947694E+03  0.14370247219E+03  0.47000000000E+01 0. -1.
         -5    1    1    2    0  502  0.12097992100E+02 -0.46638484915E+02  0.23318781895E+03  0.23815994330E+03  0.47000000000E+01 0.  1.
        -11    1    3    3    0    0 -0.14568921860E+02 -0.28116953536E+02  0.19157809310E+02  0.37011325535E+02  0.00000000000E+00 0.  1.
         11    1    3    3    0    0  0.64147635737E+02  0.31460294807E+02  0.25051402933E+02  0.75711571829E+02  0.00000000000E+00 0. -1.
<mgrwt>
<rscale>  0 0.12955081E+03</rscale>
<asrwt>0</asrwt>
<pdfrwt beam="2">  1        2 0.73014468E-02 0.13953141E+03</pdfrwt>
<pdfrwt beam="1">  1       -2 0.68788599E-01 0.13953141E+03</pdfrwt>
<totfact> 0.18309424E+03</totfact>
</mgrwt>
</event>
<event>
 7    1  0.5107591E-006  0.1978144E+03  0.7546771E-02  0.1154700E+00
         -2   -1    0    0    0  501 -0.00000000000E+00  0.00000000000E+00  0.42144377788E+02  0.42144377788E+02  0.00000000000E+00 0.  1.
          2   -1    0    0  501    0  0.00000000000E+00 -0.00000000000E+00 -0.86431211059E+03  0.86431211059E+03  0.00000000000E+00 0. -1.
         23    2    1    2    0    0  0.80244799915E+01  0.15309198449E+03 -0.40181893764E+03  0.44188825410E+03  0.10151464168E+03 0.  0.
          5    1    1    2  502    0 -0.26753881094E+02 -0.88451994081E+02 -0.36721712251E+03  0.37869516827E+03  0.47000000000E+01 0. -1.
         -5    1    1    2    0  502  0.18729401102E+02 -0.64639990406E+02 -0.53131672657E+02  0.85873066003E+02  0.47000000000E+01 0. -1.
        -11    1    3    3    0    0  0.21823806006E+02 -0.68993181874E+01 -0.41208559747E+02  0.47138354835E+02  0.00000000000E+00 0.  1.
         11    1    3    3    0    0 -0.13799326015E+02  0.15999130267E+03 -0.36061037789E+03  0.39474989927E+03  0.00000000000E+00 0. -1.
<mgrwt>
<rscale>  0 0.19423115E+03</rscale>
<asrwt>0</asrwt>
<pdfrwt beam="2">  1        2 0.13297108E+00 0.19781439E+03</pdfrwt>
<pdfrwt beam="1">  1       -2 0.64837512E-02 0.19781439E+03</pdfrwt>
<totfact> 0.41627100E+03</totfact>
</mgrwt>
</event>
<event>
 7    1  0.5107591E-006  0.1399925E+03  0.7546771E-02  0.1223786E+00
         -1   -1    0    0    0  501 -0.00000000000E+00  0.00000000000E+00  0.71348588670E+02  0.71348588670E+02  0.00000000000E+00 0.  1.
          1   -1    0    0  501    0  0.00000000000E+00 -0.00000000000E+00 -0.22529363629E+03  0.22529363629E+03  0.00000000000E+00 0. -1.
         23    2    1    2    0    0  0.62957948331E+02  0.27874258623E+01 -0.83060818457E+02  0.13972673508E+03  0.93021438023E+02 0.  0.
          5    1    1    2  502    0 -0.66442123411E+02 -0.55634355767E+02 -0.42209363409E+02  0.96506257125E+02  0.47000000000E+01 0. -1.
         -5    1    1    2    0  502  0.34841750791E+01  0.52846929904E+02 -0.28674865756E+02  0.60409232758E+02  0.47000000000E+01 0. -1.
        -11    1    3    3    0    0  0.50799272669E+02  0.27768720279E+02 -0.93562219510E+02  0.11002525551E+03  0.00000000000E+00 0. -1.
         11    1    3    3    0    0  0.12158675663E+02 -0.24981294417E+02  0.10501401054E+02  0.29701479571E+02  0.00000000000E+00 0.  1.
<mgrwt>
<rscale>  0 0.13250436E+03</rscale>
<asrwt>0</asrwt>
<pdfrwt beam="2">  1        1 0.34660559E-01 0.13999249E+03</pdfrwt>
<pdfrwt beam="1">  1       -1 0.10976706E-01 0.13999249E+03</pdfrwt>
<totfact> 0.63373997E+03</totfact>
</mgrwt>
</event>
<event>
 7    1  0.5107591E-006  0.1298428E+03  0.7546771E-02  0.1235715E+00
         -2   -1    0    0    0  501 -0.00000000000E+00  0.00000000000E+00  0.25180283604E+02  0.25180283604E+02  0.00000000000E+00 0.  1.
          2   -1    0    0  501    0  0.00000000000E+00 -0.00000000000E+00 -0.60474351214E+03  0.60474351214E+03  0.00000000000E+00 0. -1.
         23    2    1    2    0    0  0.26859329065E+02 -0.22639892030E+02 -0.34089176995E+03  0.35821951534E+03  0.10430740188E+03 0.  0.
          5    1    1    2  502    0  0.25052225103E+01  0.55398652959E+02 -0.21385049932E+03  0.22097378340E+03  0.47000000000E+01 0. -1.
         -5    1    1    2    0  502 -0.29364551576E+02 -0.32758760929E+02 -0.24820959266E+02  0.50730496999E+02  0.47000000000E+01 0. -1.
        -11    1    3    3    0    0 -0.28127147903E+02 -0.41976248656E+02 -0.13174005250E+03  0.14109777934E+03  0.00000000000E+00 0. -1.
         11    1    3    3    0    0  0.54986476969E+02  0.19336356626E+02 -0.20915171744E+03  0.21712173601E+03  0.00000000000E+00 0.  1.
<mgrwt>
<rscale>  0 0.12458749E+03</rscale>
<asrwt>0</asrwt>
<pdfrwt beam="2">  1        2 0.93037458E-01 0.12984279E+03</pdfrwt>
<pdfrwt beam="1">  1       -2 0.38738900E-02 0.12984279E+03</pdfrwt>
<totfact> 0.13654444E+04</totfact>
</mgrwt>
</event>
<event>
 7    1  0.5107591E-006  0.1747687E+03  0.7546771E-02  0.1195904E+00
         -1   -1    0    0    0  501 -0.00000000000E+00  0.00000000000E+00  0.12329498012E+03  0.12329498012E+03  0.00000000000E+00 0.  1.
          1   -1    0    0  501    0  0.00000000000E+00 -0.00000000000E+00 -0.24611963425E+03  0.24611963425E+03  0.00000000000E+00 0. -1.
         23    2    1    2    0    0  0.90018756166E+01  0.52856540573E+02 -0.15951083677E+03  0.19083696745E+03  0.90001074745E+02 0.  0.
          5    1    1    2  502    0  0.78193746864E+02 -0.34030364571E+02  0.16202734726E+02  0.86930698686E+02  0.47000000000E+01 0. -1.
         -5    1    1    2    0  502 -0.87195622481E+02 -0.18826176002E+02  0.20483447912E+02  0.91646948236E+02  0.47000000000E+01 0.  1.
        -11    1    3    3    0    0  0.18719232907E+01 -0.24629113692E+02 -0.23239139372E+02  0.33913934257E+02  0.00000000000E+00 0.  1.
         11    1    3    3    0    0  0.71299523259E+01  0.77485654265E+02 -0.13627169739E+03  0.15692303320E+03  0.00000000000E+00 0. -1.
<mgrwt>
<rscale>  0 0.15377953E+03</rscale>
<asrwt>0</asrwt>
<pdfrwt beam="2">  1        1 0.37864558E-01 0.17476870E+03</pdfrwt>
<pdfrwt beam="1">  1       -1 0.18968459E-01 0.17476870E+03</pdfrwt>
<totfact> 0.24334094E+03</totfact>
</mgrwt>
</event>
<event>
 7    1  0.5107591E-006  0.8357285E+03  0.7546771E-02  0.9509694E-01
          2   -1    0    0  501    0  0.00000000000E+00  0.00000000000E+00  0.64685819103E+03  0.64685819103E+03  0.00000000000E+00 0. -1.
         -2   -1    0    0    0  501 -0.00000000000E+00 -0.00000000000E+00 -0.26993635959E+03  0.26993635959E+03  0.00000000000E+00 0.  1.
         23    2    1    2    0    0  0.20841918546E+03 -0.66422232628E+02  0.10762965384E+03  0.25794143871E+03  0.84256593596E+02 0.  0.
          5    1    1    2  502    0 -0.23887801849E+03 -0.10722921558E+02  0.42197195692E+03  0.48503619576E+03  0.47000000000E+01 0. -1.
         -5    1    1    2    0  502  0.30458833028E+02  0.77145154186E+02 -0.15267977933E+03  0.17381691615E+03  0.47000000000E+01 0.  1.
        -11    1    3    3    0    0  0.72887620705E+02 -0.54784342652E+02  0.74973044987E+02  0.11804612203E+03  0.00000000000E+00 0. -1.
         11    1    3    3    0    0  0.13553156475E+03 -0.11637889976E+02  0.32656608856E+02  0.13989531668E+03  0.00000000000E+00 0.  1.
<mgrwt>
<rscale>  0 0.83572853E+03</rscale>
<asrwt>0</asrwt>
<pdfrwt beam="1">  1        2 0.99516644E-01 0.83572853E+03</pdfrwt>
<pdfrwt beam="2">  1       -2 0.41528671E-01 0.83572853E+03</pdfrwt>
<totfact> 0.24973301E+02</totfact>
</mgrwt>
</event>
<event>
 7    1  0.5107591E-006  0.1912330E+03  0.7546771E-02  0.1186597E+00
          2   -1    0    0  501    0  0.00000000000E+00  0.00000000000E+00  0.26295476593E+03  0.26295476593E+03  0.00000000000E+00 0. -1.
         -2   -1    0    0    0  501 -0.00000000000E+00 -0.00000000000E+00 -0.12052862327E+03  0.12052862327E+03  0.00000000000E+00 0.  1.
         23    2    1    2    0    0 -0.21750241184E+02  0.10588492486E+02  0.16389206920E+03  0.19104940401E+03  0.95152904637E+02 0.  0.
          5    1    1    2  502    0  0.24228145385E+02  0.67195334951E+02  0.49480433931E+02  0.87020798721E+02  0.47000000000E+01 0. -1.
         -5    1    1    2    0  502 -0.24779042008E+01 -0.77783827437E+02 -0.70946360465E+02  0.10541318648E+03  0.47000000000E+01 0.  1.
        -11    1    3    3    0    0  0.18256376417E+02 -0.24598058065E+02  0.11404763157E+03  0.11808988952E+03  0.00000000000E+00 0.  1.
         11    1    3    3    0    0 -0.40006617601E+02  0.35186550551E+02  0.49844437627E+02  0.72959514485E+02  0.00000000000E+00 0. -1.
<mgrwt>
<rscale>  0 0.16187418E+03</rscale>
<asrwt>0</asrwt>
<pdfrwt beam="1">  1        2 0.40454579E-01 0.19123298E+03</pdfrwt>
<pdfrwt beam="2">  1       -2 0.18542865E-01 0.19123298E+03</pdfrwt>
<totfact> 0.29687974E+03</totfact>
</mgrwt>
</event>
<event>
 7    1  0.5107591E-006  0.1277135E+03  0.7546771E-02  0.1245015E+00
          1   -1    0    0  501    0  0.00000000000E+00  0.00000000000E+00  0.57689077600E+03  0.57689077600E+03  0.00000000000E+00 0. -1.
         -1   -1    0    0    0  501 -0.00000000000E+00 -0.00000000000E+00 -0.21701168569E+02  0.21701168569E+02  0.00000000000E+00 0.  1.
         23    2    1    2    0    0 -0.11860392345E+02 -0.23410240862E+02  0.25331094207E+03  0.27080929620E+03  0.92100669107E+02 0.  0.
          5    1    1    2  502    0  0.67659613342E+02  0.89797127249E+01  0.18804013691E+03  0.20009907947E+03  0.47000000000E+01 0.  1.
         -5    1    1    2    0  502 -0.55799220997E+02  0.14430528137E+02  0.11383852845E+03  0.12768356890E+03  0.47000000000E+01 0.  1.
        -11    1    3    3    0    0  0.12897633571E+02 -0.44834506802E+02  0.21682424906E+03  0.22178646697E+03  0.00000000000E+00 0. -1.
         11    1    3    3    0    0 -0.24758025916E+02  0.21424265940E+02  0.36486693015E+02  0.49022829228E+02  0.00000000000E+00 0.  1.
<mgrwt>
<rscale>  0 0.11884505E+03</rscale>
<asrwt>0</asrwt>
<pdfrwt beam="1">  1        1 0.88752415E-01 0.12771349E+03</pdfrwt>
<pdfrwt beam="2">  1       -1 0.33386418E-02 0.12771349E+03</pdfrwt>
<totfact> 0.11340550E+04</totfact>
</mgrwt>
</event>
<event>
 7    1  0.5107591E-006  0.1261984E+03  0.7546771E-02  0.1248600E+00
          1   -1    0    0  501    0  0.00000000000E+00  0.00000000000E+00  0.68533421106E+02  0.68533421106E+02  0.00000000000E+00 0. -1.
         -1   -1    0    0    0  501 -0.00000000000E+00 -0.00000000000E+00 -0.18140549389E+03  0.18140549389E+03  0.00000000000E+00 0.  1.
         23    2    1    2    0    0 -0.10214335709E+02 -0.14076767122E+02 -0.23513125766E+02  0.95306948481E+02  0.90708650739E+02 0.  0.
          5    1    1    2  502    0  0.40599368033E+02  0.57635251958E+02 -0.36389711938E+02  0.79475984347E+02  0.47000000000E+01 0. -1.
         -5    1    1    2    0  502 -0.30385032324E+02 -0.43558484836E+02 -0.52969235077E+02  0.75155982164E+02  0.47000000000E+01 0. -1.
        -11    1    3    3    0    0  0.64363039980E+01  0.12191624548E+02  0.30223406357E+02  0.33219211461E+02  0.00000000000E+00 0. -1.
         11    1    3    3    0    0 -0.16650639707E+02 -0.26268391670E+02 -0.53736532123E+02  0.62087737020E+02  0.00000000000E+00 0.  1.
<mgrwt>
<rscale>  0 0.11672459E+03</rscale>
<asrwt>0</asrwt>
<pdfrwt beam="1">  1        1 0.10543603E-01 0.12619835E+03</pdfrwt>
<pdfrwt beam="2">  1       -1 0.27908537E-01 0.12619835E+03</pdfrwt>
<totfact> 0.65126082E+03</totfact>
</mgrwt>
</event>
<event>
 7    1  0.5107591E-006  0.2023290E+03  0.7546771E-02  0.1151774E+00
          2   -1    0    0  501    0  0.00000000000E+00  0.00000000000E+00  0.87554176749E+03  0.87554176749E+03  0.00000000000E+00 0. -1.
         -2   -1    0    0    0  501 -0.00000000000E+00 -0.00000000000E+00 -0.57123348724E+02  0.57123348724E+02  0.00000000000E+00 0.  1.
         23    2    1    2    0    0 -0.13238640135E+03  0.88221498998E+02  0.62943949455E+03  0.65580762103E+03  0.92630266945E+02 0.  0.
          5    1    1    2  502    0  0.15327974449E+03 -0.87192795685E+02  0.14662731727E+03  0.22938815109E+03  0.47000000000E+01 0. -1.
         -5    1    1    2    0  502 -0.20893343140E+02 -0.10287033134E+01  0.42351606938E+02  0.47469344090E+02  0.47000000000E+01 0. -1.
        -11    1    3    3    0    0 -0.10022398974E+03  0.12936906735E+02  0.38400599684E+03  0.39708036628E+03  0.00000000000E+00 0. -1.
         11    1    3    3    0    0 -0.32162411607E+02  0.75284592263E+02  0.24543349771E+03  0.25872725475E+03  0.00000000000E+00 0.  1.
<mgrwt>
<rscale>  0 0.19760681E+03</rscale>
<asrwt>0</asrwt>
<pdfrwt beam="1">  1        2 0.13469872E+00 0.20232904E+03</pdfrwt>
<pdfrwt beam="2">  1       -2 0.87882081E-02 0.20232904E+03</pdfrwt>
<totfact> 0.25537752E+03</totfact>
</mgrwt>
</event>
<event>
 7    1  0.5107591E-006  0.1337025E+03  0.7546771E-02  0.1235048E+00
          2   -1    0    0  501    0  0.00000000000E+00  0.00000000000E+00  0.11297530306E+03  0.11297530306E+03  0.00000000000E+00 0. -1.
         -2   -1    0    0    0  501 -0.00000000000E+00 -0.00000000000E+00 -0.12436221003E+03  0.12436221003E+03  0.00000000000E+00 0.  1.
         23    2    1    2    0    0 -0.32499128969E+01 -0.47333633989E+02  0.67323262656E+01  0.10241287119E+03  0.90509873096E+02 0.  0.
          5    1    1    2  502    0  0.26402494787E+02  0.72827957940E+02 -0.46131532944E+02  0.90284060168E+02  0.47000000000E+01 0. -1.
         -5    1    1    2    0  502 -0.23152581890E+02 -0.25494323951E+02  0.28012299717E+02  0.44640581731E+02  0.47000000000E+01 0. -1.
        -11    1    3    3    0    0 -0.42481689880E+02 -0.45267372587E+02  0.10444597923E+02  0.62951716591E+02  0.00000000000E+00 0.  1.
         11    1    3    3    0    0  0.39231776983E+02 -0.20662614015E+01 -0.37122716573E+01  0.39461154599E+02  0.00000000000E+00 0. -1.
<mgrwt>
<rscale>  0 0.12501385E+03</rscale>
<asrwt>0</asrwt>
<pdfrwt beam="1">  1        2 0.17380816E-01 0.13370248E+03</pdfrwt>
<pdfrwt beam="2">  1       -2 0.19132647E-01 0.13370248E+03</pdfrwt>
<totfact> 0.70193556E+03</totfact>
</mgrwt>
</event>
<event>
 7    1  0.5107591E-006  0.1294764E+03  0.7546771E-02  0.1242504E+00
          2   -1    0    0  501    0  0.00000000000E+00  0.00000000000E+00  0.27070886767E+02  0.27070886767E+02  0.00000000000E+00 0. -1.
         -2   -1    0    0    0  501 -0.00000000000E+00 -0.00000000000E+00 -0.52394257611E+03  0.52394257611E+03  0.00000000000E+00 0.  1.
         23    2    1    2    0    0  0.29381016728E+02 -0.16643024836E+02 -0.13034070663E+03  0.16228592289E+03  0.90596835174E+02 0.  0.
          5    1    1    2  502    0 -0.40782251499E+02 -0.28854608675E+02 -0.58333462597E+02  0.76945846786E+02  0.47000000000E+01 0.  1.
         -5    1    1    2    0  502  0.11401234771E+02  0.45497633511E+02 -0.30819752012E+03  0.31178169321E+03  0.47000000000E+01 0.  1.
        -11    1    3    3    0    0  0.74645491752E+01 -0.33441114752E+02 -0.13024045108E+03  0.13467220481E+03  0.00000000000E+00 0.  1.
         11    1    3    3    0    0  0.21916467552E+02  0.16798089917E+02 -0.10025554438E+00  0.27613718076E+02  0.00000000000E+00 0. -1.
<mgrwt>
<rscale>  0 0.12036021E+03</rscale>
<asrwt>0</asrwt>
<pdfrwt beam="1">  1        2 0.41647517E-02 0.12947640E+03</pdfrwt>
<pdfrwt beam="2">  1       -2 0.80606552E-01 0.12947640E+03</pdfrwt>
<totfact> 0.26799929E+03</totfact>
</mgrwt>
</event>
<event>
 7    1  0.5107592E-006  0.3447117E+03  0.7546771E-02  0.1065965E+00
         -1   -1    0    0    0  501 -0.00000000000E+00  0.00000000000E+00  0.37849295569E+03  0.37849295569E+03  0.00000000000E+00 0.  1.
          1   -1    0    0  501    0  0.00000000000E+00 -0.00000000000E+00 -0.30420296626E+03  0.30420296626E+03  0.00000000000E+00 0. -1.
         23    2    1    2    0    0 -0.23689991262E+03  0.21697848418E+03  0.42356195122E+02  0.33650822412E+03  0.90788250589E+02 0.  0.
          5    1    1    2  502    0  0.36220964570E+02 -0.60568074824E+02  0.56504153822E+02  0.90527671799E+02  0.47000000000E+01 0.  1.
         -5    1    1    2    0  502  0.20067894805E+03 -0.15641040935E+03 -0.24570359519E+02  0.25566002603E+03  0.47000000000E+01 0.  1.
        -11    1    3    3    0    0 -0.15846745674E+03  0.13768909611E+03  0.70559185325E+02  0.22146968340E+03  0.00000000000E+00 0.  1.
         11    1    3    3    0    0 -0.78432455878E+02  0.79289388066E+02 -0.28202990203E+02  0.11503854072E+03  0.00000000000E+00 0. -1.
<mgrwt>
<rscale>  0 0.34195895E+03</rscale>
<asrwt>0</asrwt>
<pdfrwt beam="2">  1        1 0.46800456E-01 0.34471170E+03</pdfrwt>
<pdfrwt beam="1">  1       -1 0.58229686E-01 0.34471170E+03</pdfrwt>
<totfact> 0.26554329E+02</totfact>
</mgrwt>
</event>
<event>
 7    1  0.5107591E-006  0.1998671E+03  0.7546771E-02  0.1153958E+00
          1   -1    0    0  501    0  0.00000000000E+00  0.00000000000E+00  0.57755803576E+02  0.57755803576E+02  0.00000000000E+00 0. -1.
         -1   -1    0    0    0  501 -0.00000000000E+00 -0.00000000000E+00 -0.62957066179E+03  0.62957066179E+03  0.00000000000E+00 0.  1.
         23    2    1    2    0    0  0.58014092167E+02  0.14476105137E+03 -0.26380943399E+03  0.32015591929E+03  0.92644472626E+02 0.  0.
          5    1    1    2  502    0 -0.45862111756E+01  0.21882380386E+02 -0.21250312154E+02  0.31201565201E+02  0.47000000000E+01 0.  1.
         -5    1    1    2    0  502 -0.53427880991E+02 -0.16664343176E+03 -0.28675511207E+03  0.33596898088E+03  0.47000000000E+01 0.  1.
        -11    1    3    3    0    0 -0.10273222755E+02  0.31945779416E+02 -0.12189174375E+03  0.12642653646E+03  0.00000000000E+00 0.  1.
         11    1    3    3    0    0  0.68287314922E+02  0.11281527195E+03 -0.14191769024E+03  0.19372938282E+03  0.00000000000E+00 0. -1.
<mgrwt>
<rscale>  0 0.19508001E+03</rscale>
<asrwt>0</asrwt>
<pdfrwt beam="1">  1        1 0.88855088E-02 0.19986713E+03</pdfrwt>
<pdfrwt beam="2">  1       -1 0.96857019E-01 0.19986713E+03</pdfrwt>
<totfact> 0.81176051E+02</totfact>
</mgrwt>
</event>
<event>
 7    1  0.5107591E-006  0.1441464E+03  0.7546771E-02  0.1220384E+00
         -2   -1    0    0    0  501 -0.00000000000E+00  0.00000000000E+00  0.58390047430E+03  0.58390047430E+03  0.00000000000E+00 0.  1.
          2   -1    0    0  501    0  0.00000000000E+00 -0.00000000000E+00 -0.28356994896E+02  0.28356994896E+02  0.00000000000E+00 0. -1.
         23    2    1    2    0    0  0.50986477083E+02  0.33932920201E+02  0.19808374547E+03  0.22682827932E+03  0.91993663711E+02 0.  0.
          5    1    1    2  502    0  0.69674235410E+01 -0.34529332778E+01 -0.92048611954E+01  0.12933955646E+02  0.47000000000E+01 0. -1.
         -5    1    1    2    0  502 -0.57953900624E+02 -0.30479986923E+02  0.36666459513E+03  0.37249523423E+03  0.47000000000E+01 0.  1.
        -11    1    3    3    0    0  0.72369883934E+02  0.36144495453E+01  0.11635501128E+03  0.13707280181E+03  0.00000000000E+00 0. -1.
         11    1    3    3    0    0 -0.21383406850E+02  0.30318470656E+02  0.81728734193E+02  0.89755477516E+02  0.00000000000E+00 0.  1.
<mgrwt>
<rscale>  0 0.13488379E+03</rscale>
<asrwt>0</asrwt>
<pdfrwt beam="2">  1        2 0.43626150E-02 0.14414645E+03</pdfrwt>
<pdfrwt beam="1">  1       -2 0.89830833E-01 0.14414645E+03</pdfrwt>
<totfact> 0.19966225E+03</totfact>
</mgrwt>
</event>
<event>
 7    1  0.5107591E-006  0.1300100E+03  0.7546771E-02  0.1242277E+00
         -2   -1    0    0    0  501 -0.00000000000E+00  0.00000000000E+00  0.25403944224E+03  0.25403944224E+03  0.00000000000E+00 0.  1.
          2   -1    0    0  501    0  0.00000000000E+00 -0.00000000000E+00 -0.59174632632E+02  0.59174632632E+02  0.00000000000E+00 0. -1.
         23    2    1    2    0    0  0.14471241564E+02 -0.32684841558E+02  0.24699479085E+02  0.99067289961E+02  0.89031162932E+02 0.  0.
          5    1    1    2  502    0 -0.67396527086E+02  0.16168908668E+02  0.12274593566E+03  0.14104034952E+03  0.47000000000E+01 0. -1.
         -5    1    1    2    0  502  0.52925285522E+02  0.16515932890E+02  0.47419394859E+02  0.73106435391E+02  0.47000000000E+01 0. -1.
        -11    1    3    3    0    0 -0.17820957916E+02  0.47285669837E+01  0.42667074483E+02  0.46480373619E+02  0.00000000000E+00 0.  1.
         11    1    3    3    0    0  0.32292199480E+02 -0.37413408541E+02 -0.17967595399E+02  0.52586916342E+02  0.00000000000E+00 0. -1.
<mgrwt>
<rscale>  0 0.12049839E+03</rscale>
<asrwt>0</asrwt>
<pdfrwt beam="2">  1        2 0.91037897E-02 0.13001002E+03</pdfrwt>
<pdfrwt beam="1">  1       -2 0.39082991E-01 0.13001002E+03</pdfrwt>
<totfact> 0.42705871E+03</totfact>
</mgrwt>
</event>
<event>
 7    1  0.5107591E-006  0.1937346E+03  0.7546771E-02  0.1160155E+00
         -2   -1    0    0    0  501 -0.00000000000E+00  0.00000000000E+00  0.26720769172E+03  0.26720769172E+03  0.00000000000E+00 0.  1.
          2   -1    0    0  501    0  0.00000000000E+00 -0.00000000000E+00 -0.13295444586E+03  0.13295444586E+03  0.00000000000E+00 0. -1.
         23    2    1    2    0    0  0.70037172682E+02 -0.13039707641E+03  0.15621527862E+02  0.17299135100E+03  0.88166730103E+02 0.  0.
          5    1    1    2  502    0 -0.84282052996E+02  0.14788262338E+03  0.99453555709E+02  0.19719491499E+03  0.47000000000E+01 0.  1.
         -5    1    1    2    0  502  0.14244880314E+02 -0.17485546980E+02  0.19178162285E+02  0.29975871580E+02  0.47000000000E+01 0.  1.
        -11    1    3    3    0    0  0.36315897059E+02 -0.10090232776E+02 -0.20533694792E+02  0.42921903482E+02  0.00000000000E+00 0. -1.
         11    1    3    3    0    0  0.33721275623E+02 -0.12030684363E+03  0.36155222654E+02  0.13006944752E+03  0.00000000000E+00 0.  1.
<mgrwt>
<rscale>  0 0.18813385E+03</rscale>
<asrwt>0</asrwt>
<pdfrwt beam="2">  1        2 0.20454530E-01 0.19373457E+03</pdfrwt>
<pdfrwt beam="1">  1       -2 0.41108876E-01 0.19373457E+03</pdfrwt>
<totfact> 0.15116587E+03</totfact>
</mgrwt>
</event>
<event>
 7    1  0.5107591E-006  0.1547421E+03  0.7546771E-02  0.1203687E+00
          1   -1    0    0  501    0  0.00000000000E+00  0.00000000000E+00  0.35039321575E+02  0.35039321575E+02  0.00000000000E+00 0. -1.
         -1   -1    0    0    0  501 -0.00000000000E+00 -0.00000000000E+00 -0.70808337039E+03  0.70808337039E+03  0.00000000000E+00 0.  1.
         23    2    1    2    0    0 -0.62021935612E+02  0.66875823097E+02 -0.14585512576E+03  0.19369272672E+03  0.89017180698E+02 0.  0.
          5    1    1    2  502    0  0.41252862173E+00  0.34895576940E+02 -0.10323132708E+03  0.10907184953E+03  0.47000000000E+01 0. -1.
         -5    1    1    2    0  502  0.61609406991E+02 -0.10177140004E+03 -0.42395759597E+03  0.44035811572E+03  0.47000000000E+01 0. -1.
        -11    1    3    3    0    0 -0.76537693259E+02  0.60246379175E+02 -0.80340479299E+02  0.12626257287E+03  0.00000000000E+00 0. -1.
         11    1    3    3    0    0  0.14515757646E+02  0.66294439225E+01 -0.65514646466E+02  0.67430153851E+02  0.00000000000E+00 0.  1.
<mgrwt>
<rscale>  0 0.14741451E+03</rscale>
<asrwt>0</asrwt>
<pdfrwt beam="1">  1        1 0.53906648E-02 0.15474213E+03</pdfrwt>
<pdfrwt beam="2">  1       -1 0.10893590E+00 0.15474213E+03</pdfrwt>
<totfact> 0.12240849E+03</totfact>
</mgrwt>
</event>
<event>
 7    1  0.5107591E-006  0.1898587E+03  0.7546771E-02  0.1186189E+00
         -2   -1    0    0    0  501 -0.00000000000E+00  0.00000000000E+00  0.40529059361E+02  0.40529059361E+02  0.00000000000E+00 0.  1.
          2   -1    0    0  501    0  0.00000000000E+00 -0.00000000000E+00 -0.53961757994E+03  0.53961757994E+03  0.00000000000E+00 0. -1.
         23    2    1    2    0    0 -0.47944167866E+02  0.45484825842E+01 -0.22494835827E+03  0.24668126223E+03  0.89053631723E+02 0.  0.
          5    1    1    2  502    0  0.99270861859E+02 -0.56213298844E+02 -0.19375481596E+03  0.22489477025E+03  0.47000000000E+01 0. -1.
         -5    1    1    2    0  502 -0.51326693993E+02  0.51664816260E+02 -0.80385346354E+02  0.10857060681E+03  0.47000000000E+01 0.  1.
        -11    1    3    3    0    0 -0.36990556100E+02  0.40950183803E+02 -0.82549509059E+02  0.99295721156E+02  0.00000000000E+00 0.  1.
         11    1    3    3    0    0 -0.10953611767E+02 -0.36401701219E+02 -0.14239884921E+03  0.14738554108E+03  0.00000000000E+00 0. -1.
<mgrwt>
<rscale>  0 0.16224180E+03</rscale>
<asrwt>0</asrwt>
<pdfrwt beam="2">  1        2 0.83018084E-01 0.18985871E+03</pdfrwt>
<pdfrwt beam="1">  1       -2 0.62352403E-02 0.18985871E+03</pdfrwt>
<totfact> 0.77722448E+03</totfact>
</mgrwt>
</event>
<event>
 7    1  0.5107591E-006  0.1347713E+03  0.7546771E-02  0.1233059E+00
         -3   -1    0    0    0  501 -0.00000000000E+00  0.00000000000E+00  0.22856490679E+03  0.22856490679E+03  0.00000000000E+00 0.  1.
          3   -1    0    0  501    0  0.00000000000E+00 -0.00000000000E+00 -0.63198085049E+02  0.63198085049E+02  0.00000000000E+00 0. -1.
         23    2    1    2    0    0  0.26628424244E+02  0.42787030462E+02  0.55130625133E+02  0.11765006028E+03  0.90897458170E+02 0.  0.
          5    1    1    2  502    0 -0.56369682967E+02  0.10516375036E+02  0.94937087675E+02  0.11101025141E+03  0.47000000000E+01 0.  1.
         -5    1    1    2    0  502  0.29741258724E+02 -0.53303405498E+02  0.15299108929E+02  0.63102680151E+02  0.47000000000E+01 0.  1.
        -11    1    3    3    0    0  0.39384770569E+02  0.32131770740E+02  0.75714295375E+02  0.91193559903E+02  0.00000000000E+00 0.  1.
         11    1    3    3    0    0 -0.12756346325E+02  0.10655259722E+02 -0.20583670242E+02  0.26456500372E+02  0.00000000000E+00 0. -1.
<mgrwt>
<rscale>  0 0.12629517E+03</rscale>
<asrwt>0</asrwt>
<pdfrwt beam="2">  1        3 0.97227824E-02 0.13477127E+03</pdfrwt>
<pdfrwt beam="1">  1       -3 0.35163831E-01 0.13477127E+03</pdfrwt>
<totfact> 0.14130665E+03</totfact>
</mgrwt>
</event>
<event>
 7    1  0.5107591E-006  0.2235444E+03  0.7546771E-02  0.1134512E+00
          4   -1    0    0  501    0  0.00000000000E+00  0.00000000000E+00  0.47169543594E+02  0.47169543594E+02  0.00000000000E+00 0. -1.
         -4   -1    0    0    0  501 -0.00000000000E+00 -0.00000000000E+00 -0.11636256955E+04  0.11636256955E+04  0.00000000000E+00 0.  1.
         23    2    1    2    0    0  0.17543691830E+03 -0.59728634514E+02 -0.29941867553E+03  0.36372834712E+03  0.91110620433E+02 0.  0.
          5    1    1    2  502    0 -0.24116022928E+02 -0.30827238267E+02 -0.79652185130E+02  0.88873290572E+02  0.47000000000E+01 0.  1.
         -5    1    1    2    0  502 -0.15132089537E+03  0.90555872780E+02 -0.73738529128E+03  0.75819360144E+03  0.47000000000E+01 0.  1.
        -11    1    3    3    0    0  0.10721820031E+03 -0.27609721159E+01 -0.21906951042E+03  0.24391559163E+03  0.00000000000E+00 0.  1.
         11    1    3    3    0    0  0.68218717990E+02 -0.56967662398E+02 -0.80349165114E+02  0.11981275549E+03  0.00000000000E+00 0. -1.
<mgrwt>
<rscale>  0 0.21915862E+03</rscale>
<asrwt>0</asrwt>
<pdfrwt beam="1">  1        4 0.72568530E-02 0.22354436E+03</pdfrwt>
<pdfrwt beam="2">  1       -4 0.17901934E+00 0.22354436E+03</pdfrwt>
<totfact> 0.46323964E+01</totfact>
</mgrwt>
</event>
<event>
 7    1  0.5107591E-006  0.1178961E+03  0.7546771E-02  0.1254760E+00
         -2   -1    0    0    0  501 -0.00000000000E+00  0.00000000000E+00  0.59961884555E+02  0.59961884555E+02  0.00000000000E+00 0.  1.
          2   -1    0    0  501    0  0.00000000000E+00 -0.00000000000E+00 -0.19861654413E+03  0.19861654413E+03  0.00000000000E+00 0. -1.
         23    2    1    2    0    0 -0.10286684697E+02 -0.37262151314E+02 -0.68746452553E+02  0.12151406132E+03  0.92440838144E+02 0.  0.
          5    1    1    2  502    0  0.60481685384E+02  0.14114017187E+02 -0.33674353345E+02  0.70804603108E+02  0.47000000000E+01 0. -1.
         -5    1    1    2    0  502 -0.50195000687E+02  0.23148134128E+02 -0.36233853679E+02  0.66259764262E+02  0.47000000000E+01 0.  1.
        -11    1    3    3    0    0  0.31320610724E+00 -0.62388888436E+02 -0.70554848930E+02  0.94183109982E+02  0.00000000000E+00 0. -1.
         11    1    3    3    0    0 -0.10599890804E+02  0.25126737122E+02  0.18083963772E+01  0.27330951336E+02  0.00000000000E+00 0.  1.
<mgrwt>
<rscale>  0 0.11319807E+03</rscale>
<asrwt>0</asrwt>
<pdfrwt beam="2">  1        2 0.30556391E-01 0.11789607E+03</pdfrwt>
<pdfrwt beam="1">  1       -2 0.92249053E-02 0.11789607E+03</pdfrwt>
<totfact> 0.12039168E+04</totfact>
</mgrwt>
</event>
<event>
 7    1  0.5107591E-006  0.1752340E+03  0.7546771E-02  0.1178882E+00
         -1   -1    0    0    0  501 -0.00000000000E+00  0.00000000000E+00  0.55251739999E+03  0.55251739999E+03  0.00000000000E+00 0.  1.
          1   -1    0    0  501    0  0.00000000000E+00 -0.00000000000E+00 -0.49926239038E+02  0.49926239038E+02  0.00000000000E+00 0. -1.
         23    2    1    2    0    0 -0.18071322004E+02  0.12146719666E+03  0.18026895843E+03  0.23556685559E+03  0.88960629139E+02 0.  0.
          5    1    1    2  502    0  0.35333777580E+01  0.15476397137E+02  0.24054169994E+00  0.16557520558E+02  0.47000000000E+01 0. -1.
         -5    1    1    2    0  502  0.14537944246E+02 -0.13694359380E+03  0.32208166083E+03  0.35031926288E+03  0.47000000000E+01 0. -1.
        -11    1    3    3    0    0 -0.51229837123E+02  0.97928811785E+02  0.13964386991E+03  0.17808694167E+03  0.00000000000E+00 0. -1.
         11    1    3    3    0    0  0.33158515119E+02  0.23538384875E+02  0.40625088517E+02  0.57479913922E+02  0.00000000000E+00 0.  1.
<mgrwt>
<rscale>  0 0.16901206E+03</rscale>
<asrwt>0</asrwt>
<pdfrwt beam="2">  1        1 0.76809602E-02 0.17523405E+03</pdfrwt>
<pdfrwt beam="1">  1       -1 0.85002673E-01 0.17523405E+03</pdfrwt>
<totfact> 0.13036986E+03</totfact>
</mgrwt>
</event>
<event>
 7    1  0.5107591E-006  0.1858250E+03  0.7546771E-02  0.1167370E+00
          2   -1    0    0  501    0  0.00000000000E+00  0.00000000000E+00  0.10054420540E+04  0.10054420540E+04  0.00000000000E+00 0. -1.
         -2   -1    0    0    0  501 -0.00000000000E+00 -0.00000000000E+00 -0.31169218130E+02  0.31169218130E+02  0.00000000000E+00 0.  1.
         23    2    1    2    0    0  0.77691464459E+02 -0.11344921528E+03  0.52624603566E+03  0.55157628183E+03  0.91623231404E+02 0.  0.
          5    1    1    2  502    0 -0.95868138117E+02  0.92261511572E+02  0.43295777496E+03  0.45296513256E+03  0.47000000000E+01 0.  1.
         -5    1    1    2    0  502  0.18176673658E+02  0.21187703712E+02  0.15069025278E+02  0.32069857759E+02  0.47000000000E+01 0.  1.
        -11    1    3    3    0    0  0.17498528220E+02 -0.87842829485E+02  0.20460835765E+03  0.22335429524E+03  0.00000000000E+00 0.  1.
         11    1    3    3    0    0  0.60192936239E+02 -0.25606385799E+02  0.32163767801E+03  0.32822198659E+03  0.00000000000E+00 0. -1.
<mgrwt>
<rscale>  0 0.18044773E+03</rscale>
<asrwt>0</asrwt>
<pdfrwt beam="1">  1        2 0.15468337E+00 0.18582499E+03</pdfrwt>
<pdfrwt beam="2">  1       -2 0.47952651E-02 0.18582499E+03</pdfrwt>
<totfact> 0.53634366E+03</totfact>
</mgrwt>
</event>
<event>
 7    1  0.5107591E-006  0.1303092E+03  0.7546771E-02  0.1240779E+00
          1   -1    0    0  501    0  0.00000000000E+00  0.00000000000E+00  0.16630370997E+02  0.16630370997E+02  0.00000000000E+00 0. -1.
         -1   -1    0    0    0  501 -0.00000000000E+00 -0.00000000000E+00 -0.79704716745E+03  0.79704716745E+03  0.00000000000E+00 0.  1.
         23    2    1    2    0    0  0.94439378913E+01 -0.35579346657E+02 -0.28682849222E+03  0.30317787962E+03  0.91055833813E+02 0.  0.
          5    1    1    2  502    0  0.58823038019E+00  0.74028970505E+02 -0.18484630529E+03  0.19917550318E+03  0.47000000000E+01 0. -1.
         -5    1    1    2    0  502 -0.10032168272E+02 -0.38449623848E+02 -0.30874199895E+03  0.31132415564E+03  0.47000000000E+01 0. -1.
        -11    1    3    3    0    0 -0.22777706953E+02 -0.55669182102E+02 -0.18225799384E+03  0.19192669978E+03  0.00000000000E+00 0.  1.
         11    1    3    3    0    0  0.32221644845E+02  0.20089835445E+02 -0.10457049837E+03  0.11125117984E+03  0.00000000000E+00 0. -1.
<mgrwt>
<rscale>  0 0.12141604E+03</rscale>
<asrwt>0</asrwt>
<pdfrwt beam="1">  1        1 0.25585190E-02 0.13030920E+03</pdfrwt>
<pdfrwt beam="2">  1       -1 0.12262262E+00 0.13030920E+03</pdfrwt>
<totfact> 0.25814387E+03</totfact>
</mgrwt>
</event>
<event>
 7    1  0.5107591E-006  0.1999455E+03  0.7546771E-02  0.1153689E+00
         -2   -1    0    0    0  501 -0.00000000000E+00  0.00000000000E+00  0.18283656677E+03  0.18283656677E+03  0.00000000000E+00 0.  1.
          2   -1    0    0  501    0  0.00000000000E+00 -0.00000000000E+00 -0.25376185741E+03  0.25376185741E+03  0.00000000000E+00 0. -1.
         23    2    1    2    0    0  0.12908699746E+03  0.87686968753E+02 -0.13474312767E+03  0.22671526925E+03  0.94295521914E+02 0.  0.
          5    1    1    2  502    0 -0.76806243257E+02  0.20506945973E+02  0.27835482635E+02  0.84360167911E+02  0.47000000000E+01 0.  1.
         -5    1    1    2    0  502 -0.52280754206E+02 -0.10819391473E+03  0.35982354395E+02  0.12552298703E+03  0.47000000000E+01 0.  1.
        -11    1    3    3    0    0  0.79400042151E+02  0.11779434427E+02 -0.24464839961E+02  0.83914540834E+02  0.00000000000E+00 0.  1.
         11    1    3    3    0    0  0.49686955312E+02  0.75907534326E+02 -0.11027828771E+03  0.14280072841E+03  0.00000000000E+00 0. -1.
<mgrwt>
<rscale>  0 0.19538811E+03</rscale>
<asrwt>0</asrwt>
<pdfrwt beam="2">  1        2 0.39040286E-01 0.19994555E+03</pdfrwt>
<pdfrwt beam="1">  1       -2 0.28128703E-01 0.19994555E+03</pdfrwt>
<totfact> 0.14969971E+03</totfact>
</mgrwt>
</event>
<event>
 7    1  0.5107591E-006  0.1327238E+03  0.7546771E-02  0.1236036E+00
         -1   -1    0    0    0  501 -0.00000000000E+00  0.00000000000E+00  0.93991172526E+02  0.93991172526E+02  0.00000000000E+00 0.  1.
          1   -1    0    0  501    0  0.00000000000E+00 -0.00000000000E+00 -0.18262489791E+03  0.18262489791E+03  0.00000000000E+00 0. -1.
         23    2    1    2    0    0  0.38751946713E+02 -0.22118455816E+02 -0.10037366365E+03  0.14337407156E+03  0.92142892181E+02 0.  0.
          5    1    1    2  502    0  0.61593876625E+01 -0.25398259566E+02  0.50523813414E+02  0.57076749796E+02  0.47000000000E+01 0. -1.
         -5    1    1    2    0  502 -0.44911334376E+02  0.47516715383E+02 -0.38783875147E+02  0.76165249081E+02  0.47000000000E+01 0. -1.
        -11    1    3    3    0    0  0.69160701561E+02 -0.18679688672E+02 -0.66886119301E+02  0.98009623836E+02  0.00000000000E+00 0.  1.
         11    1    3    3    0    0 -0.30408754847E+02 -0.34387671445E+01 -0.33487544351E+02  0.45364447726E+02  0.00000000000E+00 0. -1.
<mgrwt>
<rscale>  0 0.12438363E+03</rscale>
<asrwt>0</asrwt>
<pdfrwt beam="2">  1        1 0.28096138E-01 0.13272379E+03</pdfrwt>
<pdfrwt beam="1">  1       -1 0.14460181E-01 0.13272379E+03</pdfrwt>
<totfact> 0.53510131E+03</totfact>
</mgrwt>
</event>
<event>
 7    1  0.5107591E-006  0.1608898E+03  0.7546771E-02  0.1195231E+00
         -2   -1    0    0    0  501 -0.00000000000E+00  0.00000000000E+00  0.17583446196E+02  0.17583446196E+02  0.00000000000E+00 0.  1.
          2   -1    0    0  501    0  0.00000000000E+00 -0.00000000000E+00 -0.12949511789E+04  0.12949511789E+04  0.00000000000E+00 0. -1.
         23    2    1    2    0    0  0.98028913883E+02  0.25502474981E+02 -0.47325833234E+03  0.49248740459E+03  0.91161123097E+02 0.  0.
          5    1    1    2  502    0 -0.98110646493E+00 -0.54148416087E+02 -0.38778663615E+03  0.39157831747E+03  0.47000000000E+01 0. -1.
         -5    1    1    2    0  502 -0.97047807418E+02  0.28645941105E+02 -0.41632276418E+03  0.42846890300E+03  0.47000000000E+01 0. -1.
        -11    1    3    3    0    0  0.62335702930E+02 -0.30306843749E+02 -0.26708194076E+03  0.27592935277E+03  0.00000000000E+00 0. -1.
         11    1    3    3    0    0  0.35693210954E+02  0.55809318730E+02 -0.20617639158E+03  0.21655805182E+03  0.00000000000E+00 0.  1.
<mgrwt>
<rscale>  0 0.15434727E+03</rscale>
<asrwt>0</asrwt>
<pdfrwt beam="2">  1        2 0.19922328E+00 0.16088976E+03</pdfrwt>
<pdfrwt beam="1">  1       -2 0.27051453E-02 0.16088976E+03</pdfrwt>
<totfact> 0.85578112E+03</totfact>
</mgrwt>
</event>
<event>
 7    1  0.5107591E-006  0.1252426E+03  0.7546771E-02  0.1248765E+00
         -1   -1    0    0    0  501 -0.00000000000E+00  0.00000000000E+00  0.26383583542E+03  0.26383583542E+03  0.00000000000E+00 0.  1.
          1   -1    0    0  501    0  0.00000000000E+00 -0.00000000000E+00 -0.46687059039E+02  0.46687059039E+02  0.00000000000E+00 0. -1.
         23    2    1    2    0    0  0.54565897192E+01 -0.56144540131E+01  0.70330350311E+02  0.11754270543E+03  0.93854317752E+02 0.  0.
          5    1    1    2  502    0  0.33331611535E+02 -0.47238077334E+02  0.54021268359E+02  0.79264239811E+02  0.47000000000E+01 0. -1.
         -5    1    1    2    0  502 -0.38788201254E+02  0.52852531347E+02  0.92797157707E+02  0.11371594921E+03  0.47000000000E+01 0. -1.
        -11    1    3    3    0    0  0.31689695737E+02 -0.17591627445E+02  0.79425310714E+02  0.87304536847E+02  0.00000000000E+00 0.  1.
         11    1    3    3    0    0 -0.26233106018E+02  0.11977173432E+02 -0.90949604025E+01  0.30238168587E+02  0.00000000000E+00 0. -1.
<mgrwt>
<rscale>  0 0.11662832E+03</rscale>
<asrwt>0</asrwt>
<pdfrwt beam="2">  1        1 0.71826246E-02 0.12524258E+03</pdfrwt>
<pdfrwt beam="1">  1       -1 0.40590128E-01 0.12524258E+03</pdfrwt>
<totfact> 0.57323161E+03</totfact>
</mgrwt>
</event>
<event>
 7    1  0.5107591E-006  0.1310092E+03  0.7546771E-02  0.1239652E+00
          1   -1    0    0  501    0  0.00000000000E+00  0.00000000000E+00  0.76734237837E+02  0.76734237837E+02  0.00000000000E+00 0. -1.
         -1   -1    0    0    0  501 -0.00000000000E+00 -0.00000000000E+00 -0.17221690797E+03  0.17221690797E+03  0.00000000000E+00 0.  1.
         23    2    1    2    0    0  0.23011359393E+02  0.31761090119E+02 -0.42530029717E+02  0.10764507833E+03  0.90776483489E+02 0.  0.
          5    1    1    2  502    0  0.44050163127E+02 -0.27322825518E+01  0.91194095255E+01  0.45311542344E+02  0.47000000000E+01 0. -1.
         -5    1    1    2    0  502 -0.67061522520E+02 -0.29028807567E+02 -0.62072049943E+02  0.95994525133E+02  0.47000000000E+01 0. -1.
        -11    1    3    3    0    0 -0.26473164823E+02  0.19539145535E+01 -0.42225092167E+02  0.49875892437E+02  0.00000000000E+00 0.  1.
         11    1    3    3    0    0  0.49484524216E+02  0.29807175565E+02 -0.30493755000E+00  0.57769185895E+02  0.00000000000E+00 0. -1.
<mgrwt>
<rscale>  0 0.12211285E+03</rscale>
<asrwt>0</asrwt>
<pdfrwt beam="1">  1        1 0.11805268E-01 0.13100925E+03</pdfrwt>
<pdfrwt beam="2">  1       -1 0.26494908E-01 0.13100925E+03</pdfrwt>
<totfact> 0.61345095E+03</totfact>
</mgrwt>
</event>
<event>
 7    1  0.5107591E-006  0.1373951E+03  0.7546771E-02  0.1227701E+00
         -1   -1    0    0    0  501 -0.00000000000E+00  0.00000000000E+00  0.14120919429E+03  0.14120919429E+03  0.00000000000E+00 0.  1.
          1   -1    0    0  501    0  0.00000000000E+00 -0.00000000000E+00 -0.10828037885E+03  0.10828037885E+03  0.00000000000E+00 0. -1.
         23    2    1    2    0    0  0.49985341817E+02 -0.27460591264E+02  0.79993357649E+01  0.10985116453E+03  0.93545018605E+02 0.  0.
          5    1    1    2  502    0 -0.69498172880E+02  0.63586523953E+02  0.69532439420E+01  0.94571029726E+02  0.47000000000E+01 0. -1.
         -5    1    1    2    0  502  0.19512831063E+02 -0.36125932689E+02  0.17976235739E+02  0.45067378891E+02  0.47000000000E+01 0. -1.
        -11    1    3    3    0    0  0.54993657928E+02  0.17322157747E+02  0.23407759238E+02  0.62227668716E+02  0.00000000000E+00 0.  1.
         11    1    3    3    0    0 -0.50083161108E+01 -0.44782749010E+02 -0.15408423473E+02  0.47623495809E+02  0.00000000000E+00 0. -1.
<mgrwt>
<rscale>  0 0.12983474E+03</rscale>
<asrwt>0</asrwt>
<pdfrwt beam="2">  1        1 0.16658520E-01 0.13739507E+03</pdfrwt>
<pdfrwt beam="1">  1       -1 0.21724491E-01 0.13739507E+03</pdfrwt>
<totfact> 0.54426858E+03</totfact>
</mgrwt>
</event>
<event>
 7    1  0.5107591E-006  0.1600678E+03  0.7546771E-02  0.1196213E+00
          1   -1    0    0  501    0  0.00000000000E+00  0.00000000000E+00  0.46643861523E+03  0.46643861523E+03  0.00000000000E+00 0. -1.
         -1   -1    0    0    0  501 -0.00000000000E+00 -0.00000000000E+00 -0.46809682631E+02  0.46809682631E+02  0.00000000000E+00 0.  1.
         23    2    1    2    0    0 -0.98398961314E+02 -0.17715530137E+02  0.18959359948E+03  0.23300206648E+03  0.91367578615E+02 0.  0.
          5    1    1    2  502    0  0.64534573784E+02 -0.22175299290E+02  0.32285814071E+02  0.75636756292E+02  0.47000000000E+01 0. -1.
         -5    1    1    2    0  502  0.33864387530E+02  0.39890829426E+02  0.19774951905E+03  0.20460947509E+03  0.47000000000E+01 0. -1.
        -11    1    3    3    0    0 -0.30589043606E+02 -0.83456577290E+01  0.29719924613E+00  0.31708483393E+02  0.00000000000E+00 0.  1.
         11    1    3    3    0    0 -0.67809917708E+02 -0.93698724079E+01  0.18929640023E+03  0.20129358308E+03  0.00000000000E+00 0. -1.
<mgrwt>
<rscale>  0 0.15352015E+03</rscale>
<asrwt>0</asrwt>
<pdfrwt beam="1">  1        1 0.71759784E-01 0.16006778E+03</pdfrwt>
<pdfrwt beam="2">  1       -1 0.72014900E-02 0.16006778E+03</pdfrwt>
<totfact> 0.48723496E+03</totfact>
</mgrwt>
</event>
<event>
 7    1  0.5107591E-006  0.1758167E+03  0.7546771E-02  0.1177171E+00
          1   -1    0    0  501    0  0.00000000000E+00  0.00000000000E+00  0.53015616733E+03  0.53015616733E+03  0.00000000000E+00 0. -1.
         -1   -1    0    0    0  501 -0.00000000000E+00 -0.00000000000E+00 -0.52025288139E+02  0.52025288139E+02  0.00000000000E+00 0.  1.
         23    2    1    2    0    0  0.76620816555E+02 -0.97033522234E+02  0.23700551481E+03  0.28376402368E+03  0.95205846045E+02 0.  0.
          5    1    1    2  502    0 -0.10103386816E+03  0.48488385839E+02  0.11324074053E+03  0.15938795874E+03  0.47000000000E+01 0. -1.
         -5    1    1    2    0  502  0.24413051603E+02  0.48545136395E+02  0.12788462386E+03  0.13902947305E+03  0.47000000000E+01 0. -1.
        -11    1    3    3    0    0  0.58245327868E+02 -0.59105695214E+02  0.22519232731E+03  0.23999497017E+03  0.00000000000E+00 0. -1.
         11    1    3    3    0    0  0.18375488687E+02 -0.37927827020E+02  0.11813187495E+02  0.43769053516E+02  0.00000000000E+00 0.  1.
<mgrwt>
<rscale>  0 0.17065084E+03</rscale>
<asrwt>0</asrwt>
<pdfrwt beam="1">  1        1 0.81562483E-01 0.17581673E+03</pdfrwt>
<pdfrwt beam="2">  1       -1 0.80038909E-02 0.17581673E+03</pdfrwt>
<totfact> 0.35241055E+03</totfact>
</mgrwt>
</event>
<event>
 7    1  0.5107591E-006  0.1352522E+03  0.7546771E-02  0.1233999E+00
         -2   -1    0    0    0  501 -0.00000000000E+00  0.00000000000E+00  0.44948321331E+02  0.44948321331E+02  0.00000000000E+00 0.  1.
          2   -1    0    0  501    0  0.00000000000E+00 -0.00000000000E+00 -0.36819689898E+03  0.36819689898E+03  0.00000000000E+00 0. -1.
         23    2    1    2    0    0  0.42597312042E+02 -0.13820626572E+02 -0.22313353728E+03  0.24487106271E+03  0.90375445662E+02 0.  0.
          5    1    1    2  502    0 -0.63496557670E+02 -0.40789095482E+02 -0.66298464037E+02  0.10056410632E+03  0.47000000000E+01 0. -1.
         -5    1    1    2    0  502  0.20899245628E+02  0.54609722053E+02 -0.33816576332E+02  0.67710051288E+02  0.47000000000E+01 0.  1.
        -11    1    3    3    0    0 -0.27450189914E+01  0.24829869728E+02 -0.16792825149E+02  0.30100773021E+02  0.00000000000E+00 0.  1.
         11    1    3    3    0    0  0.45342331034E+02 -0.38650496299E+02 -0.20634071213E+03  0.21477028969E+03  0.00000000000E+00 0. -1.
<mgrwt>
<rscale>  0 0.12568716E+03</rscale>
<asrwt>0</asrwt>
<pdfrwt beam="2">  1        2 0.56645676E-01 0.13525225E+03</pdfrwt>
<pdfrwt beam="1">  1       -2 0.69151264E-02 0.13525225E+03</pdfrwt>
<totfact> 0.98479922E+03</totfact>
</mgrwt>
</event>
<event>
 7    1  0.5107591E-006  0.1273257E+03  0.7546771E-02  0.1246492E+00
         -2   -1    0    0    0  501 -0.00000000000E+00  0.00000000000E+00  0.35556799468E+02  0.35556799468E+02  0.00000000000E+00 0.  1.
          2   -1    0    0  501    0  0.00000000000E+00 -0.00000000000E+00 -0.37531353760E+03  0.37531353760E+03  0.00000000000E+00 0. -1.
         23    2    1    2    0    0 -0.22077102858E+02  0.99624919415E+01 -0.20515766853E+03  0.22559015746E+03  0.90634433141E+02 0.  0.
          5    1    1    2  502    0  0.10184780054E+02  0.53298098777E+02 -0.29487271377E+02  0.61935500735E+02  0.47000000000E+01 0. -1.
         -5    1    1    2    0  502  0.11892322803E+02 -0.63260590718E+02 -0.10511179822E+03  0.12334467887E+03  0.47000000000E+01 0. -1.
        -11    1    3    3    0    0  0.10639707998E+02  0.31004143095E+02 -0.24848679864E+02  0.41132920712E+02  0.00000000000E+00 0.  1.
         11    1    3    3    0    0 -0.32716810856E+02 -0.21041651153E+02 -0.18030898867E+03  0.18445723675E+03  0.00000000000E+00 0. -1.
<mgrwt>
<rscale>  0 0.11796553E+03</rscale>
<asrwt>0</asrwt>
<pdfrwt beam="2">  1        2 0.57740542E-01 0.12732571E+03</pdfrwt>
<pdfrwt beam="1">  1       -2 0.54702771E-02 0.12732571E+03</pdfrwt>
<totfact> 0.13706186E+04</totfact>
</mgrwt>
</event>
<event>
 7    1  0.5107591E-006  0.1654619E+03  0.7546771E-02  0.1189748E+00
         -2   -1    0    0    0  501 -0.00000000000E+00  0.00000000000E+00  0.39050028365E+03  0.39050028365E+03  0.00000000000E+00 0.  1.
          2   -1    0    0  501    0  0.00000000000E+00 -0.00000000000E+00 -0.71501988563E+02  0.71501988563E+02  0.00000000000E+00 0. -1.
         23    2    1    2    0    0 -0.10659437681E+03  0.19732864774E+02  0.57589573004E+02  0.15262847430E+03  0.90703611437E+02 0.  0.
          5    1    1    2  502    0  0.11395218178E+03  0.26714194931E+02  0.20143208547E+03  0.23301442659E+03  0.47000000000E+01 0. -1.
         -5    1    1    2    0  502 -0.73578049714E+01 -0.46447059705E+02  0.59976636615E+02  0.76359371324E+02  0.47000000000E+01 0. -1.
        -11    1    3    3    0    0 -0.73616731600E+02 -0.16589013491E+02  0.69007872715E+02  0.10225803165E+03  0.00000000000E+00 0.  1.
         11    1    3    3    0    0 -0.32977645212E+02  0.36321878265E+02 -0.11418299711E+02  0.50370442649E+02  0.00000000000E+00 0. -1.
<mgrwt>
<rscale>  0 0.15907241E+03</rscale>
<asrwt>0</asrwt>
<pdfrwt beam="2">  1        2 0.11000306E-01 0.16546186E+03</pdfrwt>
<pdfrwt beam="1">  1       -2 0.60076966E-01 0.16546186E+03</pdfrwt>
<totfact> 0.14705454E+03</totfact>
</mgrwt>
</event>
<event>
 7    1  0.5107591E-006  0.1261442E+03  0.7546771E-02  0.1246650E+00
         -1   -1    0    0    0  501 -0.00000000000E+00  0.00000000000E+00  0.60371561033E+02  0.60371561033E+02  0.00000000000E+00 0.  1.
          1   -1    0    0  501    0  0.00000000000E+00 -0.00000000000E+00 -0.20591984184E+03  0.20591984184E+03  0.00000000000E+00 0. -1.
         23    2    1    2    0    0 -0.15196280430E+02 -0.75709812297E+01 -0.73329053682E+02  0.12093673616E+03  0.94658847150E+02 0.  0.
          5    1    1    2  502    0  0.23591234446E+02  0.63848458244E+02 -0.31031565878E+02  0.74954786662E+02  0.47000000000E+01 0. -1.
         -5    1    1    2    0  502 -0.83949540168E+01 -0.56277477014E+02 -0.41187661250E+02  0.70399880051E+02  0.47000000000E+01 0. -1.
        -11    1    3    3    0    0 -0.36592780656E+02  0.33496643087E+02 -0.33538656997E+02  0.59882369754E+02  0.00000000000E+00 0.  1.
         11    1    3    3    0    0  0.21396500226E+02 -0.41067624317E+02 -0.39790396685E+02  0.61054366407E+02  0.00000000000E+00 0. -1.
<mgrwt>
<rscale>  0 0.11787173E+03</rscale>
<asrwt>0</asrwt>
<pdfrwt beam="2">  1        1 0.31679976E-01 0.12614421E+03</pdfrwt>
<pdfrwt beam="1">  1       -1 0.92879324E-02 0.12614421E+03</pdfrwt>
<totfact> 0.90744391E+03</totfact>
</mgrwt>
</event>
<event>
 7    1  0.5107591E-006  0.1258698E+03  0.7546771E-02  0.1249084E+00
         -4   -1    0    0    0  501 -0.00000000000E+00  0.00000000000E+00  0.33550809895E+03  0.33550809895E+03  0.00000000000E+00 0.  1.
          4   -1    0    0  501    0  0.00000000000E+00 -0.00000000000E+00 -0.45798242050E+02  0.45798242050E+02  0.00000000000E+00 0. -1.
         23    2    1    2    0    0  0.92277915634E-02 -0.14764684969E+02  0.37677197644E+02  0.99590776344E+02  0.90998656601E+02 0.  0.
          5    1    1    2  502    0  0.44302537250E+02  0.51222765707E+02  0.12500112205E+03  0.14224576284E+03  0.47000000000E+01 0.  1.
         -5    1    1    2    0  502 -0.44311765041E+02 -0.36458080738E+02  0.12703153721E+03  0.13946980181E+03  0.47000000000E+01 0.  1.
        -11    1    3    3    0    0 -0.24013777681E+02 -0.39105874805E+02  0.45375354089E+02  0.64535677896E+02  0.00000000000E+00 0.  1.
         11    1    3    3    0    0  0.24023005473E+02  0.24341189835E+02 -0.76981564455E+01  0.35055098448E+02  0.00000000000E+00 0. -1.
<mgrwt>
<rscale>  0 0.11644222E+03</rscale>
<asrwt>0</asrwt>
<pdfrwt beam="2">  1        4 0.70458836E-02 0.12586977E+03</pdfrwt>
<pdfrwt beam="1">  1       -4 0.51616629E-01 0.12586977E+03</pdfrwt>
<totfact> 0.80657359E+02</totfact>
</mgrwt>
</event>
<event>
 7    1  0.5107591E-006  0.1426427E+03  0.7546771E-02  0.1221518E+00
         -2   -1    0    0    0  501 -0.00000000000E+00  0.00000000000E+00  0.14527166972E+03  0.14527166972E+03  0.00000000000E+00 0. -1.
          2   -1    0    0  501    0  0.00000000000E+00 -0.00000000000E+00 -0.12097381213E+03  0.12097381213E+03  0.00000000000E+00 0.  1.
         23    2    1    2    0    0 -0.53493451086E+02 -0.43138114102E+02 -0.27110052593E+02  0.11462186551E+03  0.87640007436E+02 0.  0.
          5    1    1    2  502    0  0.35290167007E+01 -0.42016887731E+02  0.25276575071E+02  0.49384897092E+02  0.47000000000E+01 0. -1.
         -5    1    1    2    0  502  0.49964434385E+02  0.85155001833E+02  0.26131335108E+02  0.10223871926E+03  0.47000000000E+01 0. -1.
        -11    1    3    3    0    0 -0.45320297173E+01 -0.56391595705E+02 -0.29576843117E+02  0.63838397601E+02  0.00000000000E+00 0.  1.
         11    1    3    3    0    0 -0.48961421369E+02  0.13253481603E+02  0.24667905244E+01  0.50783467906E+02  0.00000000000E+00 0. -1.
<mgrwt>
<rscale>  0 0.13408464E+03</rscale>
<asrwt>0</asrwt>
<pdfrwt beam="2">  1        2 0.18611356E-01 0.14264273E+03</pdfrwt>
<pdfrwt beam="1">  1       -2 0.22349488E-01 0.14264273E+03</pdfrwt>
<totfact> 0.50045249E+03</totfact>
</mgrwt>
</event>
<event>
 7    1  0.5107591E-006  0.1610994E+03  0.7546771E-02  0.1197813E+00
          4   -1    0    0  501    0  0.00000000000E+00  0.00000000000E+00  0.34669039211E+03  0.34669039211E+03  0.00000000000E+00 0. -1.
         -4   -1    0    0    0  501 -0.00000000000E+00 -0.00000000000E+00 -0.83961345558E+02  0.83961345558E+02  0.00000000000E+00 0.  1.
         23    2    1    2    0    0  0.91003537178E+02 -0.45251120955E+02  0.23421081896E+03  0.26704762258E+03  0.78296981285E+02 0.  0.
          5    1    1    2  502    0 -0.63318758011E+02  0.88197331813E+02  0.10331023143E+02  0.10916434626E+03  0.47000000000E+01 0. -1.
         -5    1    1    2    0  502 -0.27684779167E+02 -0.42946210858E+02  0.18187204444E+02  0.54439768828E+02  0.47000000000E+01 0. -1.
        -11    1    3    3    0    0  0.78476466827E+02 -0.58420029214E+02  0.22754972430E+03  0.24768999312E+03  0.00000000000E+00 0. -1.
         11    1    3    3    0    0  0.12527070351E+02  0.13168908259E+02  0.66610946585E+01  0.19357629461E+02  0.00000000000E+00 0.  1.
<mgrwt>
<rscale>  0 0.15218550E+03</rscale>
<asrwt>0</asrwt>
<pdfrwt beam="1">  1        4 0.53336982E-01 0.16109940E+03</pdfrwt>
<pdfrwt beam="2">  1       -4 0.12917130E-01 0.16109940E+03</pdfrwt>
<totfact> 0.28527364E+02</totfact>
</mgrwt>
</event>
<event>
 7    1  0.5107591E-006  0.1859139E+03  0.7546771E-02  0.1167205E+00
         -2   -1    0    0    0  501 -0.00000000000E+00  0.00000000000E+00  0.64203519393E+02  0.64203519393E+02  0.00000000000E+00 0.  1.
          2   -1    0    0  501    0  0.00000000000E+00 -0.00000000000E+00 -0.51306051013E+03  0.51306051013E+03  0.00000000000E+00 0. -1.
         23    2    1    2    0    0  0.13359744189E+03  0.33029676092E+02 -0.28409416294E+03  0.32884748411E+03  0.92151714088E+02 0.  0.
          5    1    1    2  502    0 -0.15676936600E+03 -0.34992747454E+02 -0.13196647785E+03  0.20793837492E+03  0.47000000000E+01 0. -1.
         -5    1    1    2    0  502  0.23171924103E+02  0.19630713620E+01 -0.32796349946E+02  0.40478170482E+02  0.47000000000E+01 0. -1.
        -11    1    3    3    0    0  0.22364580519E+02  0.10073568010E+02 -0.18382464466E+01  0.24597365392E+02  0.00000000000E+00 0.  1.
         11    1    3    3    0    0  0.11123286138E+03  0.22956108082E+02 -0.28225591649E+03  0.30425011872E+03  0.00000000000E+00 0. -1.
<mgrwt>
<rscale>  0 0.18061945E+03</rscale>
<asrwt>0</asrwt>
<pdfrwt beam="2">  1        2 0.78932388E-01 0.18591393E+03</pdfrwt>
<pdfrwt beam="1">  1       -2 0.98774642E-02 0.18591393E+03</pdfrwt>
<totfact> 0.40176507E+03</totfact>
</mgrwt>
</event>
<event>
 7    1  0.5107591E-006  0.1404640E+03  0.7546771E-02  0.1230290E+00
         -2   -1    0    0    0  501 -0.00000000000E+00  0.00000000000E+00  0.34977191173E+02  0.34977191173E+02  0.00000000000E+00 0.  1.
          2   -1    0    0  501    0  0.00000000000E+00 -0.00000000000E+00 -0.41427491409E+03  0.41427491409E+03  0.00000000000E+00 0. -1.
         23    2    1    2    0    0 -0.10246439010E+02 -0.29065528315E+02 -0.19133320307E+03  0.21460174765E+03  0.92172235792E+02 0.  0.
          5    1    1    2  502    0  0.15514974146E+02 -0.39105543549E+00 -0.20101480641E+03  0.20166782030E+03  0.47000000000E+01 0. -1.
         -5    1    1    2    0  502 -0.52685351355E+01  0.29456583750E+02  0.13050286556E+02  0.32982537318E+02  0.47000000000E+01 0.  1.
        -11    1    3    3    0    0 -0.12579656477E+02  0.32825640593E+02 -0.64667767827E+02  0.73604963373E+02  0.00000000000E+00 0. -1.
         11    1    3    3    0    0  0.23332174662E+01 -0.61891168908E+02 -0.12666543524E+03  0.14099678428E+03  0.00000000000E+00 0.  1.
<mgrwt>
<rscale>  0 0.12810820E+03</rscale>
<asrwt>0</asrwt>
<pdfrwt beam="2">  1        2 0.63734601E-01 0.14046398E+03</pdfrwt>
<pdfrwt beam="1">  1       -2 0.53811064E-02 0.14046398E+03</pdfrwt>
<totfact> 0.12743084E+04</totfact>
</mgrwt>
</event>
<event>
 7    1  0.5107591E-006  0.1640418E+03  0.7546771E-02  0.1195254E+00
          1   -1    0    0  501    0  0.00000000000E+00  0.00000000000E+00  0.68713364501E+02  0.68713364501E+02  0.00000000000E+00 0. -1.
         -1   -1    0    0    0  501 -0.00000000000E+00 -0.00000000000E+00 -0.32290046769E+03  0.32290046769E+03  0.00000000000E+00 0.  1.
         23    2    1    2    0    0 -0.76129040759E+02 -0.74116747797E+02 -0.75467672065E+02  0.14902294670E+03  0.72274103001E+02 0.  0.
          5    1    1    2  502    0 -0.22767882656E+02  0.45101703746E+02 -0.22801882420E+02  0.55628733612E+02  0.47000000000E+01 0.  1.
         -5    1    1    2    0  502  0.98896923415E+02  0.29015044051E+02 -0.15591754870E+03  0.18696215188E+03  0.47000000000E+01 0.  1.
        -11    1    3    3    0    0 -0.36324299462E+02 -0.20082851781E+02 -0.70393250755E+02  0.81718941616E+02  0.00000000000E+00 0.  1.
         11    1    3    3    0    0 -0.39804741296E+02 -0.54033896016E+02 -0.50744213106E+01  0.67304005081E+02  0.00000000000E+00 0. -1.
<mgrwt>
<rscale>  0 0.15432715E+03</rscale>
<asrwt>0</asrwt>
<pdfrwt beam="1">  1        1 0.10571287E-01 0.16404177E+03</pdfrwt>
<pdfrwt beam="2">  1       -1 0.49676994E-01 0.16404177E+03</pdfrwt>
<totfact> 0.24182074E+03</totfact>
</mgrwt>
</event>
<event>
 7    1  0.5107591E-006  0.1703911E+03  0.7546771E-02  0.1184010E+00
          2   -1    0    0  501    0  0.00000000000E+00  0.00000000000E+00  0.64823514551E+03  0.64823514551E+03  0.00000000000E+00 0. -1.
         -2   -1    0    0    0  501 -0.00000000000E+00 -0.00000000000E+00 -0.39831122238E+02  0.39831122238E+02  0.00000000000E+00 0.  1.
         23    2    1    2    0    0  0.16652929239E+02 -0.11459829657E+03  0.33601787596E+03  0.36677613597E+03  0.90590459338E+02 0.  0.
          5    1    1    2  502    0 -0.34086751921E+02  0.13655299360E+03  0.21146266888E+03  0.25406136473E+03  0.47000000000E+01 0.  1.
         -5    1    1    2    0  502  0.17433822681E+02 -0.21954697030E+02  0.60923478431E+02  0.67228767050E+02  0.47000000000E+01 0.  1.
        -11    1    3    3    0    0 -0.10033590172E+02 -0.48088435512E+02  0.25017139187E+03  0.25494881030E+03  0.00000000000E+00 0.  1.
         11    1    3    3    0    0  0.26686519411E+02 -0.66509861058E+02  0.85846484084E+02  0.11182732567E+03  0.00000000000E+00 0. -1.
<mgrwt>
<rscale>  0 0.16422299E+03</rscale>
<asrwt>0</asrwt>
<pdfrwt beam="1">  1        2 0.99728476E-01 0.17039113E+03</pdfrwt>
<pdfrwt beam="2">  1       -2 0.61278654E-02 0.17039113E+03</pdfrwt>
<totfact> 0.64310537E+03</totfact>
</mgrwt>
</event>
<event>
 7    1  0.5107591E-006  0.1520088E+03  0.7546771E-02  0.1205762E+00
          1   -1    0    0  501    0  0.00000000000E+00  0.00000000000E+00  0.24094947377E+03  0.24094947377E+03  0.00000000000E+00 0. -1.
         -1   -1    0    0    0  501 -0.00000000000E+00 -0.00000000000E+00 -0.13060999448E+03  0.13060999448E+03  0.00000000000E+00 0.  1.
         23    2    1    2    0    0  0.21097227979E+02  0.83895619808E+02  0.16574857123E+03  0.20976689819E+03  0.95110434028E+02 0.  0.
          5    1    1    2  502    0 -0.14673631535E+02  0.70809269185E+01 -0.67567374962E+02  0.69662724234E+02  0.47000000000E+01 0.  1.
         -5    1    1    2    0  502 -0.64235964439E+01 -0.90976546727E+02  0.12158283011E+02  0.92129845823E+02  0.47000000000E+01 0.  1.
        -11    1    3    3    0    0  0.58583960630E+01  0.41606856636E+02  0.43688001685E+01  0.42243789348E+02  0.00000000000E+00 0.  1.
         11    1    3    3    0    0  0.15238831916E+02  0.42288763172E+02  0.16137977106E+03  0.16752310885E+03  0.00000000000E+00 0. -1.
<mgrwt>
<rscale>  0 0.14577538E+03</rscale>
<asrwt>0</asrwt>
<pdfrwt beam="1">  1        1 0.37069150E-01 0.15200878E+03</pdfrwt>
<pdfrwt beam="2">  1       -1 0.20093845E-01 0.15200878E+03</pdfrwt>
<totfact> 0.22657523E+03</totfact>
</mgrwt>
</event>
<event>
 7    1  0.5107591E-006  0.1527998E+03  0.7546771E-02  0.1206019E+00
         -1   -1    0    0    0  501 -0.00000000000E+00  0.00000000000E+00  0.52439881957E+02  0.52439881957E+02  0.00000000000E+00 0.  1.
          1   -1    0    0  501    0  0.00000000000E+00 -0.00000000000E+00 -0.37778061802E+03  0.37778061802E+03  0.00000000000E+00 0. -1.
         23    2    1    2    0    0  0.27086495423E+02  0.83585493564E+02 -0.17748494910E+03  0.21759612098E+03  0.90149607535E+02 0.  0.
          5    1    1    2  502    0  0.43476502104E+02 -0.64484051326E+02 -0.60664778052E+02  0.98745655128E+02  0.47000000000E+01 0. -1.
         -5    1    1    2    0  502 -0.70562997528E+02 -0.19101442238E+02 -0.87191008915E+02  0.11387872387E+03  0.47000000000E+01 0. -1.
        -11    1    3    3    0    0 -0.35695362274E+01  0.35597422682E+02 -0.52093618496E+01  0.36153223111E+02  0.00000000000E+00 0.  1.
         11    1    3    3    0    0  0.30656031651E+02  0.47988070883E+02 -0.17227558725E+03  0.18144289787E+03  0.00000000000E+00 0. -1.
<mgrwt>
<rscale>  0 0.14557478E+03</rscale>
<asrwt>0</asrwt>
<pdfrwt beam="2">  1        1 0.58120095E-01 0.15279985E+03</pdfrwt>
<pdfrwt beam="1">  1       -1 0.80676741E-02 0.15279985E+03</pdfrwt>
<totfact> 0.53567694E+03</totfact>
</mgrwt>
</event>
<event>
 7    1  0.5107591E-006  0.1560751E+03  0.7546771E-02  0.1201820E+00
          1   -1    0    0  501    0  0.00000000000E+00  0.00000000000E+00  0.10012487225E+04  0.10012487225E+04  0.00000000000E+00 0. -1.
         -1   -1    0    0    0  501 -0.00000000000E+00 -0.00000000000E+00 -0.20363240034E+02  0.20363240034E+02  0.00000000000E+00 0.  1.
         23    2    1    2    0    0 -0.93085733344E+02  0.83326270267E+01  0.42666096052E+03  0.44583053562E+03  0.89391861147E+02 0.  0.
          5    1    1    2  502    0  0.20631298856E+02  0.19031996120E+02  0.41831782740E+03  0.41928482215E+03  0.47000000000E+01 0.  1.
         -5    1    1    2    0  502  0.72454434488E+02 -0.27364623147E+02  0.13590669455E+03  0.15649660476E+03  0.47000000000E+01 0.  1.
        -11    1    3    3    0    0 -0.80951368667E+02  0.31165582085E+02  0.39750981604E+03  0.40686419287E+03  0.00000000000E+00 0. -1.
         11    1    3    3    0    0 -0.12134364677E+02 -0.22832955058E+02  0.29151144476E+02  0.38966342747E+02  0.00000000000E+00 0.  1.
<mgrwt>
<rscale>  0 0.14890932E+03</rscale>
<asrwt>0</asrwt>
<pdfrwt beam="1">  1        1 0.15403823E+00 0.15607508E+03</pdfrwt>
<pdfrwt beam="2">  1       -1 0.31328069E-02 0.15607508E+03</pdfrwt>
<totfact> 0.55322564E+03</totfact>
</mgrwt>
</event>
<event>
 7    1  0.5107591E-006  0.2212174E+03  0.7546771E-02  0.1136310E+00
          2   -1    0    0  501    0  0.00000000000E+00  0.00000000000E+00  0.96595170497E+03  0.96595170497E+03  0.00000000000E+00 0. -1.
         -2   -1    0    0    0  501 -0.00000000000E+00 -0.00000000000E+00 -0.47349256261E+02  0.47349256261E+02  0.00000000000E+00 0.  1.
         23    2    1    2    0    0 -0.17763638483E+03 -0.41915540011E+02  0.49585721867E+03  0.53617346119E+03  0.91082388349E+02 0.  0.
          5    1    1    2  502    0  0.70588545511E+02 -0.22009600007E+02  0.66110701208E+02  0.99296928774E+02  0.47000000000E+01 0. -1.
         -5    1    1    2    0  502  0.10704783932E+03  0.63925140018E+02  0.35663452883E+03  0.37783057127E+03  0.47000000000E+01 0. -1.
        -11    1    3    3    0    0 -0.14416907709E+03 -0.32561804907E+01  0.42495734960E+03  0.44875836981E+03  0.00000000000E+00 0.  1.
         11    1    3    3    0    0 -0.33467307743E+02 -0.38659359520E+02  0.70899869071E+02  0.87415091376E+02  0.00000000000E+00 0. -1.
<mgrwt>
<rscale>  0 0.21677590E+03</rscale>
<asrwt>0</asrwt>
<pdfrwt beam="1">  1        2 0.14860794E+00 0.22121736E+03</pdfrwt>
<pdfrwt beam="2">  1       -2 0.72845017E-02 0.22121736E+03</pdfrwt>
<totfact> 0.30037498E+03</totfact>
</mgrwt>
</event>
<event>
 7    1  0.5107591E-006  0.1838437E+03  0.7546771E-02  0.1169431E+00
          2   -1    0    0  501    0  0.00000000000E+00  0.00000000000E+00  0.45010715169E+02  0.45010715169E+02  0.00000000000E+00 0.  1.
         -2   -1    0    0    0  501 -0.00000000000E+00 -0.00000000000E+00 -0.68888200101E+03  0.68888200101E+03  0.00000000000E+00 0. -1.
         23    2    1    2    0    0 -0.23701770194E+02 -0.13270713992E+03 -0.23803297909E+03  0.28835567587E+03  0.91193956891E+02 0.  0.
          5    1    1    2  502    0  0.57814668227E+02  0.70205392815E+02 -0.32588353657E+03  0.33836888517E+03  0.47000000000E+01 0. -1.
         -5    1    1    2    0  502 -0.34112898033E+02  0.62501747101E+02 -0.79954770185E+02  0.10716815515E+03  0.47000000000E+01 0. -1.
        -11    1    3    3    0    0  0.34585795992E+02 -0.61987600985E+02 -0.98258727048E+02  0.12121640731E+03  0.00000000000E+00 0.  1.
         11    1    3    3    0    0 -0.58287566186E+02 -0.70719538932E+02 -0.13977425204E+03  0.16713926856E+03  0.00000000000E+00 0. -1.
<mgrwt>
<rscale>  0 0.17832837E+03</rscale>
<asrwt>0</asrwt>
<pdfrwt beam="1">  1        2 0.69247258E-02 0.18384375E+03</pdfrwt>
<pdfrwt beam="2">  1       -2 0.10598184E+00 0.18384375E+03</pdfrwt>
<totfact> 0.75683439E+02</totfact>
</mgrwt>
</event>
<event>
 7    1  0.5107591E-006  0.1426902E+03  0.7546771E-02  0.1218088E+00
         -2   -1    0    0    0  501 -0.00000000000E+00  0.00000000000E+00  0.49114373999E+02  0.49114373999E+02  0.00000000000E+00 0.  1.
          2   -1    0    0  501    0  0.00000000000E+00 -0.00000000000E+00 -0.35114929928E+03  0.35114929928E+03  0.00000000000E+00 0. -1.
         23    2    1    2    0    0  0.66687234763E+02  0.16975369654E+02 -0.14865025209E+03  0.19077062279E+03  0.97781299956E+02 0.  0.
          5    1    1    2  502    0  0.33145761251E+02 -0.21927310345E+02 -0.26934935019E+02  0.48239290546E+02  0.47000000000E+01 0. -1.
         -5    1    1    2    0  502 -0.99832996014E+02  0.49519406903E+01 -0.12644973817E+03  0.16125375994E+03  0.47000000000E+01 0. -1.
        -11    1    3    3    0    0  0.26320051615E+02  0.40460851581E+02 -0.17151591115E+02  0.51225020307E+02  0.00000000000E+00 0.  1.
         11    1    3    3    0    0  0.40367183148E+02 -0.23485481927E+02 -0.13149866097E+03  0.13954560249E+03  0.00000000000E+00 0. -1.
<mgrwt>
<rscale>  0 0.13652096E+03</rscale>
<asrwt>0</asrwt>
<pdfrwt beam="2">  1        2 0.54022969E-01 0.14269015E+03</pdfrwt>
<pdfrwt beam="1">  1       -2 0.75560575E-02 0.14269015E+03</pdfrwt>
<totfact> 0.90743580E+03</totfact>
</mgrwt>
</event>
<event>
 7    1  0.5107591E-006  0.1369173E+03  0.7546771E-02  0.1229550E+00
         -1   -1    0    0    0  501 -0.00000000000E+00  0.00000000000E+00  0.23867714525E+02  0.23867714525E+02  0.00000000000E+00 0.  1.
          1   -1    0    0  501    0  0.00000000000E+00 -0.00000000000E+00 -0.77519331267E+03  0.77519331267E+03  0.00000000000E+00 0. -1.
         23    2    1    2    0    0 -0.54738012044E+02  0.11143252582E+02 -0.51526715362E+03  0.52616922222E+03  0.90738022743E+02 0.  0.
          5    1    1    2  502    0  0.26395425691E+02  0.38340198252E+02 -0.19968048512E+03  0.20508796999E+03  0.47000000000E+01 0.  1.
         -5    1    1    2    0  502  0.28342586353E+02 -0.49483450834E+02 -0.36377959410E+02  0.67803834983E+02  0.47000000000E+01 0.  1.
        -11    1    3    3    0    0  0.23119818795E+02 -0.18350538365E+01 -0.64488821389E+02  0.68532485201E+02  0.00000000000E+00 0.  1.
         11    1    3    3    0    0 -0.77857830839E+02  0.12978306419E+02 -0.45077833223E+03  0.45763673702E+03  0.00000000000E+00 0. -1.
<mgrwt>
<rscale>  0 0.12859866E+03</rscale>
<asrwt>0</asrwt>
<pdfrwt beam="2">  1        1 0.11926052E+00 0.13691730E+03</pdfrwt>
<pdfrwt beam="1">  1       -1 0.36719559E-02 0.13691730E+03</pdfrwt>
<totfact> 0.65367399E+03</totfact>
</mgrwt>
</event>
<event>
 7    1  0.5107591E-006  0.4521548E+03  0.7546771E-02  0.1075308E+00
         -2   -1    0    0    0  501 -0.00000000000E+00  0.00000000000E+00  0.30656175754E+03  0.30656175754E+03  0.00000000000E+00 0.  1.
          2   -1    0    0  501    0  0.00000000000E+00 -0.00000000000E+00 -0.51887815380E+03  0.51887815380E+03  0.00000000000E+00 0. -1.
         23    2    1    2    0    0  0.64021881126E+02 -0.23870603675E+02 -0.33740603680E+03  0.35630094205E+03  0.91863598082E+02 0.  0.
          5    1    1    2  502    0 -0.66821291975E+02  0.20617999517E+03 -0.43106608353E+02  0.22103290513E+03  0.47000000000E+01 0. -1.
         -5    1    1    2    0  502  0.27994108491E+01 -0.18230939149E+03  0.16819624889E+03  0.24810606415E+03  0.47000000000E+01 0.  1.
        -11    1    3    3    0    0  0.16984060020E+02  0.15710249131E+02 -0.13867240127E+02  0.26973516109E+02  0.00000000000E+00 0.  1.
         11    1    3    3    0    0  0.47037821106E+02 -0.39580852806E+02 -0.32353879667E+03  0.32932742594E+03  0.00000000000E+00 0. -1.
<mgrwt>
<rscale>  0 0.32074172E+03</rscale>
<asrwt>0</asrwt>
<pdfrwt beam="2">  1        2 0.79827409E-01 0.45215479E+03</pdfrwt>
<pdfrwt beam="1">  1       -2 0.47163347E-01 0.45215479E+03</pdfrwt>
<totfact> 0.25675067E+02</totfact>
</mgrwt>
</event>
<event>
 7    1  0.5107591E-006  0.1393699E+03  0.7546771E-02  0.1226293E+00
          2   -1    0    0  501    0  0.00000000000E+00  0.00000000000E+00  0.13541074383E+03  0.13541074383E+03  0.00000000000E+00 0.  1.
         -2   -1    0    0    0  501 -0.00000000000E+00 -0.00000000000E+00 -0.12728792115E+03  0.12728792115E+03  0.00000000000E+00 0. -1.
         23    2    1    2    0    0 -0.30637815242E+02  0.53628065106E+02  0.47226128740E+02  0.11794700483E+03  0.88693537663E+02 0.  0.
          5    1    1    2  502    0  0.63181343571E+01 -0.92716533584E+02 -0.27821230224E+02  0.97120467836E+02  0.47000000000E+01 0. -1.
         -5    1    1    2    0  502  0.24319680885E+02  0.39088468477E+02 -0.11282075833E+02  0.47631192315E+02  0.47000000000E+01 0. -1.
        -11    1    3    3    0    0 -0.60828338328E+02  0.36821624949E+02  0.43101698175E+02  0.83148512874E+02  0.00000000000E+00 0.  1.
         11    1    3    3    0    0  0.30190523087E+02  0.16806440157E+02  0.41244305653E+01  0.34798491957E+02  0.00000000000E+00 0. -1.
<mgrwt>
<rscale>  0 0.13078642E+03</rscale>
<asrwt>0</asrwt>
<pdfrwt beam="1">  1        2 0.20832422E-01 0.13936992E+03</pdfrwt>
<pdfrwt beam="2">  1       -2 0.19582757E-01 0.13936992E+03</pdfrwt>
<totfact> 0.55081190E+03</totfact>
</mgrwt>
</event>
<event>
 7    1  0.5107591E-006  0.2165088E+03  0.7546771E-02  0.1168903E+00
         -1   -1    0    0    0  501 -0.00000000000E+00  0.00000000000E+00  0.76854504601E+02  0.76854504601E+02  0.00000000000E+00 0.  1.
          1   -1    0    0  501    0  0.00000000000E+00 -0.00000000000E+00 -0.37157844199E+03  0.37157844199E+03  0.00000000000E+00 0. -1.
         23    2    1    2    0    0  0.88161816310E+01 -0.42750584356E+02 -0.17246492540E+03  0.19978999191E+03  0.90920585426E+02 0.  0.
          5    1    1    2  502    0 -0.79271012093E+02  0.46223690753E+01 -0.14486900633E+03  0.16527062246E+03  0.47000000000E+01 0. -1.
         -5    1    1    2    0  502  0.70454830462E+02  0.38128215281E+02  0.22609994336E+02  0.83372332220E+02  0.47000000000E+01 0.  1.
        -11    1    3    3    0    0  0.13053373061E+02 -0.67095338680E+02 -0.85954764103E+02  0.10981983652E+03  0.00000000000E+00 0.  1.
         11    1    3    3    0    0 -0.42371914303E+01  0.24344754324E+02 -0.86510161297E+02  0.89970155396E+02  0.00000000000E+00 0. -1.
<mgrwt>
<rscale>  0 0.17886767E+03</rscale>
<asrwt>0</asrwt>
<pdfrwt beam="2">  1        1 0.57165914E-01 0.21650878E+03</pdfrwt>
<pdfrwt beam="1">  1       -1 0.11823770E-01 0.21650878E+03</pdfrwt>
<totfact> 0.30885007E+03</totfact>
</mgrwt>
</event>
<event>
 7    1  0.5107591E-006  0.1534420E+03  0.7546771E-02  0.1204509E+00
         -1   -1    0    0    0  501 -0.00000000000E+00  0.00000000000E+00  0.41820506407E+02  0.41820506407E+02  0.00000000000E+00 0.  1.
          1   -1    0    0  501    0  0.00000000000E+00 -0.00000000000E+00 -0.48336915221E+03  0.48336915221E+03  0.00000000000E+00 0. -1.
         23    2    1    2    0    0  0.81459464987E+02 -0.35948461921E+02 -0.23611393201E+03  0.26877621446E+03  0.92536091446E+02 0.  0.
          5    1    1    2  502    0 -0.98691587612E+02  0.10800670000E+00 -0.18872151388E+03  0.21302098707E+03  0.47000000000E+01 0.  1.
         -5    1    1    2    0  502  0.17232122626E+02  0.35840455221E+02 -0.16713199911E+02  0.43392457086E+02  0.47000000000E+01 0.  1.
        -11    1    3    3    0    0  0.49353119624E+02  0.19392059229E+02 -0.53703390105E+02  0.75470765774E+02  0.00000000000E+00 0.  1.
         11    1    3    3    0    0  0.32106345363E+02 -0.55340521151E+02 -0.18241054191E+03  0.19330544869E+03  0.00000000000E+00 0. -1.
<mgrwt>
<rscale>  0 0.14676196E+03</rscale>
<asrwt>0</asrwt>
<pdfrwt beam="2">  1        1 0.74364487E-01 0.15344195E+03</pdfrwt>
<pdfrwt beam="1">  1       -1 0.64339239E-02 0.15344195E+03</pdfrwt>
<totfact> 0.54986795E+03</totfact>
</mgrwt>
</event>
<event>
 7    1  0.5107591E-006  0.1736173E+03  0.7546771E-02  0.1180428E+00
         -2   -1    0    0    0  501 -0.00000000000E+00  0.00000000000E+00  0.65155982339E+02  0.65155982339E+02  0.00000000000E+00 0.  1.
          2   -1    0    0  501    0  0.00000000000E+00 -0.00000000000E+00 -0.50799097682E+03  0.50799097682E+03  0.00000000000E+00 0. -1.
         23    2    1    2    0    0  0.40005563674E+02  0.11365289940E+03 -0.33876828836E+03  0.37072942433E+03  0.90326774515E+02 0.  0.
          5    1    1    2  502    0 -0.82222752599E+02 -0.50094372477E+02 -0.48495269407E+02  0.10790694303E+03  0.47000000000E+01 0.  1.
         -5    1    1    2    0  502  0.42217188925E+02 -0.63558526922E+02 -0.55571436711E+02  0.94510591805E+02  0.47000000000E+01 0.  1.
        -11    1    3    3    0    0  0.14652096408E+02  0.55054180195E+02 -0.52649814092E+02  0.77573511007E+02  0.00000000000E+00 0.  1.
         11    1    3    3    0    0  0.25353467266E+02  0.58598719204E+02 -0.28611847427E+03  0.29315591332E+03  0.00000000000E+00 0. -1.
<mgrwt>
<rscale>  0 0.16754886E+03</rscale>
<asrwt>0</asrwt>
<pdfrwt beam="2">  1        2 0.78152455E-01 0.17361734E+03</pdfrwt>
<pdfrwt beam="1">  1       -2 0.10023998E-01 0.17361734E+03</pdfrwt>
<totfact> 0.39578526E+03</totfact>
</mgrwt>
</event>
<event>
 7    1  0.5107591E-006  0.1499574E+03  0.7546771E-02  0.1218759E+00
          1   -1    0    0  501    0  0.00000000000E+00  0.00000000000E+00  0.11248982050E+02  0.11248982050E+02  0.00000000000E+00 0. -1.
         -1   -1    0    0    0  501 -0.00000000000E+00 -0.00000000000E+00 -0.15035549637E+04  0.15035549637E+04  0.00000000000E+00 0.  1.
         23    2    1    2    0    0 -0.61505568039E+02 -0.66270456906E+01 -0.42238854569E+03  0.43442875634E+03  0.80556862963E+02 0.  0.
          5    1    1    2  502    0  0.88764623457E+02 -0.37594968346E+02 -0.75921850943E+03  0.76532827929E+03  0.47000000000E+01 0. -1.
         -5    1    1    2    0  502 -0.27259055418E+02  0.44222014036E+02 -0.31069892651E+03  0.31504691009E+03  0.47000000000E+01 0.  1.
        -11    1    3    3    0    0  0.13411319049E+02 -0.21226695088E+02 -0.95194205160E+02  0.98449848953E+02  0.00000000000E+00 0. -1.
         11    1    3    3    0    0 -0.74916887088E+02  0.14599649397E+02 -0.32719434053E+03  0.33597890739E+03  0.00000000000E+00 0.  1.
<mgrwt>
<rscale>  0 0.13603989E+03</rscale>
<asrwt>0</asrwt>
<pdfrwt beam="1">  1        1 0.17306126E-02 0.14995743E+03</pdfrwt>
<pdfrwt beam="2">  1       -1 0.23131615E+00 0.14995743E+03</pdfrwt>
<totfact> 0.76534211E+02</totfact>
</mgrwt>
</event>
<event>
 7    1  0.5107591E-006  0.2761194E+03  0.7546771E-02  0.1099697E+00
          1   -1    0    0  501    0  0.00000000000E+00  0.00000000000E+00  0.58170010376E+03  0.58170010376E+03  0.00000000000E+00 0. -1.
         -1   -1    0    0    0  501 -0.00000000000E+00 -0.00000000000E+00 -0.12493533480E+03  0.12493533480E+03  0.00000000000E+00 0.  1.
         23    2    1    2    0    0 -0.13498304103E+03 -0.20590511506E+03  0.21929221756E+03  0.34244436856E+03  0.92529622817E+02 0.  0.
          5    1    1    2  502    0  0.15422701857E+03  0.15834549947E+03  0.21356317693E+03  0.30739321886E+03  0.47000000000E+01 0.  1.
         -5    1    1    2    0  502 -0.19243977536E+02  0.47559615591E+02  0.23909374466E+02  0.56797851138E+02  0.47000000000E+01 0.  1.
        -11    1    3    3    0    0 -0.73936309254E+02 -0.40552038594E+02  0.93430829578E+02  0.12585851412E+03  0.00000000000E+00 0.  1.
         11    1    3    3    0    0 -0.61046731776E+02 -0.16535307647E+03  0.12586138798E+03  0.21658585444E+03  0.00000000000E+00 0. -1.
<mgrwt>
<rscale>  0 0.27278440E+03</rscale>
<asrwt>0</asrwt>
<pdfrwt beam="1">  1        1 0.89492322E-01 0.27611940E+03</pdfrwt>
<pdfrwt beam="2">  1       -1 0.19220821E-01 0.27611940E+03</pdfrwt>
<totfact> 0.79271011E+02</totfact>
</mgrwt>
</event>
<event>
 7    1  0.5107591E-006  0.2174524E+03  0.7546771E-02  0.1171174E+00
         -1   -1    0    0    0  501 -0.00000000000E+00  0.00000000000E+00  0.13220239672E+03  0.13220239672E+03  0.00000000000E+00 0.  1.
          1   -1    0    0  501    0  0.00000000000E+00 -0.00000000000E+00 -0.27741638065E+03  0.27741638065E+03  0.00000000000E+00 0. -1.
         23    2    1    2    0    0 -0.91789594299E+00  0.25418907857E+02 -0.16616150079E+03  0.19115972326E+03  0.91024348630E+02 0.  0.
          5    1    1    2  502    0  0.60081383378E+02  0.76340251787E+02 -0.65804896861E+01  0.97483329427E+02  0.47000000000E+01 0. -1.
         -5    1    1    2    0  502 -0.59163487435E+02 -0.10175915964E+03  0.27528006542E+02  0.12097572468E+03  0.47000000000E+01 0.  1.
        -11    1    3    3    0    0 -0.43619729363E+02 -0.21584321494E+01 -0.75748028377E+02  0.87436282070E+02  0.00000000000E+00 0. -1.
         11    1    3    3    0    0  0.42701833420E+02  0.27577340006E+02 -0.90413472415E+02  0.10372344120E+03  0.00000000000E+00 0.  1.
<mgrwt>
<rscale>  0 0.17656076E+03</rscale>
<asrwt>0</asrwt>
<pdfrwt beam="2">  1        1 0.42679443E-01 0.21745243E+03</pdfrwt>
<pdfrwt beam="1">  1       -1 0.20338830E-01 0.21745243E+03</pdfrwt>
<totfact> 0.18843037E+03</totfact>
</mgrwt>
</event>
<event>
 7    1  0.5107591E-006  0.1728077E+03  0.7546771E-02  0.1181608E+00
         -1   -1    0    0    0  501 -0.00000000000E+00  0.00000000000E+00  0.92133629644E+02  0.92133629644E+02  0.00000000000E+00 0.  1.
          1   -1    0    0  501    0  0.00000000000E+00 -0.00000000000E+00 -0.28199248587E+03  0.28199248587E+03  0.00000000000E+00 0. -1.
         23    2    1    2    0    0  0.68197600960E+02 -0.97892384092E+02 -0.10132912703E+03  0.17996124152E+03  0.88795409923E+02 0.  0.
          5    1    1    2  502    0  0.26935769083E+02  0.66595462833E+02 -0.29355832920E+02  0.77745393770E+02  0.47000000000E+01 0.  1.
         -5    1    1    2    0  502 -0.95133370042E+02  0.31296921259E+02 -0.59173896274E+02  0.11641948023E+03  0.47000000000E+01 0.  1.
        -11    1    3    3    0    0  0.81748436067E+02 -0.57989695179E+02 -0.45653630726E+02  0.11013566881E+03  0.00000000000E+00 0.  1.
         11    1    3    3    0    0 -0.13550835108E+02 -0.39902688913E+02 -0.55675496304E+02  0.69825572703E+02  0.00000000000E+00 0. -1.
<mgrwt>
<rscale>  0 0.16644340E+03</rscale>
<asrwt>0</asrwt>
<pdfrwt beam="2">  1        1 0.43383460E-01 0.17280765E+03</pdfrwt>
<pdfrwt beam="1">  1       -1 0.14174404E-01 0.17280765E+03</pdfrwt>
<totfact> 0.32611296E+03</totfact>
</mgrwt>
</event>
<event>
 7    1  0.5107591E-006  0.2146188E+03  0.7546771E-02  0.1141618E+00
          1   -1    0    0  501    0  0.00000000000E+00  0.00000000000E+00  0.16997838475E+03  0.16997838475E+03  0.00000000000E+00 0. -1.
         -1   -1    0    0    0  501 -0.00000000000E+00 -0.00000000000E+00 -0.27749021642E+03  0.27749021642E+03  0.00000000000E+00 0.  1.
         23    2    1    2    0    0  0.16798220044E+02 -0.17364999087E+03  0.20533430670E+02  0.19755494749E+03  0.90387144979E+02 0.  0.
          5    1    1    2  502    0 -0.44264290536E+02  0.17516611258E+03 -0.87778593426E+02  0.20092203930E+03  0.47000000000E+01 0.  1.
         -5    1    1    2    0  502  0.27466070492E+02 -0.15161217094E+01 -0.40266668913E+02  0.48991614371E+02  0.47000000000E+01 0.  1.
        -11    1    3    3    0    0 -0.46471534671E+01 -0.12105451085E+03  0.52889667657E+02  0.13218588267E+03  0.00000000000E+00 0. -1.
         11    1    3    3    0    0  0.21445373511E+02 -0.52595480018E+02 -0.32356236987E+02  0.65369064819E+02  0.00000000000E+00 0.  1.
<mgrwt>
<rscale>  0 0.20993420E+03</rscale>
<asrwt>0</asrwt>
<pdfrwt beam="1">  1        1 0.26150521E-01 0.21461884E+03</pdfrwt>
<pdfrwt beam="2">  1       -1 0.42690802E-01 0.21461884E+03</pdfrwt>
<totfact> 0.98943670E+02</totfact>
</mgrwt>
</event>
<event>
 7    1  0.5107591E-006  0.2288848E+03  0.7546771E-02  0.1130437E+00
         -1   -1    0    0    0  501 -0.00000000000E+00  0.00000000000E+00  0.31818217085E+03  0.31818217085E+03  0.00000000000E+00 0.  1.
          1   -1    0    0  501    0  0.00000000000E+00 -0.00000000000E+00 -0.15928003205E+03  0.15928003205E+03  0.00000000000E+00 0. -1.
         23    2    1    2    0    0  0.14635688816E+03 -0.12390355099E+03  0.12360132318E+03  0.24587115796E+03  0.91667390942E+02 0.  0.
          5    1    1    2  502    0 -0.10775184531E+03  0.97595598247E+01  0.16152132875E+02  0.10949287909E+03  0.47000000000E+01 0.  1.
         -5    1    1    2    0  502 -0.38605042854E+02  0.11414399117E+03  0.19148682748E+02  0.12209816585E+03  0.47000000000E+01 0.  1.
        -11    1    3    3    0    0  0.75833105025E+02 -0.45992305661E+02  0.10780869529E+03  0.13960181509E+03  0.00000000000E+00 0.  1.
         11    1    3    3    0    0  0.70523783135E+02 -0.77911245331E+02  0.15792627896E+02  0.10626934286E+03  0.00000000000E+00 0. -1.
<mgrwt>
<rscale>  0 0.22468570E+03</rscale>
<asrwt>0</asrwt>
<pdfrwt beam="2">  1        1 0.24504620E-01 0.22888483E+03</pdfrwt>
<pdfrwt beam="1">  1       -1 0.48951103E-01 0.22888483E+03</pdfrwt>
<totfact> 0.83888196E+02</totfact>
</mgrwt>
</event>
<event>
 7    1  0.5107591E-006  0.1366772E+03  0.7546771E-02  0.1224331E+00
         -1   -1    0    0    0  501 -0.00000000000E+00  0.00000000000E+00  0.45829615166E+03  0.45829615166E+03  0.00000000000E+00 0.  1.
          1   -1    0    0  501    0  0.00000000000E+00 -0.00000000000E+00 -0.15274954346E+03  0.15274954346E+03  0.00000000000E+00 0. -1.
         23    2    1    2    0    0  0.54783836512E+02  0.72320509717E+01 -0.11687626435E+03  0.16706174228E+03  0.10581112069E+03 0.  0.
          5    1    1    2  502    0 -0.86305838976E+02 -0.48918171710E+01  0.38573289934E+03  0.39532845503E+03  0.47000000000E+01 0.  1.
         -5    1    1    2    0  502  0.31522002464E+02 -0.23402338006E+01  0.36689973200E+02  0.48655497809E+02  0.47000000000E+01 0.  1.
        -11    1    3    3    0    0  0.33465222281E+01  0.17343456394E+02  0.16240609824E+02  0.23994834822E+02  0.00000000000E+00 0.  1.
         11    1    3    3    0    0  0.51437314284E+02 -0.10111405422E+02 -0.13311687417E+03  0.14306690746E+03  0.00000000000E+00 0. -1.
<mgrwt>
<rscale>  0 0.13212875E+03</rscale>
<asrwt>0</asrwt>
<pdfrwt beam="2">  1        1 0.23499930E-01 0.13667724E+03</pdfrwt>
<pdfrwt beam="1">  1       -1 0.70507100E-01 0.13667724E+03</pdfrwt>
<totfact> 0.44043485E+02</totfact>
</mgrwt>
</event>
<event>
 7    1  0.5107591E-006  0.1405795E+03  0.7546771E-02  0.1223738E+00
         -2   -1    0    0    0  501 -0.00000000000E+00  0.00000000000E+00  0.87320994040E+02  0.87320994040E+02  0.00000000000E+00 0.  1.
          2   -1    0    0  501    0  0.00000000000E+00 -0.00000000000E+00 -0.19773336581E+03  0.19773336581E+03  0.00000000000E+00 0. -1.
         23    2    1    2    0    0  0.40465460775E+02 -0.50005854499E+02 -0.90093449543E+02  0.14301406863E+03  0.90543664463E+02 0.  0.
          5    1    1    2  502    0  0.16518231408E+02  0.70581240442E+02 -0.33288900739E+02  0.79904970956E+02  0.47000000000E+01 0. -1.
         -5    1    1    2    0  502 -0.56983692183E+02 -0.20575385943E+02  0.12969978516E+02  0.62135320263E+02  0.47000000000E+01 0. -1.
        -11    1    3    3    0    0  0.16490161923E+02 -0.74699963320E+02 -0.65548456154E+02  0.10074031003E+03  0.00000000000E+00 0. -1.
         11    1    3    3    0    0  0.23975298852E+02  0.24694108821E+02 -0.24544993389E+02  0.42273758598E+02  0.00000000000E+00 0.  1.
<mgrwt>
<rscale>  0 0.13253759E+03</rscale>
<asrwt>0</asrwt>
<pdfrwt beam="2">  1        2 0.30420518E-01 0.14057946E+03</pdfrwt>
<pdfrwt beam="1">  1       -2 0.13433999E-01 0.14057946E+03</pdfrwt>
<totfact> 0.67594966E+03</totfact>
</mgrwt>
</event>
<event>
 7    1  0.5107591E-006  0.1604194E+03  0.7546771E-02  0.1195732E+00
         -2   -1    0    0    0  501 -0.00000000000E+00  0.00000000000E+00  0.46969179776E+02  0.46969179776E+02  0.00000000000E+00 0. -1.
          2   -1    0    0  501    0  0.00000000000E+00 -0.00000000000E+00 -0.49004537690E+03  0.49004537690E+03  0.00000000000E+00 0.  1.
         23    2    1    2    0    0 -0.95939320549E+02  0.30081903210E+02 -0.14681625204E+03  0.20011049363E+03  0.91541923019E+02 0.  0.
          5    1    1    2  502    0  0.78868112269E+02  0.18241288844E+02 -0.77480063274E+02  0.11215245854E+03  0.47000000000E+01 0. -1.
         -5    1    1    2    0  502  0.17071208279E+02 -0.48323192054E+02 -0.21877988181E+03  0.22475160450E+03  0.47000000000E+01 0. -1.
        -11    1    3    3    0    0 -0.68575716191E+02 -0.67128302500E+01 -0.31016783732E+02  0.75562767380E+02  0.00000000000E+00 0. -1.
         11    1    3    3    0    0 -0.27363604358E+02  0.36794733460E+02 -0.11579946831E+03  0.12454772625E+03  0.00000000000E+00 0.  1.
<mgrwt>
<rscale>  0 0.15392440E+03</rscale>
<asrwt>0</asrwt>
<pdfrwt beam="2">  1        2 0.75391597E-01 0.16041943E+03</pdfrwt>
<pdfrwt beam="1">  1       -2 0.72260276E-02 0.16041943E+03</pdfrwt>
<totfact> 0.68356897E+03</totfact>
</mgrwt>
</event>
<event>
 7    1  0.5107591E-006  0.1250739E+03  0.7546771E-02  0.1254723E+00
          3   -1    0    0  501    0  0.00000000000E+00  0.00000000000E+00  0.13999463858E+03  0.13999463858E+03  0.00000000000E+00 0. -1.
         -3   -1    0    0    0  501 -0.00000000000E+00 -0.00000000000E+00 -0.10136878042E+03  0.10136878042E+03  0.00000000000E+00 0.  1.
         23    2    1    2    0    0 -0.72215781182E+01 -0.55141865784E+01  0.73411150779E+02  0.11154242513E+03  0.83486274920E+02 0.  0.
          5    1    1    2  502    0 -0.34349505291E+02 -0.20223277141E+02  0.28853026727E+02  0.49431332203E+02  0.47000000000E+01 0.  1.
         -5    1    1    2    0  502  0.41571083409E+02  0.25737463719E+02 -0.63638319347E+02  0.80389661672E+02  0.47000000000E+01 0.  1.
        -11    1    3    3    0    0 -0.10958404920E+02  0.36636311138E+02  0.50739508427E+02  0.63535845376E+02  0.00000000000E+00 0. -1.
         11    1    3    3    0    0  0.37368268018E+01 -0.42150497717E+02  0.22671642353E+02  0.48006579750E+02  0.00000000000E+00 0.  1.
<mgrwt>
<rscale>  0 0.11321865E+03</rscale>
<asrwt>0</asrwt>
<pdfrwt beam="1">  1        3 0.21537637E-01 0.12507387E+03</pdfrwt>
<pdfrwt beam="2">  1       -3 0.15595197E-01 0.12507387E+03</pdfrwt>
<totfact> 0.15460160E+03</totfact>
</mgrwt>
</event>
<event>
 7    1  0.5107591E-006  0.1276321E+03  0.7546771E-02  0.1245597E+00
          1   -1    0    0  501    0  0.00000000000E+00  0.00000000000E+00  0.12778921716E+03  0.12778921716E+03  0.00000000000E+00 0. -1.
         -1   -1    0    0    0  501 -0.00000000000E+00 -0.00000000000E+00 -0.10143019066E+03  0.10143019066E+03  0.00000000000E+00 0.  1.
         23    2    1    2    0    0  0.15925055013E+02 -0.20280180658E+02  0.35503921423E+02  0.10126014432E+03  0.91258946337E+02 0.  0.
          5    1    1    2  502    0 -0.64869901472E+02 -0.13881294409E+02  0.41302196615E+01  0.66632898526E+02  0.47000000000E+01 0. -1.
         -5    1    1    2    0  502  0.48944846459E+02  0.34161475067E+02 -0.13275114590E+02  0.61326364975E+02  0.47000000000E+01 0. -1.
        -11    1    3    3    0    0 -0.56473887494E+01 -0.49515197118E+02 -0.87699507613E+00  0.49843925063E+02  0.00000000000E+00 0. -1.
         11    1    3    3    0    0  0.21572443763E+02  0.29235016460E+02  0.36380916500E+02  0.51416219257E+02  0.00000000000E+00 0.  1.
<mgrwt>
<rscale>  0 0.11849730E+03</rscale>
<asrwt>0</asrwt>
<pdfrwt beam="1">  1        1 0.19659880E-01 0.12763206E+03</pdfrwt>
<pdfrwt beam="2">  1       -1 0.15604645E-01 0.12763206E+03</pdfrwt>
<totfact> 0.74218847E+03</totfact>
</mgrwt>
</event>
<event>
 7    1  0.5107591E-006  0.2422874E+03  0.7546771E-02  0.1120923E+00
         -2   -1    0    0    0  501 -0.00000000000E+00  0.00000000000E+00  0.18700052037E+03  0.18700052037E+03  0.00000000000E+00 0.  1.
          2   -1    0    0  501    0  0.00000000000E+00 -0.00000000000E+00 -0.29684215237E+03  0.29684215237E+03  0.00000000000E+00 0. -1.
         23    2    1    2    0    0 -0.17407989137E+03  0.11301313455E+03 -0.76200424530E+02  0.23923092759E+03  0.91373709864E+02 0.  0.
          5    1    1    2  502    0  0.15891685091E+03 -0.55024359376E+02 -0.60468158393E+02  0.17877565217E+03  0.47000000000E+01 0. -1.
         -5    1    1    2    0  502  0.15163040459E+02 -0.57988775179E+02  0.26826950922E+02  0.65836092977E+02  0.47000000000E+01 0. -1.
        -11    1    3    3    0    0 -0.65891644494E+02  0.72969894479E+02  0.45395921131E+01  0.98422163210E+02  0.00000000000E+00 0.  1.
         11    1    3    3    0    0 -0.10818824688E+03  0.40043240076E+02 -0.80740016643E+02  0.14080876438E+03  0.00000000000E+00 0. -1.
<mgrwt>
<rscale>  0 0.23831140E+03</rscale>
<asrwt>0</asrwt>
<pdfrwt beam="2">  1        2 0.45668023E-01 0.24228738E+03</pdfrwt>
<pdfrwt beam="1">  1       -2 0.28769311E-01 0.24228738E+03</pdfrwt>
<totfact> 0.12190100E+03</totfact>
</mgrwt>
</event>
<event>
 7    1  0.5107591E-006  0.1895043E+03  0.7546771E-02  0.1163627E+00
          1   -1    0    0  501    0  0.00000000000E+00  0.00000000000E+00  0.89189109718E+03  0.89189109718E+03  0.00000000000E+00 0. -1.
         -1   -1    0    0    0  501 -0.00000000000E+00 -0.00000000000E+00 -0.37589869934E+02  0.37589869934E+02  0.00000000000E+00 0.  1.
         23    2    1    2    0    0  0.59654748525E+02 -0.12933752648E+03  0.49406249400E+03  0.52243819348E+03  0.92504233701E+02 0.  0.
          5    1    1    2  502    0  0.36389022364E+02  0.46310193984E+02  0.80969356662E+02  0.10023433411E+03  0.47000000000E+01 0.  1.
         -5    1    1    2    0  502 -0.96043770888E+02  0.83027332497E+02  0.27926937658E+03  0.30680843953E+03  0.47000000000E+01 0.  1.
        -11    1    3    3    0    0  0.75314372161E+02 -0.85292136879E+02  0.26085224309E+03  0.28458899485E+03  0.00000000000E+00 0.  1.
         11    1    3    3    0    0 -0.15659623637E+02 -0.44045389602E+02  0.23321025091E+03  0.23784919863E+03  0.00000000000E+00 0. -1.
<mgrwt>
<rscale>  0 0.18438308E+03</rscale>
<asrwt>0</asrwt>
<pdfrwt beam="1">  1        1 0.13721400E+00 0.18950429E+03</pdfrwt>
<pdfrwt beam="2">  1       -1 0.57830576E-02 0.18950429E+03</pdfrwt>
<totfact> 0.27171894E+03</totfact>
</mgrwt>
</event>
<event>
 7    1  0.5107591E-006  0.2701909E+03  0.7546771E-02  0.1103183E+00
         -2   -1    0    0    0  501 -0.00000000000E+00  0.00000000000E+00  0.35460674028E+03  0.35460674028E+03  0.00000000000E+00 0. -1.
          2   -1    0    0  501    0  0.00000000000E+00 -0.00000000000E+00 -0.31290604045E+03  0.31290604045E+03  0.00000000000E+00 0.  1.
         23    2    1    2    0    0  0.17187714735E+03 -0.16684224753E+03 -0.18382417534E+03  0.31556877902E+03  0.91729153019E+02 0.  0.
          5    1    1    2  502    0 -0.47884042986E+02 -0.12241524332E+02  0.23925747862E+02  0.55111413531E+02  0.47000000000E+01 0.  1.
         -5    1    1    2    0  502 -0.12399310437E+03  0.17908377186E+03  0.20159912730E+03  0.29683258817E+03  0.47000000000E+01 0.  1.
        -11    1    3    3    0    0  0.85733414227E+02 -0.32083527277E+02 -0.97822699028E+02  0.13397332377E+03  0.00000000000E+00 0.  1.
         11    1    3    3    0    0  0.86143733128E+02 -0.13475872025E+03 -0.86001476309E+02  0.18159545525E+03  0.00000000000E+00 0. -1.
<mgrwt>
<rscale>  0 0.26670117E+03</rscale>
<asrwt>0</asrwt>
<pdfrwt beam="2">  1        2 0.48139391E-01 0.27019088E+03</pdfrwt>
<pdfrwt beam="1">  1       -2 0.54554883E-01 0.27019088E+03</pdfrwt>
<totfact> 0.33813366E+02</totfact>
</mgrwt>
</event>
<event>
 7    1  0.5107591E-006  0.2884630E+03  0.7546771E-02  0.1092852E+00
         -1   -1    0    0    0  501 -0.00000000000E+00  0.00000000000E+00  0.11539015323E+03  0.11539015323E+03  0.00000000000E+00 0.  1.
          1   -1    0    0  501    0  0.00000000000E+00 -0.00000000000E+00 -0.74461912632E+03  0.74461912632E+03  0.00000000000E+00 0. -1.
         23    2    1    2    0    0 -0.22112948475E+02 -0.25903111849E+03 -0.42459328245E+03  0.50633330753E+03  0.92238061409E+02 0.  0.
          5    1    1    2  502    0 -0.23063620756E+02  0.42337476603E+02  0.50940233352E+01  0.48707613380E+02  0.47000000000E+01 0.  1.
         -5    1    1    2    0  502  0.45176569231E+02  0.21669364189E+03 -0.20972971398E+03  0.30496835864E+03  0.47000000000E+01 0.  1.
        -11    1    3    3    0    0 -0.55426359746E+02 -0.15342475833E+03 -0.22255844831E+03  0.27594111824E+03  0.00000000000E+00 0.  1.
         11    1    3    3    0    0  0.33313411271E+02 -0.10560636017E+03 -0.20203483414E+03  0.23039218929E+03  0.00000000000E+00 0. -1.
<mgrwt>
<rscale>  0 0.28525707E+03</rscale>
<asrwt>0</asrwt>
<pdfrwt beam="2">  1        1 0.11455678E+00 0.28846304E+03</pdfrwt>
<pdfrwt beam="1">  1       -1 0.17752332E-01 0.28846304E+03</pdfrwt>
<totfact> 0.63187182E+02</totfact>
</mgrwt>
</event>
<event>
 7    1  0.5107591E-006  0.1309811E+03  0.7546771E-02  0.1239794E+00
          1   -1    0    0  501    0  0.00000000000E+00  0.00000000000E+00  0.53725663839E+03  0.53725663839E+03  0.00000000000E+00 0. -1.
         -1   -1    0    0    0  501 -0.00000000000E+00 -0.00000000000E+00 -0.24554946137E+02  0.24554946137E+02  0.00000000000E+00 0.  1.
         23    2    1    2    0    0 -0.17624154843E+02 -0.35001393244E+02  0.22716482406E+03  0.24766614688E+03  0.90548079266E+02 0.  0.
          5    1    1    2  502    0  0.21838643541E+02 -0.14452877879E+02  0.24690750933E+01  0.26720747791E+02  0.47000000000E+01 0. -1.
         -5    1    1    2    0  502 -0.42144886983E+01  0.49454271123E+02  0.28306779310E+03  0.28742468985E+03  0.47000000000E+01 0. -1.
        -11    1    3    3    0    0  0.14256798823E+02  0.13297102256E+02  0.81430369883E+01  0.21127666518E+02  0.00000000000E+00 0.  1.
         11    1    3    3    0    0 -0.31880953665E+02 -0.48298495500E+02  0.21902178707E+03  0.22653848037E+03  0.00000000000E+00 0. -1.
<mgrwt>
<rscale>  0 0.12202439E+03</rscale>
<asrwt>0</asrwt>
<pdfrwt beam="1">  1        1 0.82654858E-01 0.13098112E+03</pdfrwt>
<pdfrwt beam="2">  1       -1 0.37776844E-02 0.13098112E+03</pdfrwt>
<totfact> 0.10428854E+04</totfact>
</mgrwt>
</event>
<event>
 7    1  0.5107591E-006  0.1555330E+03  0.7546771E-02  0.1202514E+00
         -1   -1    0    0    0  501 -0.00000000000E+00  0.00000000000E+00  0.25269697886E+02  0.25269697886E+02  0.00000000000E+00 0.  1.
          1   -1    0    0  501    0  0.00000000000E+00 -0.00000000000E+00 -0.80895308784E+03  0.80895308784E+03  0.00000000000E+00 0. -1.
         23    2    1    2    0    0 -0.84263069762E+02 -0.38254469431E+02 -0.40033202771E+03  0.42052146487E+03  0.89492461446E+02 0.  0.
          5    1    1    2  502    0  0.29216203748E+02  0.55664923997E+02 -0.32652755205E+03  0.33255751769E+03  0.47000000000E+01 0. -1.
         -5    1    1    2    0  502  0.55046866015E+02 -0.17410454565E+02 -0.56823810202E+02  0.81143803165E+02  0.47000000000E+01 0. -1.
        -11    1    3    3    0    0 -0.64436820606E+02 -0.30214645646E+02 -0.39057697851E+03  0.39700806642E+03  0.00000000000E+00 0. -1.
         11    1    3    3    0    0 -0.19826249156E+02 -0.80398237858E+01 -0.97550491996E+01  0.23513398457E+02  0.00000000000E+00 0.  1.
<mgrwt>
<rscale>  0 0.14835106E+03</rscale>
<asrwt>0</asrwt>
<pdfrwt beam="2">  1        1 0.12445434E+00 0.15553301E+03</pdfrwt>
<pdfrwt beam="1">  1       -1 0.38876452E-02 0.15553301E+03</pdfrwt>
<totfact> 0.56724034E+03</totfact>
</mgrwt>
</event>
<event>
 7    1  0.5107591E-006  0.1619746E+03  0.7546771E-02  0.1193831E+00
         -2   -1    0    0    0  501 -0.00000000000E+00  0.00000000000E+00  0.20063184219E+03  0.20063184219E+03  0.00000000000E+00 0.  1.
          2   -1    0    0  501    0  0.00000000000E+00 -0.00000000000E+00 -0.11392248635E+03  0.11392248635E+03  0.00000000000E+00 0. -1.
         23    2    1    2    0    0  0.23033002087E+02 -0.10040464239E+03  0.19086291722E+02  0.13903042466E+03  0.91397817533E+02 0.  0.
          5    1    1    2  502    0 -0.50129179138E+02  0.79376012261E+02  0.93285587201E+02  0.13243027110E+03  0.47000000000E+01 0.  1.
         -5    1    1    2    0  502  0.27096177052E+02  0.21028630131E+02 -0.25662523084E+02  0.43093632790E+02  0.47000000000E+01 0.  1.
        -11    1    3    3    0    0 -0.22810932411E+02  0.20553892505E+00  0.16997552704E+02  0.28448157790E+02  0.00000000000E+00 0.  1.
         11    1    3    3    0    0  0.45843934498E+02 -0.10061018132E+03  0.20887390174E+01  0.11058226687E+03  0.00000000000E+00 0. -1.
<mgrwt>
<rscale>  0 0.15553557E+03</rscale>
<asrwt>0</asrwt>
<pdfrwt beam="2">  1        2 0.17526536E-01 0.16197457E+03</pdfrwt>
<pdfrwt beam="1">  1       -2 0.30866437E-01 0.16197457E+03</pdfrwt>
<totfact> 0.30551290E+03</totfact>
</mgrwt>
</event>
<event>
 7    1  0.5107591E-006  0.1221769E+03  0.7546771E-02  0.1248850E+00
         -2   -1    0    0    0  501 -0.00000000000E+00  0.00000000000E+00  0.10507639847E+03  0.10507639847E+03  0.00000000000E+00 0.  1.
          2   -1    0    0  501    0  0.00000000000E+00 -0.00000000000E+00 -0.14095264586E+03  0.14095264586E+03  0.00000000000E+00 0. -1.
         23    2    1    2    0    0  0.37032383112E+02 -0.20591801288E+02 -0.65112241632E+02  0.12040289199E+03  0.91988220493E+02 0.  0.
          5    1    1    2  502    0  0.24790139869E+02  0.71734846818E+01 -0.29287648981E+02  0.39317506280E+02  0.47000000000E+01 0. -1.
         -5    1    1    2    0  502 -0.61822522981E+02  0.13418316606E+02  0.58523643222E+02  0.86308646058E+02  0.47000000000E+01 0.  1.
        -11    1    3    3    0    0  0.14925968480E+02  0.22810281937E+02  0.11525906214E+02  0.29596283740E+02  0.00000000000E+00 0.  1.
         11    1    3    3    0    0  0.22106414632E+02 -0.43402083225E+02 -0.76638147846E+02  0.90806608248E+02  0.00000000000E+00 0. -1.
<mgrwt>
<rscale>  0 0.11657908E+03</rscale>
<asrwt>0</asrwt>
<pdfrwt beam="2">  1        2 0.21685022E-01 0.12217687E+03</pdfrwt>
<pdfrwt beam="1">  1       -2 0.16165600E-01 0.12217687E+03</pdfrwt>
<totfact> 0.71802567E+03</totfact>
</mgrwt>
</event>
<event>
 7    1  0.5107591E-006  0.1318565E+03  0.7546771E-02  0.1238335E+00
         -2   -1    0    0    0  501 -0.00000000000E+00  0.00000000000E+00  0.14178410462E+03  0.14178410462E+03  0.00000000000E+00 0.  1.
          2   -1    0    0  501    0  0.00000000000E+00 -0.00000000000E+00 -0.96304855577E+02  0.96304855577E+02  0.00000000000E+00 0. -1.
         23    2    1    2    0    0 -0.37896161301E+02  0.18025466734E+02  0.34121391798E+01  0.99684592533E+02  0.90356730808E+02 0.  0.
          5    1    1    2  502    0 -0.41732536212E+02  0.15827919817E+02  0.18975410001E+02  0.48726623207E+02  0.47000000000E+01 0. -1.
         -5    1    1    2    0  502  0.79628697514E+02 -0.33853386551E+02  0.23091699864E+02  0.89677744459E+02  0.47000000000E+01 0. -1.
        -11    1    3    3    0    0  0.13082499893E+02  0.65328009808E+00 -0.32440406899E+02  0.34985119381E+02  0.00000000000E+00 0. -1.
         11    1    3    3    0    0 -0.50978661194E+02  0.17372186636E+02  0.35852546079E+02  0.64699473151E+02  0.00000000000E+00 0.  1.
<mgrwt>
<rscale>  0 0.12293327E+03</rscale>
<asrwt>0</asrwt>
<pdfrwt beam="2">  1        2 0.14816132E-01 0.13185646E+03</pdfrwt>
<pdfrwt beam="1">  1       -2 0.21812939E-01 0.13185646E+03</pdfrwt>
<totfact> 0.67566513E+03</totfact>
</mgrwt>
</event>
<event>
 7    1  0.5107591E-006  0.1523921E+03  0.7546771E-02  0.1204585E+00
         -1   -1    0    0    0  501 -0.00000000000E+00  0.00000000000E+00  0.37940722390E+02  0.37940722390E+02  0.00000000000E+00 0.  1.
          1   -1    0    0  501    0  0.00000000000E+00 -0.00000000000E+00 -0.53161955661E+03  0.53161955661E+03  0.00000000000E+00 0. -1.
         23    2    1    2    0    0 -0.48375613302E+02 -0.72512037411E+02 -0.20722278079E+03  0.24509083168E+03  0.97621920513E+02 0.  0.
          5    1    1    2  502    0  0.58777159403E+02 -0.12274199635E+02 -0.16707444447E+03  0.17759890326E+03  0.47000000000E+01 0.  1.
         -5    1    1    2    0  502 -0.10401546101E+02  0.84786237046E+02 -0.11938160896E+03  0.14687054406E+03  0.47000000000E+01 0.  1.
        -11    1    3    3    0    0  0.30045659778E+02 -0.15876791905E+02 -0.48702545630E+02  0.59386464313E+02  0.00000000000E+00 0.  1.
         11    1    3    3    0    0 -0.78421273080E+02 -0.56635245506E+02 -0.15852023516E+03  0.18570436737E+03  0.00000000000E+00 0. -1.
<mgrwt>
<rscale>  0 0.14670196E+03</rscale>
<asrwt>0</asrwt>
<pdfrwt beam="2">  1        1 0.81787622E-01 0.15239210E+03</pdfrwt>
<pdfrwt beam="1">  1       -1 0.58370344E-02 0.15239210E+03</pdfrwt>
<totfact> 0.56112628E+03</totfact>
</mgrwt>
</event>
<event>
 7    1  0.5107591E-006  0.1619934E+03  0.7546771E-02  0.1198508E+00
         -2   -1    0    0    0  501 -0.00000000000E+00  0.00000000000E+00  0.17385526296E+03  0.17385526296E+03  0.00000000000E+00 0. -1.
          2   -1    0    0  501    0  0.00000000000E+00 -0.00000000000E+00 -0.12128577599E+03  0.12128577599E+03  0.00000000000E+00 0.  1.
         23    2    1    2    0    0  0.34847616482E+02  0.96966630916E+02  0.47543780787E+02  0.13306965546E+03  0.69499915305E+02 0.  0.
          5    1    1    2  502    0 -0.14532022750E+02 -0.10005253107E+03  0.49638975698E+02  0.11272890741E+03  0.47000000000E+01 0. -1.
         -5    1    1    2    0  502 -0.20315593732E+02  0.30859001525E+01 -0.44613269516E+02  0.49342476076E+02  0.47000000000E+01 0. -1.
        -11    1    3    3    0    0 -0.18692610970E+02  0.18833327229E+02  0.23265957266E+02  0.35290405026E+02  0.00000000000E+00 0.  1.
         11    1    3    3    0    0  0.53540227453E+02  0.78133303687E+02  0.24277823521E+02  0.97779250435E+02  0.00000000000E+00 0. -1.
<mgrwt>
<rscale>  0 0.15161041E+03</rscale>
<asrwt>0</asrwt>
<pdfrwt beam="2">  1        2 0.18659350E-01 0.16199344E+03</pdfrwt>
<pdfrwt beam="1">  1       -2 0.26746963E-01 0.16199344E+03</pdfrwt>
<totfact> 0.36748164E+03</totfact>
</mgrwt>
</event>
<event>
 7    1  0.5107591E-006  0.1631545E+03  0.7546771E-02  0.1192278E+00
         -3   -1    0    0    0  501 -0.00000000000E+00  0.00000000000E+00  0.17157075908E+03  0.17157075908E+03  0.00000000000E+00 0.  1.
          3   -1    0    0  501    0  0.00000000000E+00 -0.00000000000E+00 -0.21964277936E+03  0.21964277936E+03  0.00000000000E+00 0. -1.
         23    2    1    2    0    0 -0.23453683192E+02  0.10219451992E+03 -0.14522709848E+03  0.20132277878E+03  0.91902970378E+02 0.  0.
          5    1    1    2  502    0  0.46035512571E+02 -0.11580440256E+03  0.10384849611E+03  0.16228532964E+03  0.47000000000E+01 0.  1.
         -5    1    1    2    0  502 -0.22581829379E+02  0.13609882644E+02 -0.66934179067E+01  0.27605430027E+02  0.47000000000E+01 0.  1.
        -11    1    3    3    0    0 -0.88579297460E+01  0.31938667381E+02  0.62325981731E+01  0.33725163801E+02  0.00000000000E+00 0.  1.
         11    1    3    3    0    0 -0.14595753446E+02  0.70255852538E+02 -0.15145969666E+03  0.16759761498E+03  0.00000000000E+00 0. -1.
<mgrwt>
<rscale>  0 0.15686866E+03</rscale>
<asrwt>0</asrwt>
<pdfrwt beam="2">  1        3 0.33791197E-01 0.16315450E+03</pdfrwt>
<pdfrwt beam="1">  1       -3 0.26395502E-01 0.16315450E+03</pdfrwt>
<totfact> 0.27858639E+02</totfact>
</mgrwt>
</event>
<event>
 7    1  0.5107591E-006  0.5022598E+03  0.7546771E-02  0.1013385E+00
         -2   -1    0    0    0  501 -0.00000000000E+00  0.00000000000E+00  0.72440065893E+03  0.72440065893E+03  0.00000000000E+00 0.  1.
          2   -1    0    0  501    0  0.00000000000E+00 -0.00000000000E+00 -0.49712656886E+03  0.49712656886E+03  0.00000000000E+00 0. -1.
         23    2    1    2    0    0  0.12632209856E+03  0.46976875836E+03 -0.22316027655E+03  0.54687466866E+03  0.11238965821E+03 0.  0.
          5    1    1    2  502    0 -0.15066846298E+03 -0.39060131117E+03  0.38803987682E+03  0.57084797102E+03  0.47000000000E+01 0. -1.
         -5    1    1    2    0  502  0.24346364410E+02 -0.79167447189E+02  0.62394489804E+02  0.10380458811E+03  0.47000000000E+01 0. -1.
        -11    1    3    3    0    0  0.11421307062E+03  0.39085936417E+03 -0.13752965929E+03  0.42980236766E+03  0.00000000000E+00 0.  1.
         11    1    3    3    0    0  0.12109027943E+02  0.78909394189E+02 -0.85630617260E+02  0.11707230100E+03  0.00000000000E+00 0. -1.
<mgrwt>
<rscale>  0 0.50151093E+03</rscale>
<asrwt>0</asrwt>
<pdfrwt beam="2">  1        2 0.76481011E-01 0.50225985E+03</pdfrwt>
<pdfrwt beam="1">  1       -2 0.11144626E+00 0.50225985E+03</pdfrwt>
<totfact> 0.40791002E+01</totfact>
</mgrwt>
</event>
<event>
 7    1  0.5107591E-006  0.1297031E+03  0.7546771E-02  0.1242088E+00
          1   -1    0    0  501    0  0.00000000000E+00  0.00000000000E+00  0.11813735443E+03  0.11813735443E+03  0.00000000000E+00 0. -1.
         -1   -1    0    0    0  501 -0.00000000000E+00 -0.00000000000E+00 -0.10972706447E+03  0.10972706447E+03  0.00000000000E+00 0.  1.
         23    2    1    2    0    0 -0.20220466225E+02  0.28067288054E+02  0.14234922854E+02  0.98030615002E+02  0.90613070447E+02 0.  0.
          5    1    1    2  502    0 -0.46389608453E+02 -0.38449205008E+02 -0.13183017942E+02  0.61856439440E+02  0.47000000000E+01 0. -1.
         -5    1    1    2    0  502  0.66610074677E+02  0.10381916954E+02  0.73583850452E+01  0.67977364458E+02  0.47000000000E+01 0. -1.
        -11    1    3    3    0    0 -0.39479104346E+02 -0.10450818628E+02 -0.17606970507E+02  0.44472741094E+02  0.00000000000E+00 0.  1.
         11    1    3    3    0    0  0.19258638121E+02  0.38518106682E+02  0.31841893362E+02  0.53557873908E+02  0.00000000000E+00 0. -1.
<mgrwt>
<rscale>  0 0.12061359E+03</rscale>
<asrwt>0</asrwt>
<pdfrwt beam="1">  1        1 0.18174978E-01 0.12970309E+03</pdfrwt>
<pdfrwt beam="2">  1       -1 0.16881087E-01 0.12970309E+03</pdfrwt>
<totfact> 0.72563579E+03</totfact>
</mgrwt>
</event>
<event>
 6    1  0.5107591E-006  0.1256794E+03  0.7546771E-02  0.1283036E+00
         -1   -1    0    0    0  501 -0.00000000000E+00  0.00000000000E+00  0.44358347180E+02  0.44358347180E+02  0.00000000000E+00 0.  1.
          1   -1    0    0  501    0  0.00000000000E+00 -0.00000000000E+00 -0.18182640183E+03  0.18182640183E+03  0.00000000000E+00 0. -1.
          5    1    1    2  502    0  0.17960476248E+02  0.40140173120E+02 -0.95201775492E+02  0.10497275962E+03  0.47000000000E+01 0.  1.
         -5    1    1    2    0  502 -0.11970410461E+02 -0.28495397180E+02  0.24055970444E+02  0.39446902299E+02  0.47000000000E+01 0.  1.
        -11    1    1    2    0    0 -0.23870251392E+00  0.17590238929E+02 -0.19460970328E+02  0.26233620615E+02  0.00000000000E+00 0.  1.
         11    1    1    2    0    0 -0.57513632736E+01 -0.29235014869E+02 -0.46861279275E+02  0.55531466478E+02  0.00000000000E+00 0. -1.
<mgrwt>
<rscale>  0 0.98708310E+02</rscale>
<asrwt>0</asrwt>
<pdfrwt beam="2">  1        1 0.27973293E-01 0.12567941E+03</pdfrwt>
<pdfrwt beam="1">  1       -1 0.68243610E-02 0.12567941E+03</pdfrwt>
<totfact> 0.16837501E+04</totfact>
</mgrwt>
</event>
<event>
 7    1  0.5107591E-006  0.1270840E+03  0.7546771E-02  0.1247898E+00
          1   -1    0    0  501    0  0.00000000000E+00  0.00000000000E+00  0.64643729047E+03  0.64643729047E+03  0.00000000000E+00 0. -1.
         -1   -1    0    0    0  501 -0.00000000000E+00 -0.00000000000E+00 -0.23023983788E+02  0.23023983788E+02  0.00000000000E+00 0.  1.
         23    2    1    2    0    0  0.17865319810E+02  0.14407381313E+02  0.41775128030E+03  0.42770266609E+03  0.88807072391E+02 0.  0.
          5    1    1    2  502    0 -0.50980033355E+02  0.32651839582E+02  0.61317840136E+02  0.86296430679E+02  0.47000000000E+01 0.  1.
         -5    1    1    2    0  502  0.33114713544E+02 -0.47059220895E+02  0.14434418625E+03  0.15546217748E+03  0.47000000000E+01 0.  1.
        -11    1    3    3    0    0  0.17450594556E+02 -0.34476383554E+02  0.12305928615E+03  0.12898345701E+03  0.00000000000E+00 0. -1.
         11    1    3    3    0    0  0.41472525432E+00  0.48883764867E+02  0.29469199414E+03  0.29871920909E+03  0.00000000000E+00 0.  1.
<mgrwt>
<rscale>  0 0.11713589E+03</rscale>
<asrwt>0</asrwt>
<pdfrwt beam="1">  1        1 0.99451877E-01 0.12708405E+03</pdfrwt>
<pdfrwt beam="2">  1       -1 0.35421518E-02 0.12708405E+03</pdfrwt>
<totfact> 0.89023979E+03</totfact>
</mgrwt>
</event>
<event>
 7    1  0.5107591E-006  0.3424310E+03  0.7546771E-02  0.1066932E+00
          2   -1    0    0  501    0  0.00000000000E+00  0.00000000000E+00  0.52753327551E+03  0.52753327551E+03  0.00000000000E+00 0.  1.
         -2   -1    0    0    0  501 -0.00000000000E+00 -0.00000000000E+00 -0.22279178522E+03  0.22279178522E+03  0.00000000000E+00 0. -1.
         23    2    1    2    0    0  0.18070092335E+03 -0.26264326748E+03  0.21888541235E+03  0.39729499228E+03  0.91094332976E+02 0.  0.
          5    1    1    2  502    0  0.27914761750E+01  0.16854724194E+01 -0.16902117441E+02  0.17843898972E+02  0.47000000000E+01 0. -1.
         -5    1    1    2    0  502 -0.18349239953E+03  0.26095779506E+03  0.10275819539E+03  0.33518616948E+03  0.47000000000E+01 0. -1.
        -11    1    3    3    0    0 -0.58438167067E+01 -0.20405876619E+02  0.33748510195E+02  0.39868683634E+02  0.00000000000E+00 0.  1.
         11    1    3    3    0    0  0.18654474006E+03 -0.24223739086E+03  0.18513690216E+03  0.35742630865E+03  0.00000000000E+00 0. -1.
<mgrwt>
<rscale>  0 0.33968043E+03</rscale>
<asrwt>0</asrwt>
<pdfrwt beam="1">  1        2 0.81158965E-01 0.34243096E+03</pdfrwt>
<pdfrwt beam="2">  1       -2 0.34275659E-01 0.34243096E+03</pdfrwt>
<totfact> 0.46928257E+02</totfact>
</mgrwt>
</event>
<event>
 7    1  0.5107591E-006  0.1331566E+03  0.7546771E-02  0.1234837E+00
         -2   -1    0    0    0  501 -0.00000000000E+00  0.00000000000E+00  0.30824312038E+02  0.30824312038E+02  0.00000000000E+00 0.  1.
          2   -1    0    0  501    0  0.00000000000E+00 -0.00000000000E+00 -0.68566329417E+03  0.68566329417E+03  0.00000000000E+00 0. -1.
         23    2    1    2    0    0 -0.45801424628E+02 -0.26916110928E+01 -0.50694074650E+03  0.51747862782E+03  0.93221212847E+02 0.  0.
          5    1    1    2  502    0  0.74265497895E+02  0.18153820075E+02 -0.14758239916E+03  0.16627561427E+03  0.47000000000E+01 0. -1.
         -5    1    1    2    0  502 -0.28464073267E+02 -0.15462208982E+02 -0.31583647821E+00  0.32733364114E+02  0.47000000000E+01 0. -1.
        -11    1    3    3    0    0  0.28493797024E+02 -0.64539588794E+01 -0.16109128997E+03  0.16371913071E+03  0.00000000000E+00 0. -1.
         11    1    3    3    0    0 -0.74295221651E+02  0.37623477866E+01 -0.34584945652E+03  0.35375949711E+03  0.00000000000E+00 0.  1.
<mgrwt>
<rscale>  0 0.12514859E+03</rscale>
<asrwt>0</asrwt>
<pdfrwt beam="2">  1        2 0.10548665E+00 0.13315662E+03</pdfrwt>
<pdfrwt beam="1">  1       -2 0.47422022E-02 0.13315662E+03</pdfrwt>
<totfact> 0.87512622E+03</totfact>
</mgrwt>
</event>
<event>
 7    1  0.5107591E-006  0.2113384E+03  0.7546771E-02  0.1144299E+00
         -2   -1    0    0    0  501 -0.00000000000E+00  0.00000000000E+00  0.91010873661E+02  0.91010873661E+02  0.00000000000E+00 0.  1.
          2   -1    0    0  501    0  0.00000000000E+00 -0.00000000000E+00 -0.69487024795E+03  0.69487024795E+03  0.00000000000E+00 0. -1.
         23    2    1    2    0    0  0.16826227489E+03  0.26951223533E+02 -0.52664186837E+03  0.56087788844E+03  0.90519537237E+02 0.  0.
          5    1    1    2  502    0 -0.17841027360E+03 -0.12196170516E+02 -0.39809788337E+02  0.18326451251E+03  0.47000000000E+01 0.  1.
         -5    1    1    2    0  502  0.10147998701E+02 -0.14755053017E+02 -0.37407717583E+02  0.41738720655E+02  0.47000000000E+01 0.  1.
        -11    1    3    3    0    0  0.88997008255E+01  0.16877358069E+02 -0.13258218209E+02  0.23234247142E+02  0.00000000000E+00 0.  1.
         11    1    3    3    0    0  0.15936257407E+03  0.10073865465E+02 -0.51338365016E+03  0.53764364130E+03  0.00000000000E+00 0. -1.
<mgrwt>
<rscale>  0 0.20658503E+03</rscale>
<asrwt>0</asrwt>
<pdfrwt beam="2">  1        2 0.10690312E+00 0.21133838E+03</pdfrwt>
<pdfrwt beam="1">  1       -2 0.14001673E-01 0.21133838E+03</pdfrwt>
<totfact> 0.16195530E+03</totfact>
</mgrwt>
</event>
<event>
 7    1  0.5107591E-006  0.2087974E+03  0.7546771E-02  0.1145572E+00
          2   -1    0    0  501    0  0.00000000000E+00  0.00000000000E+00  0.29286974392E+03  0.29286974392E+03  0.00000000000E+00 0. -1.
         -2   -1    0    0    0  501 -0.00000000000E+00 -0.00000000000E+00 -0.16145398069E+03  0.16145398069E+03  0.00000000000E+00 0.  1.
         23    2    1    2    0    0  0.13801228882E+03  0.94447530180E+02  0.14914310806E+03  0.24477512955E+03  0.98506190373E+02 0.  0.
          5    1    1    2  502    0 -0.88275824221E+02  0.77742407201E+01  0.17484147879E+02  0.90448025892E+02  0.47000000000E+01 0.  1.
         -5    1    1    2    0  502 -0.49736464604E+02 -0.10222177090E+03 -0.35211492701E+02  0.11910056916E+03  0.47000000000E+01 0.  1.
        -11    1    3    3    0    0 -0.15382391753E+02  0.13962566418E+02  0.18317020318E+02  0.27696289830E+02  0.00000000000E+00 0.  1.
         11    1    3    3    0    0  0.15339468058E+03  0.80484963762E+02  0.13082608774E+03  0.21707883972E+03  0.00000000000E+00 0. -1.
<mgrwt>
<rscale>  0 0.20501942E+03</rscale>
<asrwt>0</asrwt>
<pdfrwt beam="1">  1        2 0.45056884E-01 0.20879740E+03</pdfrwt>
<pdfrwt beam="2">  1       -2 0.24839074E-01 0.20879740E+03</pdfrwt>
<totfact> 0.16023109E+03</totfact>
</mgrwt>
</event>
<event>
 7    1  0.5107591E-006  0.1445139E+03  0.7546771E-02  0.1217318E+00
          2   -1    0    0  501    0  0.00000000000E+00  0.00000000000E+00  0.55554750965E+03  0.55554750965E+03  0.00000000000E+00 0. -1.
         -2   -1    0    0    0  501 -0.00000000000E+00 -0.00000000000E+00 -0.35266222034E+02  0.35266222034E+02  0.00000000000E+00 0.  1.
         23    2    1    2    0    0 -0.10172687005E+02  0.71798959406E+02  0.34119046386E+03  0.36068810880E+03  0.91795452331E+02 0.  0.
          5    1    1    2  502    0 -0.24472084845E+02 -0.27306041511E+02  0.16856249430E+03  0.17256855833E+03  0.47000000000E+01 0. -1.
         -5    1    1    2    0  502  0.34644771850E+02 -0.44492917895E+02  0.10528329463E+02  0.57557064559E+02  0.47000000000E+01 0. -1.
        -11    1    3    3    0    0 -0.43266672166E+02  0.74127669384E+01  0.11028288767E+03  0.11869822807E+03  0.00000000000E+00 0.  1.
         11    1    3    3    0    0  0.33093985162E+02  0.64386192468E+02  0.23090757618E+03  0.24198988073E+03  0.00000000000E+00 0. -1.
<mgrwt>
<rscale>  0 0.13707644E+03</rscale>
<asrwt>0</asrwt>
<pdfrwt beam="1">  1        2 0.85468841E-01 0.14451394E+03</pdfrwt>
<pdfrwt beam="2">  1       -2 0.54255730E-02 0.14451394E+03</pdfrwt>
<totfact> 0.91466625E+03</totfact>
</mgrwt>
</event>
<event>
 7    1  0.5107591E-006  0.1487489E+03  0.7546771E-02  0.1210873E+00
          2   -1    0    0  501    0  0.00000000000E+00  0.00000000000E+00  0.19066305931E+03  0.19066305931E+03  0.00000000000E+00 0.  1.
         -2   -1    0    0    0  501 -0.00000000000E+00 -0.00000000000E+00 -0.14071825674E+03  0.14071825674E+03  0.00000000000E+00 0. -1.
         23    2    1    2    0    0  0.21984589752E+02 -0.77599181531E+02  0.11560317001E+03  0.16878597502E+03  0.92842109435E+02 0.  0.
          5    1    1    2  502    0 -0.65401727069E+02  0.77904904394E+02 -0.29826372168E+02  0.10610495987E+03  0.47000000000E+01 0. -1.
         -5    1    1    2    0  502  0.43417137317E+02 -0.30572286284E+00 -0.35831995270E+02  0.56490381166E+02  0.47000000000E+01 0. -1.
        -11    1    3    3    0    0 -0.13948949045E+01 -0.92801348644E+02  0.10149579845E+03  0.13753338920E+03  0.00000000000E+00 0.  1.
         11    1    3    3    0    0  0.23379484656E+02  0.15202167112E+02  0.14107371559E+02  0.31252585813E+02  0.00000000000E+00 0. -1.
<mgrwt>
<rscale>  0 0.14184067E+03</rscale>
<asrwt>0</asrwt>
<pdfrwt beam="1">  1        2 0.29332778E-01 0.14874886E+03</pdfrwt>
<pdfrwt beam="2">  1       -2 0.21648963E-01 0.14874886E+03</pdfrwt>
<totfact> 0.31920152E+03</totfact>
</mgrwt>
</event>
<event>
 7    1  0.5107591E-006  0.1255133E+03  0.7546771E-02  0.1251033E+00
          3   -1    0    0  501    0  0.00000000000E+00  0.00000000000E+00  0.85419425882E+02  0.85419425882E+02  0.00000000000E+00 0. -1.
         -3   -1    0    0    0  501 -0.00000000000E+00 -0.00000000000E+00 -0.13847829566E+03  0.13847829566E+03  0.00000000000E+00 0.  1.
         23    2    1    2    0    0  0.11318984943E+02 -0.59249055658E+00 -0.52276200526E+01  0.89579414538E+02  0.88705541160E+02 0.  0.
          5    1    1    2  502    0  0.17043287843E+02 -0.55473247315E+02 -0.56513201629E+01  0.58496001981E+02  0.47000000000E+01 0. -1.
         -5    1    1    2    0  502 -0.28362272787E+02  0.56065737872E+02 -0.42179929559E+02  0.75822305018E+02  0.47000000000E+01 0. -1.
        -11    1    3    3    0    0 -0.13000975651E+02  0.48897364464E+01 -0.42514497194E+02  0.44726025556E+02  0.00000000000E+00 0.  1.
         11    1    3    3    0    0  0.24319960594E+02 -0.54822270030E+01  0.37286877142E+02  0.44853388982E+02  0.00000000000E+00 0. -1.
<mgrwt>
<rscale>  0 0.11531454E+03</rscale>
<asrwt>0</asrwt>
<pdfrwt beam="1">  1        3 0.13141450E-01 0.12551326E+03</pdfrwt>
<pdfrwt beam="2">  1       -3 0.21304353E-01 0.12551326E+03</pdfrwt>
<totfact> 0.21097331E+03</totfact>
</mgrwt>
</event>
<event>
 7    1  0.5107591E-006  0.1300649E+03  0.7546771E-02  0.1239919E+00
          1   -1    0    0  501    0  0.00000000000E+00  0.00000000000E+00  0.30479656078E+03  0.30479656078E+03  0.00000000000E+00 0. -1.
         -1   -1    0    0    0  501 -0.00000000000E+00 -0.00000000000E+00 -0.44890153401E+02  0.44890153401E+02  0.00000000000E+00 0.  1.
         23    2    1    2    0    0 -0.29194663107E+02  0.20931304404E+02  0.14309997414E+03  0.17487078180E+03  0.93870868049E+02 0.  0.
          5    1    1    2  502    0  0.17280543869E+02 -0.53817726744E+02  0.42749243383E+01  0.56879960323E+02  0.47000000000E+01 0. -1.
         -5    1    1    2    0  502  0.11914119238E+02  0.32886422340E+02  0.11253150889E+03  0.11793597206E+03  0.47000000000E+01 0. -1.
        -11    1    3    3    0    0 -0.59936748591E+02  0.20867576675E+02  0.12219730746E+03  0.13769550297E+03  0.00000000000E+00 0. -1.
         11    1    3    3    0    0  0.30742085485E+02  0.63727728832E-01  0.20902666680E+02  0.37175278822E+02  0.00000000000E+00 0.  1.
<mgrwt>
<rscale>  0 0.12194722E+03</rscale>
<asrwt>0</asrwt>
<pdfrwt beam="1">  1        1 0.46891777E-01 0.13006486E+03</pdfrwt>
<pdfrwt beam="2">  1       -1 0.69061776E-02 0.13006486E+03</pdfrwt>
<totfact> 0.87565728E+03</totfact>
</mgrwt>
</event>
<event>
 7    1  0.5107591E-006  0.1292168E+03  0.7546771E-02  0.1244217E+00
          1   -1    0    0  501    0  0.00000000000E+00  0.00000000000E+00  0.57421670350E+03  0.57421670350E+03  0.00000000000E+00 0. -1.
         -1   -1    0    0    0  501 -0.00000000000E+00 -0.00000000000E+00 -0.25918097404E+02  0.25918097404E+02  0.00000000000E+00 0.  1.
         23    2    1    2    0    0 -0.32433186834E+02  0.54754427843E+01  0.35790456761E+03  0.37003291569E+03  0.88015834326E+02 0.  0.
          5    1    1    2  502    0  0.31181109851E+02  0.56695552573E+02  0.11708578033E+03  0.13385745123E+03  0.47000000000E+01 0. -1.
         -5    1    1    2    0  502  0.12520769825E+01 -0.62170995358E+02  0.73308258145E+02  0.96244433983E+02  0.47000000000E+01 0. -1.
        -11    1    3    3    0    0 -0.55331697656E+02 -0.18817760215E+02  0.18781897120E+03  0.19670198476E+03  0.00000000000E+00 0.  1.
         11    1    3    3    0    0  0.22898510822E+02  0.24293202999E+02  0.17008559641E+03  0.17333093093E+03  0.00000000000E+00 0. -1.
<mgrwt>
<rscale>  0 0.11932358E+03</rscale>
<asrwt>0</asrwt>
<pdfrwt beam="1">  1        1 0.88341022E-01 0.12921682E+03</pdfrwt>
<pdfrwt beam="2">  1       -1 0.39874000E-02 0.12921682E+03</pdfrwt>
<totfact> 0.88094759E+03</totfact>
</mgrwt>
</event>
<event>
 7    1  0.5107591E-006  0.1420179E+03  0.7546771E-02  0.1225251E+00
         -1   -1    0    0    0  501 -0.00000000000E+00  0.00000000000E+00  0.61527169709E+02  0.61527169709E+02  0.00000000000E+00 0.  1.
          1   -1    0    0  501    0  0.00000000000E+00 -0.00000000000E+00 -0.24864507270E+03  0.24864507270E+03  0.00000000000E+00 0. -1.
         23    2    1    2    0    0  0.41910514243E+02 -0.52808353773E+02 -0.92946512686E+02  0.13976875665E+03  0.79693397989E+02 0.  0.
          5    1    1    2  502    0 -0.27101034095E+02  0.34862325296E+02 -0.12433077928E+03  0.13202303000E+03  0.47000000000E+01 0.  1.
         -5    1    1    2    0  502 -0.14809480147E+02  0.17946028477E+02  0.30159388979E+02  0.38380455754E+02  0.47000000000E+01 0.  1.
        -11    1    3    3    0    0  0.24990672019E+01  0.12732177023E+02 -0.50832472266E+02  0.52462309379E+02  0.00000000000E+00 0. -1.
         11    1    3    3    0    0  0.39411447041E+02 -0.65540530796E+02 -0.42114040419E+02  0.87306447272E+02  0.00000000000E+00 0.  1.
<mgrwt>
<rscale>  0 0.13149737E+03</rscale>
<asrwt>0</asrwt>
<pdfrwt beam="2">  1        1 0.38253089E-01 0.14201795E+03</pdfrwt>
<pdfrwt beam="1">  1       -1 0.94657183E-02 0.14201795E+03</pdfrwt>
<totfact> 0.70406899E+03</totfact>
</mgrwt>
</event>
<event>
 7    1  0.5107591E-006  0.1439023E+03  0.7546771E-02  0.1218253E+00
          2   -1    0    0  501    0  0.00000000000E+00  0.00000000000E+00  0.24676871997E+03  0.24676871997E+03  0.00000000000E+00 0.  1.
         -2   -1    0    0    0  501 -0.00000000000E+00 -0.00000000000E+00 -0.81821644429E+02  0.81821644429E+02  0.00000000000E+00 0. -1.
         23    2    1    2    0    0 -0.92885293022E+01  0.70691293132E+02  0.14102881990E+03  0.18271386613E+03  0.91715282976E+02 0.  0.
          5    1    1    2  502    0  0.20769968123E+02 -0.10514211463E+03  0.18532667824E+02  0.10886599847E+03  0.47000000000E+01 0.  1.
         -5    1    1    2    0  502 -0.11481438821E+02  0.34450821501E+02  0.53855878145E+01  0.37010499802E+02  0.47000000000E+01 0.  1.
        -11    1    3    3    0    0 -0.41606381904E+02  0.40907176136E+02  0.12116904976E+03  0.13448578621E+03  0.00000000000E+00 0.  1.
         11    1    3    3    0    0  0.32317852601E+02  0.29784116996E+02  0.19859770143E+02  0.48228079914E+02  0.00000000000E+00 0. -1.
<mgrwt>
<rscale>  0 0.13640281E+03</rscale>
<asrwt>0</asrwt>
<pdfrwt beam="1">  1        2 0.37964418E-01 0.14390229E+03</pdfrwt>
<pdfrwt beam="2">  1       -2 0.12587945E-01 0.14390229E+03</pdfrwt>
<totfact> 0.59246198E+03</totfact>
</mgrwt>
</event>
<event>
 7    1  0.5107591E-006  0.1277231E+03  0.7546771E-02  0.1246280E+00
          4   -1    0    0  501    0  0.00000000000E+00  0.00000000000E+00  0.19960164137E+03  0.19960164137E+03  0.00000000000E+00 0. -1.
         -4   -1    0    0    0  501 -0.00000000000E+00 -0.00000000000E+00 -0.78460711260E+02  0.78460711260E+02  0.00000000000E+00 0.  1.
         23    2    1    2    0    0 -0.21494673155E+02 -0.15029926514E+02  0.11779949569E+03  0.15029556641E+03  0.89577432611E+02 0.  0.
          5    1    1    2  502    0  0.69822011380E+02  0.15337424918E+02  0.23203801183E+02  0.75305087913E+02  0.47000000000E+01 0.  1.
         -5    1    1    2    0  502 -0.48327338225E+02 -0.30749840440E+00 -0.19862366766E+02  0.52461698302E+02  0.47000000000E+01 0.  1.
        -11    1    3    3    0    0  0.22429872223E+02  0.13463288475E+02  0.59938159512E+01  0.26838128365E+02  0.00000000000E+00 0.  1.
         11    1    3    3    0    0 -0.43924545378E+02 -0.28493214988E+02  0.11180567974E+03  0.12345743805E+03  0.00000000000E+00 0. -1.
<mgrwt>
<rscale>  0 0.11809106E+03</rscale>
<asrwt>0</asrwt>
<pdfrwt beam="1">  1        4 0.30707945E-01 0.12772309E+03</pdfrwt>
<pdfrwt beam="2">  1       -4 0.12070879E-01 0.12772309E+03</pdfrwt>
<totfact> 0.91238820E+02</totfact>
</mgrwt>
</event>
<event>
 7    1  0.5107591E-006  0.1414583E+03  0.7546771E-02  0.1221729E+00
          3   -1    0    0  501    0  0.00000000000E+00  0.00000000000E+00  0.50221747208E+03  0.50221747208E+03  0.00000000000E+00 0. -1.
         -3   -1    0    0    0  501 -0.00000000000E+00 -0.00000000000E+00 -0.33801678370E+02  0.33801678370E+02  0.00000000000E+00 0.  1.
         23    2    1    2    0    0 -0.48056732354E+02  0.45554918041E+02  0.26392139493E+03  0.28736597598E+03  0.92412127799E+02 0.  0.
          5    1    1    2  502    0 -0.14550122798E+02 -0.11509857600E+02 -0.10693353699E+02  0.21923063398E+02  0.47000000000E+01 0.  1.
         -5    1    1    2    0  502  0.62606855152E+02 -0.34045060441E+02  0.21518775247E+03  0.22673011107E+03  0.47000000000E+01 0.  1.
        -11    1    3    3    0    0 -0.64519101850E+02  0.61331044132E+02  0.18647534439E+03  0.20663316661E+03  0.00000000000E+00 0.  1.
         11    1    3    3    0    0  0.16462369496E+02 -0.15776126091E+02  0.77446050542E+02  0.80732809368E+02  0.00000000000E+00 0. -1.
<mgrwt>
<rscale>  0 0.13393646E+03</rscale>
<asrwt>0</asrwt>
<pdfrwt beam="1">  1        3 0.77264221E-01 0.14145827E+03</pdfrwt>
<pdfrwt beam="2">  1       -3 0.52002586E-02 0.14145827E+03</pdfrwt>
<totfact> 0.80204826E+02</totfact>
</mgrwt>
</event>
<event>
 7    1  0.5107591E-006  0.1422167E+03  0.7546771E-02  0.1221221E+00
          1   -1    0    0  501    0  0.00000000000E+00  0.00000000000E+00  0.73845376571E+02  0.73845376571E+02  0.00000000000E+00 0. -1.
         -1   -1    0    0    0  501 -0.00000000000E+00 -0.00000000000E+00 -0.25052703071E+03  0.25052703071E+03  0.00000000000E+00 0.  1.
         23    2    1    2    0    0  0.40011332929E+02 -0.54491083036E+02 -0.23766913849E+02  0.11554587254E+03  0.90641036925E+02 0.  0.
          5    1    1    2  502    0 -0.23518820040E+01  0.36858789675E+02  0.11659976422E+02  0.39014699479E+02  0.47000000000E+01 0.  1.
         -5    1    1    2    0  502 -0.37659450925E+02  0.17632293361E+02 -0.16457471671E+03  0.16981183526E+03  0.47000000000E+01 0.  1.
        -11    1    3    3    0    0  0.32370463962E+02 -0.29131906051E+02 -0.57832624452E+02  0.72395630658E+02  0.00000000000E+00 0.  1.
         11    1    3    3    0    0  0.76408689672E+01 -0.25359176985E+02  0.34065710603E+02  0.43150241886E+02  0.00000000000E+00 0. -1.
<mgrwt>
<rscale>  0 0.13429345E+03</rscale>
<asrwt>0</asrwt>
<pdfrwt beam="1">  1        1 0.11360827E-01 0.14221675E+03</pdfrwt>
<pdfrwt beam="2">  1       -1 0.38542620E-01 0.14221675E+03</pdfrwt>
<totfact> 0.34349777E+03</totfact>
</mgrwt>
</event>
<event>
 7    1  0.5107591E-006  0.1421380E+03  0.7546771E-02  0.1221382E+00
          1   -1    0    0  501    0  0.00000000000E+00  0.00000000000E+00  0.80986356277E+02  0.80986356277E+02  0.00000000000E+00 0. -1.
         -1   -1    0    0    0  501 -0.00000000000E+00 -0.00000000000E+00 -0.20198156843E+03  0.20198156843E+03  0.00000000000E+00 0.  1.
         23    2    1    2    0    0 -0.35642892072E+02  0.57123481819E+02 -0.42664804868E+02  0.12067540389E+03  0.90602205268E+02 0.  0.
          5    1    1    2  502    0  0.46637578368E+02 -0.85998596327E+02 -0.25992857290E+02  0.10133380934E+03  0.47000000000E+01 0.  1.
         -5    1    1    2    0  502 -0.10994686296E+02  0.28875114508E+02 -0.52337549991E+02  0.60958711467E+02  0.47000000000E+01 0.  1.
        -11    1    3    3    0    0 -0.18647810171E+02  0.55499189571E+02  0.15080447708E+02  0.60459248840E+02  0.00000000000E+00 0. -1.
         11    1    3    3    0    0 -0.16995081901E+02  0.16242922479E+01 -0.57745252575E+02  0.60216155051E+02  0.00000000000E+00 0.  1.
<mgrwt>
<rscale>  0 0.13418021E+03</rscale>
<asrwt>0</asrwt>
<pdfrwt beam="1">  1        1 0.12459439E-01 0.14213799E+03</pdfrwt>
<pdfrwt beam="2">  1       -1 0.31074088E-01 0.14213799E+03</pdfrwt>
<totfact> 0.44024313E+03</totfact>
</mgrwt>
</event>
<event>
 7    1  0.5107591E-006  0.2033150E+03  0.7546771E-02  0.1150466E+00
         -2   -1    0    0    0  501 -0.00000000000E+00  0.00000000000E+00  0.12549776261E+04  0.12549776261E+04  0.00000000000E+00 0.  1.
          2   -1    0    0  501    0  0.00000000000E+00 -0.00000000000E+00 -0.41718900532E+02  0.41718900532E+02  0.00000000000E+00 0. -1.
         23    2    1    2    0    0  0.12991493557E+03 -0.93989981155E+02  0.25034136917E+03  0.31254876024E+03  0.96456826438E+02 0.  0.
          5    1    1    2  502    0 -0.45699808929E+02 -0.80491774398E+01  0.51413485476E+03  0.51624606602E+03  0.47000000000E+01 0. -1.
         -5    1    1    2    0  502 -0.84215126643E+02  0.10203915859E+03  0.44878250162E+03  0.46790170036E+03  0.47000000000E+01 0. -1.
        -11    1    3    3    0    0  0.27893090392E+02 -0.88975117226E+01  0.15541464007E+00  0.29278223309E+02  0.00000000000E+00 0. -1.
         11    1    3    3    0    0  0.10202184518E+03 -0.85092469432E+02  0.25018595453E+03  0.28327053693E+03  0.00000000000E+00 0.  1.
<mgrwt>
<rscale>  0 0.19914081E+03</rscale>
<asrwt>0</asrwt>
<pdfrwt beam="2">  1        2 0.64182933E-02 0.20331500E+03</pdfrwt>
<pdfrwt beam="1">  1       -2 0.19307345E+00 0.20331500E+03</pdfrwt>
<totfact> 0.18045405E+02</totfact>
</mgrwt>
</event>
<event>
 7    1  0.5107591E-006  0.1394205E+03  0.7546771E-02  0.1224722E+00
          4   -1    0    0  501    0  0.00000000000E+00  0.00000000000E+00  0.38158482704E+02  0.38158482704E+02  0.00000000000E+00 0. -1.
         -4   -1    0    0    0  501 -0.00000000000E+00 -0.00000000000E+00 -0.41694300073E+03  0.41694300073E+03  0.00000000000E+00 0.  1.
         23    2    1    2    0    0  0.60286244907E+02  0.13140940637E+02 -0.14565337367E+03  0.18346164690E+03  0.92930915057E+02 0.  0.
          5    1    1    2  502    0  0.28768530729E+02  0.58999848277E+01 -0.11331805016E+02  0.31826686698E+02  0.47000000000E+01 0.  1.
         -5    1    1    2    0  502 -0.89054775636E+02 -0.19040925465E+02 -0.22179933934E+03  0.23981314984E+03  0.47000000000E+01 0.  1.
        -11    1    3    3    0    0  0.51298366082E+02  0.19540661484E+02 -0.15778604626E+03  0.16706225249E+03  0.00000000000E+00 0.  1.
         11    1    3    3    0    0  0.89878788247E+01 -0.63997208468E+01  0.12132672586E+02  0.16399394402E+02  0.00000000000E+00 0. -1.
<mgrwt>
<rscale>  0 0.13185960E+03</rscale>
<asrwt>0</asrwt>
<pdfrwt beam="1">  1        4 0.58705358E-02 0.13942048E+03</pdfrwt>
<pdfrwt beam="2">  1       -4 0.64145078E-01 0.13942048E+03</pdfrwt>
<totfact> 0.70535272E+02</totfact>
</mgrwt>
</event>
<event>
 7    1  0.5107591E-006  0.1767852E+03  0.7546771E-02  0.1176479E+00
         -1   -1    0    0    0  501 -0.00000000000E+00  0.00000000000E+00  0.59196893859E+03  0.59196893859E+03  0.00000000000E+00 0.  1.
          1   -1    0    0  501    0  0.00000000000E+00 -0.00000000000E+00 -0.52145044501E+02  0.52145044501E+02  0.00000000000E+00 0. -1.
         23    2    1    2    0    0  0.11602011674E+03 -0.46579294022E+02  0.15129256687E+03  0.21725380734E+03  0.93163715527E+02 0.  0.
          5    1    1    2  502    0 -0.75752914102E+02  0.66465612053E+02  0.13071945214E+03  0.16512373163E+03  0.47000000000E+01 0. -1.
         -5    1    1    2    0  502 -0.40267202635E+02 -0.19886318031E+02  0.25781187508E+03  0.26173644413E+03  0.47000000000E+01 0. -1.
        -11    1    3    3    0    0  0.90907995338E+02 -0.45265703995E+02  0.16095497189E+03  0.19031487212E+03  0.00000000000E+00 0.  1.
         11    1    3    3    0    0  0.25112121399E+02 -0.13135900269E+01 -0.96624050130E+01  0.26938935215E+02  0.00000000000E+00 0. -1.
<mgrwt>
<rscale>  0 0.17131962E+03</rscale>
<asrwt>0</asrwt>
<pdfrwt beam="2">  1        1 0.80223149E-02 0.17678523E+03</pdfrwt>
<pdfrwt beam="1">  1       -1 0.91072140E-01 0.17678523E+03</pdfrwt>
<totfact> 0.10623277E+03</totfact>
</mgrwt>
</event>
<event>
 7    1  0.5107591E-006  0.1340122E+03  0.7546771E-02  0.1241570E+00
          2   -1    0    0  501    0  0.00000000000E+00  0.00000000000E+00  0.45320194112E+02  0.45320194112E+02  0.00000000000E+00 0. -1.
         -2   -1    0    0    0  501 -0.00000000000E+00 -0.00000000000E+00 -0.27703519950E+03  0.27703519950E+03  0.00000000000E+00 0.  1.
         23    2    1    2    0    0  0.37307384479E+02  0.30709738782E+02 -0.76137022710E+02  0.11701719467E+03  0.74573779768E+02 0.  0.
          5    1    1    2  502    0 -0.49765447237E+02 -0.67248667969E+02 -0.62720057265E+02  0.10466555625E+03  0.47000000000E+01 0. -1.
         -5    1    1    2    0  502  0.12458062759E+02  0.36538929187E+02 -0.92857925417E+02  0.10067264269E+03  0.47000000000E+01 0. -1.
        -11    1    3    3    0    0  0.23322050430E+02  0.12120684009E+02 -0.87331747318E+02  0.91201223164E+02  0.00000000000E+00 0.  1.
         11    1    3    3    0    0  0.13985334048E+02  0.18589054773E+02  0.11194724608E+02  0.25815971507E+02  0.00000000000E+00 0. -1.
<mgrwt>
<rscale>  0 0.12093036E+03</rscale>
<asrwt>0</asrwt>
<pdfrwt beam="1">  1        2 0.69723376E-02 0.13401219E+03</pdfrwt>
<pdfrwt beam="2">  1       -2 0.42620799E-01 0.13401219E+03</pdfrwt>
<totfact> 0.50736252E+03</totfact>
</mgrwt>
</event>
<event>
 7    1  0.5107591E-006  0.1263938E+03  0.7546771E-02  0.1247892E+00
          1   -1    0    0  501    0  0.00000000000E+00  0.00000000000E+00  0.20534695548E+03  0.20534695548E+03  0.00000000000E+00 0. -1.
         -1   -1    0    0    0  501 -0.00000000000E+00 -0.00000000000E+00 -0.12031391526E+03  0.12031391526E+03  0.00000000000E+00 0.  1.
         23    2    1    2    0    0  0.16805653425E+02 -0.82083987074E+01  0.15522874284E+03  0.18108275897E+03  0.91352039905E+02 0.  0.
          5    1    1    2  502    0  0.20187086201E+02  0.12047409872E+02  0.29531712886E+02  0.38037752298E+02  0.47000000000E+01 0.  1.
         -5    1    1    2    0  502 -0.36992739627E+02 -0.38390111642E+01 -0.99727415507E+02  0.10654035947E+03  0.47000000000E+01 0.  1.
        -11    1    3    3    0    0 -0.97758783920E+00 -0.28762343107E+02  0.59982493027E+01  0.29397398757E+02  0.00000000000E+00 0.  1.
         11    1    3    3    0    0  0.17783241265E+02  0.20553944399E+02  0.14923049354E+03  0.15168536021E+03  0.00000000000E+00 0. -1.
<mgrwt>
<rscale>  0 0.11713942E+03</rscale>
<asrwt>0</asrwt>
<pdfrwt beam="1">  1        1 0.31591839E-01 0.12639380E+03</pdfrwt>
<pdfrwt beam="2">  1       -1 0.18509833E-01 0.12639380E+03</pdfrwt>
<totfact> 0.31257441E+03</totfact>
</mgrwt>
</event>
<event>
 7    1  0.5107591E-006  0.1938532E+03  0.7546771E-02  0.1157893E+00
         -2   -1    0    0    0  501 -0.00000000000E+00  0.00000000000E+00  0.35445766314E+03  0.35445766314E+03  0.00000000000E+00 0.  1.
          2   -1    0    0  501    0  0.00000000000E+00 -0.00000000000E+00 -0.24731223964E+03  0.24731223964E+03  0.00000000000E+00 0. -1.
         23    2    1    2    0    0 -0.15540407325E+03  0.19381805998E+02 -0.17989988305E+03  0.25539715810E+03  0.91310788264E+02 0.  0.
          5    1    1    2  502    0  0.10887249407E+03 -0.39255952341E+02  0.10154496521E+03  0.15403804633E+03  0.47000000000E+01 0. -1.
         -5    1    1    2    0  502  0.46531579188E+02  0.19874146343E+02  0.18550034133E+03  0.19233469835E+03  0.47000000000E+01 0.  1.
        -11    1    3    3    0    0 -0.21732599242E+02  0.28488165916E+01  0.87490976643E+01  0.23600176604E+02  0.00000000000E+00 0.  1.
         11    1    3    3    0    0 -0.13367147401E+03  0.16532989406E+02 -0.18864898072E+03  0.23179698149E+03  0.00000000000E+00 0. -1.
<mgrwt>
<rscale>  0 0.19063138E+03</rscale>
<asrwt>0</asrwt>
<pdfrwt beam="2">  1        2 0.38048037E-01 0.19385322E+03</pdfrwt>
<pdfrwt beam="1">  1       -2 0.54531948E-01 0.19385322E+03</pdfrwt>
<totfact> 0.43662916E+02</totfact>
</mgrwt>
</event>
<event>
 7    1  0.5107591E-006  0.2349208E+03  0.7546771E-02  0.1123223E+00
          2   -1    0    0  501    0  0.00000000000E+00  0.00000000000E+00  0.58907422106E+03  0.58907422106E+03  0.00000000000E+00 0. -1.
         -2   -1    0    0    0  501 -0.00000000000E+00 -0.00000000000E+00 -0.23421394842E+02  0.23421394842E+02  0.00000000000E+00 0.  1.
         23    2    1    2    0    0  0.36351933546E+02 -0.23528255266E+02  0.33685501326E+03  0.34820623352E+03  0.76819523807E+02 0.  0.
          5    1    1    2  502    0 -0.80304189747E+02  0.28507503547E+02  0.12493553778E+03  0.15130240993E+03  0.47000000000E+01 0.  1.
         -5    1    1    2    0  502  0.43952256201E+02 -0.49792482818E+01  0.10386227518E+03  0.11298697245E+03  0.47000000000E+01 0.  1.
        -11    1    3    3    0    0  0.52969950776E+02  0.69420721781E+01  0.21004839194E+03  0.21673563391E+03  0.00000000000E+00 0.  1.
         11    1    3    3    0    0 -0.16618017230E+02 -0.30470327444E+02  0.12680662132E+03  0.13147059961E+03  0.00000000000E+00 0. -1.
<mgrwt>
<rscale>  0 0.23492075E+03</rscale>
<asrwt>0</asrwt>
<pdfrwt beam="1">  1        2 0.90626792E-01 0.23492075E+03</pdfrwt>
<pdfrwt beam="2">  1       -2 0.36032920E-02 0.23492075E+03</pdfrwt>
<totfact> 0.16339315E+04</totfact>
</mgrwt>
</event>
<event>
 7    1  0.5107591E-006  0.2128892E+03  0.7546771E-02  0.1157803E+00
          2   -1    0    0  501    0  0.00000000000E+00  0.00000000000E+00  0.15178250879E+03  0.15178250879E+03  0.00000000000E+00 0. -1.
         -2   -1    0    0    0  501 -0.00000000000E+00 -0.00000000000E+00 -0.25760423467E+03  0.25760423467E+03  0.00000000000E+00 0.  1.
         23    2    1    2    0    0  0.10221021422E+03 -0.13826493207E+02  0.49544074747E+02  0.14583345108E+03  0.90413938680E+02 0.  0.
          5    1    1    2  502    0 -0.75421308499E+02 -0.61587350516E+01  0.25172118222E+02  0.79887604351E+02  0.47000000000E+01 0. -1.
         -5    1    1    2    0  502 -0.26788905719E+02  0.19985228258E+02 -0.18053791884E+03  0.18366568803E+03  0.47000000000E+01 0.  1.
        -11    1    3    3    0    0  0.70152098007E+02  0.35008910046E+02  0.23299040073E+02  0.81791111410E+02  0.00000000000E+00 0.  1.
         11    1    3    3    0    0  0.32058116211E+02 -0.48835403253E+02  0.26245034674E+02  0.64042339674E+02  0.00000000000E+00 0. -1.
<mgrwt>
<rscale>  0 0.19073124E+03</rscale>
<asrwt>0</asrwt>
<pdfrwt beam="1">  1        2 0.23351156E-01 0.21288919E+03</pdfrwt>
<pdfrwt beam="2">  1       -2 0.39631420E-01 0.21288919E+03</pdfrwt>
<totfact> 0.13992784E+03</totfact>
</mgrwt>
</event>
<event>
 7    1  0.5107591E-006  0.1645559E+03  0.7546771E-02  0.1190491E+00
          2   -1    0    0  501    0  0.00000000000E+00  0.00000000000E+00  0.67227643689E+03  0.67227643689E+03  0.00000000000E+00 0. -1.
         -2   -1    0    0    0  501 -0.00000000000E+00 -0.00000000000E+00 -0.49218572497E+02  0.49218572497E+02  0.00000000000E+00 0.  1.
         23    2    1    2    0    0  0.10192885017E+03  0.32641772106E+02  0.48967885743E+03  0.50967292377E+03  0.92337045770E+02 0.  0.
          5    1    1    2  502    0 -0.19074760829E+02  0.88784180443E+01  0.11528069177E+03  0.11727915716E+03  0.47000000000E+01 0. -1.
         -5    1    1    2    0  502 -0.82854089338E+02 -0.41520190150E+02  0.18098315190E+02  0.94542928466E+02  0.47000000000E+01 0. -1.
        -11    1    3    3    0    0  0.82812044074E+02 -0.18030821075E+02  0.34297529127E+03  0.35329165794E+03  0.00000000000E+00 0.  1.
         11    1    3    3    0    0  0.19116806094E+02  0.50672593181E+02  0.14670356617E+03  0.15638126582E+03  0.00000000000E+00 0. -1.
<mgrwt>
<rscale>  0 0.15842090E+03</rscale>
<asrwt>0</asrwt>
<pdfrwt beam="1">  1        2 0.10342714E+00 0.16455588E+03</pdfrwt>
<pdfrwt beam="2">  1       -2 0.75720885E-02 0.16455588E+03</pdfrwt>
<totfact> 0.44447653E+03</totfact>
</mgrwt>
</event>
<event>
 7    1  0.5107591E-006  0.1572153E+03  0.7546771E-02  0.1199942E+00
         -1   -1    0    0    0  501 -0.00000000000E+00  0.00000000000E+00  0.29595156448E+02  0.29595156448E+02  0.00000000000E+00 0.  1.
          1   -1    0    0  501    0  0.00000000000E+00 -0.00000000000E+00 -0.70735417607E+03  0.70735417607E+03  0.00000000000E+00 0. -1.
         23    2    1    2    0    0  0.74541952633E+02 -0.59455780067E+02 -0.32761721194E+03  0.35313175304E+03  0.90980794435E+02 0.  0.
          5    1    1    2  502    0  0.55163833979E+00  0.59294142235E+02 -0.61617466698E+02  0.85644041301E+02  0.47000000000E+01 0. -1.
         -5    1    1    2    0  502 -0.75093590972E+02  0.16163783209E+00 -0.28852434098E+03  0.29817353818E+03  0.47000000000E+01 0. -1.
        -11    1    3    3    0    0  0.10068315761E+02  0.15184784593E+02 -0.10496142655E+02  0.21026594494E+02  0.00000000000E+00 0.  1.
         11    1    3    3    0    0  0.64473636872E+02 -0.74640564660E+02 -0.31712106929E+03  0.33210515854E+03  0.00000000000E+00 0. -1.
<mgrwt>
<rscale>  0 0.15043294E+03</rscale>
<asrwt>0</asrwt>
<pdfrwt beam="2">  1        1 0.10882371E+00 0.15721529E+03</pdfrwt>
<pdfrwt beam="1">  1       -1 0.45531012E-02 0.15721529E+03</pdfrwt>
<totfact> 0.54826252E+03</totfact>
</mgrwt>
</event>
<event>
 7    1  0.5107591E-006  0.1385790E+03  0.7546771E-02  0.1219491E+00
          2   -1    0    0  501    0  0.00000000000E+00  0.00000000000E+00  0.64539538028E+03  0.64539538028E+03  0.00000000000E+00 0. -1.
         -2   -1    0    0    0  501 -0.00000000000E+00 -0.00000000000E+00 -0.33379226006E+02  0.33379226006E+02  0.00000000000E+00 0.  1.
         23    2    1    2    0    0 -0.55588821408E+02 -0.22114739859E+02  0.43996437066E+03  0.45785389870E+03  0.11172451082E+03 0.  0.
          5    1    1    2  502    0  0.61001741268E+02 -0.30358881007E+02  0.14749897108E+03  0.16254510317E+03  0.47000000000E+01 0.  1.
         -5    1    1    2    0  502 -0.54129198594E+01  0.52473620866E+02  0.24552812531E+02  0.58375604420E+02  0.47000000000E+01 0.  1.
        -11    1    3    3    0    0 -0.87754351689E+02 -0.24983535167E+02  0.36496893545E+03  0.37620117904E+03  0.00000000000E+00 0.  1.
         11    1    3    3    0    0  0.32165530280E+02  0.28687953077E+01  0.74995435214E+02  0.81652719658E+02  0.00000000000E+00 0. -1.
<mgrwt>
<rscale>  0 0.13551785E+03</rscale>
<asrwt>0</asrwt>
<pdfrwt beam="1">  1        2 0.99291588E-01 0.13857901E+03</pdfrwt>
<pdfrwt beam="2">  1       -2 0.51352660E-02 0.13857901E+03</pdfrwt>
<totfact> 0.83548937E+03</totfact>
</mgrwt>
</event>
<event>
 7    1  0.5107591E-006  0.1305005E+03  0.7546771E-02  0.1240164E+00
         -2   -1    0    0    0  501 -0.00000000000E+00  0.00000000000E+00  0.50263901706E+03  0.50263901706E+03  0.00000000000E+00 0. -1.
          2   -1    0    0  501    0  0.00000000000E+00 -0.00000000000E+00 -0.37069291306E+02  0.37069291306E+02  0.00000000000E+00 0.  1.
         23    2    1    2    0    0 -0.27583214322E+02  0.25376648321E+02  0.65060541893E+02  0.11847442504E+03  0.91643370109E+02 0.  0.
          5    1    1    2  502    0 -0.51146593007E+01 -0.39055765808E+02  0.31925036100E+02  0.50919647609E+02  0.47000000000E+01 0. -1.
         -5    1    1    2    0  502  0.32697873622E+02  0.13679117487E+02  0.36858414776E+03  0.37031423572E+03  0.47000000000E+01 0. -1.
        -11    1    3    3    0    0  0.18636021905E+02  0.37559945294E+02  0.57819909397E+01  0.42325904860E+02  0.00000000000E+00 0.  1.
         11    1    3    3    0    0 -0.46219236227E+02 -0.12183296974E+02  0.59278550954E+02  0.76148520181E+02  0.00000000000E+00 0. -1.
<mgrwt>
<rscale>  0 0.12179536E+03</rscale>
<asrwt>0</asrwt>
<pdfrwt beam="2">  1        2 0.57029683E-02 0.13050049E+03</pdfrwt>
<pdfrwt beam="1">  1       -2 0.77329075E-01 0.13050049E+03</pdfrwt>
<totfact> 0.19471501E+03</totfact>
</mgrwt>
</event>
<event>
 7    1  0.5107591E-006  0.1289419E+03  0.7546771E-02  0.1244067E+00
          1   -1    0    0  501    0  0.00000000000E+00  0.00000000000E+00  0.94110002037E+02  0.94110002037E+02  0.00000000000E+00 0. -1.
         -1   -1    0    0    0  501 -0.00000000000E+00 -0.00000000000E+00 -0.14428436970E+03  0.14428436970E+03  0.00000000000E+00 0.  1.
         23    2    1    2    0    0  0.12123771277E+02  0.29228492790E+02  0.11347997782E+02  0.95527227146E+02  0.89416908087E+02 0.  0.
          5    1    1    2  502    0  0.50087967607E-01 -0.77292078912E+02 -0.25961875718E+02  0.81671151346E+02  0.47000000000E+01 0. -1.
         -5    1    1    2    0  502 -0.12173859244E+02  0.48063586122E+02 -0.35560489732E+02  0.61195993250E+02  0.47000000000E+01 0. -1.
        -11    1    3    3    0    0 -0.15923601847E+02  0.50304208199E+02  0.24350193963E+02  0.58112016006E+02  0.00000000000E+00 0.  1.
         11    1    3    3    0    0  0.28047373123E+02 -0.21075715409E+02 -0.13002196181E+02  0.37415211140E+02  0.00000000000E+00 0. -1.
<mgrwt>
<rscale>  0 0.11941417E+03</rscale>
<asrwt>0</asrwt>
<pdfrwt beam="1">  1        1 0.14478462E-01 0.12894192E+03</pdfrwt>
<pdfrwt beam="2">  1       -1 0.22197595E-01 0.12894192E+03</pdfrwt>
<totfact> 0.62721023E+03</totfact>
</mgrwt>
</event>
<event>
 7    1  0.5107591E-006  0.4167855E+03  0.7546771E-02  0.1038856E+00
          2   -1    0    0  501    0  0.00000000000E+00  0.00000000000E+00  0.13854529805E+04  0.13854529805E+04  0.00000000000E+00 0. -1.
         -2   -1    0    0    0  501 -0.00000000000E+00 -0.00000000000E+00 -0.12284495390E+03  0.12284495390E+03  0.00000000000E+00 0.  1.
         23    2    1    2    0    0  0.27641485130E+03 -0.28579797437E+03  0.64833846598E+03  0.76597912588E+03  0.91080199001E+02 0.  0.
          5    1    1    2  502    0  0.98079995243E+01 -0.12681774721E+01  0.11303764238E+02  0.15737541572E+02  0.47000000000E+01 0. -1.
         -5    1    1    2    0  502 -0.28622285082E+03  0.28706615184E+03  0.60296579641E+03  0.72658126697E+03  0.47000000000E+01 0. -1.
        -11    1    3    3    0    0  0.12861703075E+03 -0.70722198747E+02  0.22326589570E+03  0.26719212222E+03  0.00000000000E+00 0.  1.
         11    1    3    3    0    0  0.14779782055E+03 -0.21507577562E+03  0.42507257028E+03  0.49878700366E+03  0.00000000000E+00 0. -1.
<mgrwt>
<rscale>  0 0.41454575E+03</rscale>
<asrwt>0</asrwt>
<pdfrwt beam="1">  1        2 0.21314660E+00 0.41678546E+03</pdfrwt>
<pdfrwt beam="2">  1       -2 0.18899225E-01 0.41678546E+03</pdfrwt>
<totfact> 0.36049858E+02</totfact>
</mgrwt>
</event>
<event>
 7    1  0.5107591E-006  0.1254813E+03  0.7546771E-02  0.1249509E+00
         -3   -1    0    0    0  501 -0.00000000000E+00  0.00000000000E+00  0.10602825617E+03  0.10602825617E+03  0.00000000000E+00 0.  1.
          3   -1    0    0  501    0  0.00000000000E+00 -0.00000000000E+00 -0.12097131965E+03  0.12097131965E+03  0.00000000000E+00 0. -1.
         23    2    1    2    0    0 -0.44746961814E+01 -0.99165573592E+01 -0.37347426731E+02  0.99533895333E+02  0.91617711285E+02 0.  0.
          5    1    1    2  502    0 -0.45879825557E+02  0.14720025428E+02 -0.27980117080E+02  0.55916138043E+02  0.47000000000E+01 0.  1.
         -5    1    1    2    0  502  0.50354521739E+02 -0.48034680689E+01  0.50384480335E+02  0.71549542442E+02  0.47000000000E+01 0.  1.
        -11    1    3    3    0    0 -0.45365297003E+02 -0.11823974239E+02 -0.45889771570E+01  0.47104938704E+02  0.00000000000E+00 0.  1.
         11    1    3    3    0    0  0.40890600822E+02  0.19074168793E+01 -0.32758449574E+02  0.52428956629E+02  0.00000000000E+00 0. -1.
<mgrwt>
<rscale>  0 0.11619545E+03</rscale>
<asrwt>0</asrwt>
<pdfrwt beam="2">  1        3 0.18610972E-01 0.12548125E+03</pdfrwt>
<pdfrwt beam="1">  1       -3 0.16312039E-01 0.12548125E+03</pdfrwt>
<totfact> 0.18511940E+03</totfact>
</mgrwt>
</event>
<event>
 7    1  0.5107591E-006  0.1462217E+03  0.7546771E-02  0.1214158E+00
          2   -1    0    0  501    0  0.00000000000E+00  0.00000000000E+00  0.65708815258E+03  0.65708815258E+03  0.00000000000E+00 0. -1.
         -2   -1    0    0    0  501 -0.00000000000E+00 -0.00000000000E+00 -0.35128949582E+02  0.35128949582E+02  0.00000000000E+00 0.  1.
         23    2    1    2    0    0  0.72770059161E+02 -0.21456865913E+02  0.45279827767E+03  0.46861879126E+03  0.93922375665E+02 0.  0.
          5    1    1    2  502    0 -0.41953189424E+02  0.54037818335E+02  0.16455568931E+03  0.17827176107E+03  0.47000000000E+01 0.  1.
         -5    1    1    2    0  502 -0.30816869736E+02 -0.32580952422E+02  0.46052360216E+01  0.45326549834E+02  0.47000000000E+01 0.  1.
        -11    1    3    3    0    0  0.67100686212E+01 -0.33860698307E+02  0.53272838906E+02  0.63478872673E+02  0.00000000000E+00 0.  1.
         11    1    3    3    0    0  0.66059990539E+02  0.12403832394E+02  0.39952543877E+03  0.40513991859E+03  0.00000000000E+00 0. -1.
<mgrwt>
<rscale>  0 0.13938578E+03</rscale>
<asrwt>0</asrwt>
<pdfrwt beam="1">  1        2 0.10109048E+00 0.14622170E+03</pdfrwt>
<pdfrwt beam="2">  1       -2 0.54044543E-02 0.14622170E+03</pdfrwt>
<totfact> 0.75989532E+03</totfact>
</mgrwt>
</event>
<event>
 7    1  0.5107591E-006  0.1390818E+03  0.7546771E-02  0.1224734E+00
         -2   -1    0    0    0  501 -0.00000000000E+00  0.00000000000E+00  0.36053706874E+02  0.36053706874E+02  0.00000000000E+00 0.  1.
          2   -1    0    0  501    0  0.00000000000E+00 -0.00000000000E+00 -0.45129661370E+03  0.45129661370E+03  0.00000000000E+00 0. -1.
         23    2    1    2    0    0  0.14733371785E+02 -0.59176235025E+02 -0.22725854142E+03  0.25350877579E+03  0.94346996318E+02 0.  0.
          5    1    1    2  502    0 -0.44143057175E+02 -0.23293824058E+02 -0.84000714412E+02  0.97823421315E+02  0.47000000000E+01 0. -1.
         -5    1    1    2    0  502  0.29409685390E+02  0.82470059084E+02 -0.10398365099E+03  0.13601812347E+03  0.47000000000E+01 0. -1.
        -11    1    3    3    0    0  0.39280610361E+02 -0.43215876090E+02 -0.60083608645E+02  0.83789130108E+02  0.00000000000E+00 0.  1.
         11    1    3    3    0    0 -0.24547238576E+02 -0.15960358936E+02 -0.16717493278E+03  0.16971964568E+03  0.00000000000E+00 0. -1.
<mgrwt>
<rscale>  0 0.13185185E+03</rscale>
<asrwt>0</asrwt>
<pdfrwt beam="2">  1        2 0.69430247E-01 0.13908180E+03</pdfrwt>
<pdfrwt beam="1">  1       -2 0.55467243E-02 0.13908180E+03</pdfrwt>
<totfact> 0.11092120E+04</totfact>
</mgrwt>
</event>
<event>
 7    1  0.5107591E-006  0.1281327E+03  0.7546771E-02  0.1245099E+00
         -1   -1    0    0    0  501 -0.00000000000E+00  0.00000000000E+00  0.67017995084E+02  0.67017995084E+02  0.00000000000E+00 0.  1.
          1   -1    0    0  501    0  0.00000000000E+00 -0.00000000000E+00 -0.18553214324E+03  0.18553214324E+03  0.00000000000E+00 0. -1.
         23    2    1    2    0    0 -0.23262154964E+02 -0.15920693637E+02 -0.55839808733E+02  0.10991048164E+03  0.90374959998E+02 0.  0.
          5    1    1    2  502    0 -0.48006109106E+02  0.24294916821E+02 -0.40099186559E+02  0.67267111262E+02  0.47000000000E+01 0.  1.
         -5    1    1    2    0  502  0.71268264070E+02 -0.83742231831E+01 -0.22575152867E+02  0.75372545429E+02  0.47000000000E+01 0.  1.
        -11    1    3    3    0    0  0.80248840805E+01 -0.39840959076E+02  0.11253427715E+01  0.40656699091E+02  0.00000000000E+00 0.  1.
         11    1    3    3    0    0 -0.31287039045E+02  0.23920265439E+02 -0.56965151505E+02  0.69253782545E+02  0.00000000000E+00 0. -1.
<mgrwt>
<rscale>  0 0.11879471E+03</rscale>
<asrwt>0</asrwt>
<pdfrwt beam="2">  1        1 0.28543406E-01 0.12813274E+03</pdfrwt>
<pdfrwt beam="1">  1       -1 0.10310461E-01 0.12813274E+03</pdfrwt>
<totfact> 0.88211311E+03</totfact>
</mgrwt>
</event>
<event>
 7    1  0.5107591E-006  0.2164730E+03  0.7546771E-02  0.1140150E+00
         -2   -1    0    0    0  501 -0.00000000000E+00  0.00000000000E+00  0.40577529798E+02  0.40577529798E+02  0.00000000000E+00 0.  1.
          2   -1    0    0  501    0  0.00000000000E+00 -0.00000000000E+00 -0.10811324500E+04  0.10811324500E+04  0.00000000000E+00 0. -1.
         23    2    1    2    0    0 -0.12362375479E+03 -0.12628725471E+03 -0.57581452345E+03  0.60902666107E+03  0.90109960774E+02 0.  0.
          5    1    1    2  502    0  0.13985536258E+03  0.81239447524E+02 -0.40398615227E+03  0.43518533007E+03  0.47000000000E+01 0. -1.
         -5    1    1    2    0  502 -0.16231607793E+02  0.45047807186E+02 -0.60754244476E+02  0.77497988656E+02  0.47000000000E+01 0. -1.
        -11    1    3    3    0    0 -0.63075215926E+02 -0.11025298248E+03 -0.29281259148E+03  0.31917615315E+03  0.00000000000E+00 0.  1.
         11    1    3    3    0    0 -0.60548538863E+02 -0.16034272227E+02 -0.28300193196E+03  0.28985050791E+03  0.00000000000E+00 0. -1.
<mgrwt>
<rscale>  0 0.21179826E+03</rscale>
<asrwt>0</asrwt>
<pdfrwt beam="2">  1        2 0.16632806E+00 0.21647298E+03</pdfrwt>
<pdfrwt beam="1">  1       -2 0.62426973E-02 0.21647298E+03</pdfrwt>
<totfact> 0.32473030E+03</totfact>
</mgrwt>
</event>
<event>
 7    1  0.5107591E-006  0.2209673E+03  0.7546771E-02  0.1133164E+00
         -2   -1    0    0    0  501 -0.00000000000E+00  0.00000000000E+00  0.42151335348E+02  0.42151335348E+02  0.00000000000E+00 0.  1.
          2   -1    0    0  501    0  0.00000000000E+00 -0.00000000000E+00 -0.28959072115E+03  0.28959072115E+03  0.00000000000E+00 0. -1.
         23    2    1    2    0    0 -0.94105519287E+01  0.19121032195E+02 -0.10129165942E+03  0.13825273378E+03  0.91649581399E+02 0.  0.
          5    1    1    2  502    0 -0.17185594724E+01  0.44879135914E+02 -0.11020846155E+03  0.11910115568E+03  0.47000000000E+01 0.  1.
         -5    1    1    2    0  502  0.11129111401E+02 -0.64000168109E+02 -0.35939264835E+02  0.74388167039E+02  0.47000000000E+01 0.  1.
        -11    1    3    3    0    0  0.31466847644E+02  0.15359441519E+02 -0.74129882567E+01  0.35791442264E+02  0.00000000000E+00 0.  1.
         11    1    3    3    0    0 -0.40877399573E+02  0.37615906753E+01 -0.93878671163E+02  0.10246129152E+03  0.00000000000E+00 0. -1.
<mgrwt>
<rscale>  0 0.22096729E+03</rscale>
<asrwt>0</asrwt>
<pdfrwt beam="2">  1        2 0.44552418E-01 0.22096729E+03</pdfrwt>
<pdfrwt beam="1">  1       -2 0.64848210E-02 0.22096729E+03</pdfrwt>
<totfact> 0.14556004E+04</totfact>
</mgrwt>
</event>
<event>
 7    1  0.5107591E-006  0.1283065E+03  0.7546771E-02  0.1244287E+00
         -1   -1    0    0    0  501 -0.00000000000E+00  0.00000000000E+00  0.35498303574E+03  0.35498303574E+03  0.00000000000E+00 0.  1.
          1   -1    0    0  501    0  0.00000000000E+00 -0.00000000000E+00 -0.36408193762E+02  0.36408193762E+02  0.00000000000E+00 0. -1.
         23    2    1    2    0    0  0.28668161723E+02 -0.38646587631E+01  0.10436823339E+03  0.14169736896E+03  0.91370767460E+02 0.  0.
          5    1    1    2  502    0 -0.43418171513E+02 -0.21639082268E+02  0.21438853742E+03  0.21985886945E+03  0.47000000000E+01 0. -1.
         -5    1    1    2    0  502  0.14750009790E+02  0.25503741031E+02 -0.18192882662E+00  0.29834991092E+02  0.47000000000E+01 0. -1.
        -11    1    3    3    0    0 -0.11974488732E+01 -0.31500416297E+02  0.20553802911E+01  0.31590104444E+02  0.00000000000E+00 0. -1.
         11    1    3    3    0    0  0.29865610596E+02  0.27635757534E+02  0.10231285309E+03  0.11010726452E+03  0.00000000000E+00 0.  1.
<mgrwt>
<rscale>  0 0.11928169E+03</rscale>
<asrwt>0</asrwt>
<pdfrwt beam="2">  1        1 0.56012608E-02 0.12830648E+03</pdfrwt>
<pdfrwt beam="1">  1       -1 0.54612772E-01 0.12830648E+03</pdfrwt>
<totfact> 0.47077791E+03</totfact>
</mgrwt>
</event>
<event>
 7    1  0.5107591E-006  0.3066998E+03  0.7546771E-02  0.1083444E+00
         -1   -1    0    0    0  501 -0.00000000000E+00  0.00000000000E+00  0.11285665740E+04  0.11285665740E+04  0.00000000000E+00 0.  1.
          1   -1    0    0  501    0  0.00000000000E+00 -0.00000000000E+00 -0.10199017221E+03  0.10199017221E+03  0.00000000000E+00 0. -1.
         23    2    1    2    0    0 -0.11865791970E+03  0.25370505051E+03  0.22006130780E+03  0.36769443959E+03  0.91248381647E+02 0.  0.
          5    1    1    2  502    0  0.49844186095E+02 -0.21118594050E+03  0.66816238185E+03  0.70252900501E+03  0.47000000000E+01 0. -1.
         -5    1    1    2    0  502  0.68813733607E+02 -0.42519110008E+02  0.13835271213E+03  0.16033330160E+03  0.47000000000E+01 0. -1.
        -11    1    3    3    0    0 -0.35618640502E+02  0.16807596154E+03  0.15715174056E+03  0.23284090268E+03  0.00000000000E+00 0.  1.
         11    1    3    3    0    0 -0.83039279200E+02  0.85629088966E+02  0.62909567245E+02  0.13485353691E+03  0.00000000000E+00 0. -1.
<mgrwt>
<rscale>  0 0.30362163E+03</rscale>
<asrwt>0</asrwt>
<pdfrwt beam="2">  1        1 0.15690797E-01 0.30669979E+03</pdfrwt>
<pdfrwt beam="1">  1       -1 0.17362562E+00 0.30669979E+03</pdfrwt>
<totfact> 0.88950467E+01</totfact>
</mgrwt>
</event>
<event>
 7    1  0.5107591E-006  0.2259300E+03  0.7546771E-02  0.1132698E+00
         -2   -1    0    0    0  501 -0.00000000000E+00  0.00000000000E+00  0.16238824281E+03  0.16238824281E+03  0.00000000000E+00 0.  1.
          2   -1    0    0  501    0  0.00000000000E+00 -0.00000000000E+00 -0.34023857578E+03  0.34023857578E+03  0.00000000000E+00 0. -1.
         23    2    1    2    0    0 -0.18405340420E+03 -0.39262852656E+02 -0.18118577283E+03  0.27667215636E+03  0.91115150396E+02 0.  0.
          5    1    1    2  502    0  0.15583317855E+03  0.34501864814E+02  0.53169380874E+02  0.16829566624E+03  0.47000000000E+01 0.  1.
         -5    1    1    2    0  502  0.28220225654E+02  0.47609878418E+01 -0.49833941024E+02  0.57658995995E+02  0.47000000000E+01 0.  1.
        -11    1    3    3    0    0 -0.14505798398E+02 -0.48866918758E+01  0.10424853694E+02  0.18519598246E+02  0.00000000000E+00 0.  1.
         11    1    3    3    0    0 -0.16954760580E+03 -0.34376160780E+02 -0.19161062652E+03  0.25815255811E+03  0.00000000000E+00 0. -1.
<mgrwt>
<rscale>  0 0.22159732E+03</rscale>
<asrwt>0</asrwt>
<pdfrwt beam="2">  1        2 0.52344396E-01 0.22593004E+03</pdfrwt>
<pdfrwt beam="1">  1       -2 0.24982807E-01 0.22593004E+03</pdfrwt>
<totfact> 0.13520996E+03</totfact>
</mgrwt>
</event>
<event>
 7    1  0.5107591E-006  0.1399938E+03  0.7546771E-02  0.1224187E+00
         -1   -1    0    0    0  501 -0.00000000000E+00  0.00000000000E+00  0.94208146324E+02  0.94208146324E+02  0.00000000000E+00 0.  1.
          1   -1    0    0  501    0  0.00000000000E+00 -0.00000000000E+00 -0.16781419004E+03  0.16781419004E+03  0.00000000000E+00 0. -1.
         23    2    1    2    0    0 -0.31825554082E+02 -0.54419287108E+02 -0.29867166307E+02  0.11535483521E+03  0.91871462819E+02 0.  0.
          5    1    1    2  502    0 -0.31470057220E+02  0.67959273829E+02 -0.21378407515E+02  0.78025340170E+02  0.47000000000E+01 0.  1.
         -5    1    1    2    0  502  0.63295611302E+02 -0.13539986721E+02 -0.22360469890E+02  0.68642160982E+02  0.47000000000E+01 0.  1.
        -11    1    3    3    0    0 -0.32630883832E+02 -0.76607522630E+02 -0.71253445659E+01  0.83571871096E+02  0.00000000000E+00 0.  1.
         11    1    3    3    0    0  0.80532975009E+00  0.22188235522E+02 -0.22741821741E+02  0.31782964111E+02  0.00000000000E+00 0. -1.
<mgrwt>
<rscale>  0 0.13222805E+03</rscale>
<asrwt>0</asrwt>
<pdfrwt beam="2">  1        1 0.25817567E-01 0.13999381E+03</pdfrwt>
<pdfrwt beam="1">  1       -1 0.14493561E-01 0.13999381E+03</pdfrwt>
<totfact> 0.59463082E+03</totfact>
</mgrwt>
</event>
<event>
 7    1  0.5107591E-006  0.2000082E+03  0.7546771E-02  0.1154029E+00
         -2   -1    0    0    0  501 -0.00000000000E+00  0.00000000000E+00  0.19908916465E+02  0.19908916465E+02  0.00000000000E+00 0. -1.
          2   -1    0    0  501    0  0.00000000000E+00 -0.00000000000E+00 -0.18690130282E+04  0.18690130282E+04  0.00000000000E+00 0.  1.
         23    2    1    2    0    0 -0.12624452191E+03 -0.91889723976E+02 -0.10314956147E+04  0.10472052747E+04  0.90963088776E+02 0.  0.
          5    1    1    2  502    0 -0.10224713335E+02  0.39544087287E+02 -0.82197510621E+02  0.91906476129E+02  0.47000000000E+01 0.  1.
         -5    1    1    2    0  502  0.13646923525E+03  0.52345636689E+02 -0.73541098642E+03  0.74981019385E+03  0.47000000000E+01 0.  1.
        -11    1    3    3    0    0 -0.11668595898E+02 -0.60646345913E+02 -0.33041326487E+03  0.33613548014E+03  0.00000000000E+00 0. -1.
         11    1    3    3    0    0 -0.11457592601E+03 -0.31243378063E+02 -0.70108234983E+03  0.71106979457E+03  0.00000000000E+00 0.  1.
<mgrwt>
<rscale>  0 0.19499828E+03</rscale>
<asrwt>0</asrwt>
<pdfrwt beam="2">  1        2 0.28754053E+00 0.20000825E+03</pdfrwt>
<pdfrwt beam="1">  1       -2 0.30629096E-02 0.20000825E+03</pdfrwt>
<totfact> 0.35717231E+03</totfact>
</mgrwt>
</event>
<event>
 7    1  0.5107591E-006  0.1650987E+03  0.7546771E-02  0.1189778E+00
          2   -1    0    0  501    0  0.00000000000E+00  0.00000000000E+00  0.25434623516E+03  0.25434623516E+03  0.00000000000E+00 0. -1.
         -2   -1    0    0    0  501 -0.00000000000E+00 -0.00000000000E+00 -0.96595515982E+02  0.96595515982E+02  0.00000000000E+00 0.  1.
         23    2    1    2    0    0  0.16609193566E+02 -0.10654949963E+03  0.10786282880E+03  0.17847034371E+03  0.92674767686E+02 0.  0.
          5    1    1    2  502    0 -0.10915249659E+02  0.10172762661E+03  0.86964945681E+02  0.13436012976E+03  0.47000000000E+01 0.  1.
         -5    1    1    2    0  502 -0.56939439077E+01  0.48218730146E+01 -0.37077055299E+02  0.38111277678E+02  0.47000000000E+01 0.  1.
        -11    1    3    3    0    0  0.13947223087E+02 -0.10355343389E+02  0.74687951350E+02  0.76681472634E+02  0.00000000000E+00 0. -1.
         11    1    3    3    0    0  0.26619704794E+01 -0.96194156236E+02  0.33174877449E+02  0.10178887107E+03  0.00000000000E+00 0.  1.
<mgrwt>
<rscale>  0 0.15904612E+03</rscale>
<asrwt>0</asrwt>
<pdfrwt beam="1">  1        2 0.39130190E-01 0.16509871E+03</pdfrwt>
<pdfrwt beam="2">  1       -2 0.14860849E-01 0.16509871E+03</pdfrwt>
<totfact> 0.44159592E+03</totfact>
</mgrwt>
</event>
<event>
 7    1  0.5107591E-006  0.1496647E+03  0.7546771E-02  0.1208784E+00
          1   -1    0    0  501    0  0.00000000000E+00  0.00000000000E+00  0.12293051558E+03  0.12293051558E+03  0.00000000000E+00 0. -1.
         -1   -1    0    0    0  501 -0.00000000000E+00 -0.00000000000E+00 -0.24467950763E+03  0.24467950763E+03  0.00000000000E+00 0.  1.
         23    2    1    2    0    0  0.82162225079E+02  0.47942640882E+01  0.53529922879E+02  0.13712744746E+03  0.95733317112E+02 0.  0.
          5    1    1    2  502    0 -0.91775402254E+02 -0.28411450881E+02 -0.18003741593E+03  0.20412127800E+03  0.47000000000E+01 0.  1.
         -5    1    1    2    0  502  0.96131771747E+01  0.23617186792E+02  0.47585009931E+01  0.26361297750E+02  0.47000000000E+01 0.  1.
        -11    1    3    3    0    0  0.64342634809E+02 -0.31476262139E+02  0.63256273425E+02  0.95561947762E+02  0.00000000000E+00 0. -1.
         11    1    3    3    0    0  0.17819590270E+02  0.36270526227E+02 -0.97263505458E+01  0.41565499698E+02  0.00000000000E+00 0.  1.
<mgrwt>
<rscale>  0 0.14343178E+03</rscale>
<asrwt>0</asrwt>
<pdfrwt beam="1">  1        1 0.18912387E-01 0.14966469E+03</pdfrwt>
<pdfrwt beam="2">  1       -1 0.37643001E-01 0.14966469E+03</pdfrwt>
<totfact> 0.18505404E+03</totfact>
</mgrwt>
</event>
<event>
 7    1  0.5107591E-006  0.1372870E+03  0.7546771E-02  0.1229158E+00
          2   -1    0    0  501    0  0.00000000000E+00  0.00000000000E+00  0.13799557556E+03  0.13799557556E+03  0.00000000000E+00 0. -1.
         -2   -1    0    0    0  501 -0.00000000000E+00 -0.00000000000E+00 -0.11968748191E+03  0.11968748191E+03  0.00000000000E+00 0.  1.
         23    2    1    2    0    0 -0.48830550393E+02 -0.28948210948E+02  0.48565555966E+02  0.11710128190E+03  0.90175802893E+02 0.  0.
          5    1    1    2  502    0  0.64922803534E+02  0.41787815060E+02  0.25109155324E+02  0.81324975176E+02  0.47000000000E+01 0.  1.
         -5    1    1    2    0  502 -0.16092253141E+02 -0.12839604112E+02 -0.55366617638E+02  0.59256800400E+02  0.47000000000E+01 0.  1.
        -11    1    3    3    0    0 -0.48182653483E+02  0.44738157906E+01  0.64038818477E+02  0.80265518103E+02  0.00000000000E+00 0. -1.
         11    1    3    3    0    0 -0.64789691044E+00 -0.33422026739E+02 -0.15473262511E+02  0.36835763796E+02  0.00000000000E+00 0.  1.
<mgrwt>
<rscale>  0 0.12885941E+03</rscale>
<asrwt>0</asrwt>
<pdfrwt beam="1">  1        2 0.21230089E-01 0.13728700E+03</pdfrwt>
<pdfrwt beam="2">  1       -2 0.18413459E-01 0.13728700E+03</pdfrwt>
<totfact> 0.59744486E+03</totfact>
</mgrwt>
</event>
<event>
 7    1  0.5107591E-006  0.1307455E+03  0.7546771E-02  0.1239389E+00
          1   -1    0    0  501    0  0.00000000000E+00  0.00000000000E+00  0.22046906493E+03  0.22046906493E+03  0.00000000000E+00 0. -1.
         -1   -1    0    0    0  501 -0.00000000000E+00 -0.00000000000E+00 -0.77799953625E+02  0.77799953625E+02  0.00000000000E+00 0.  1.
         23    2    1    2    0    0  0.30297871444E+02  0.23474360925E+02  0.13403306664E+03  0.16723864241E+03  0.92384489638E+02 0.  0.
          5    1    1    2  502    0  0.32485218472E+01  0.48805173475E+02  0.13801800423E+02  0.51039960296E+02  0.47000000000E+01 0.  1.
         -5    1    1    2    0  502 -0.33546393291E+02 -0.72279534400E+02 -0.51657557580E+01  0.79990415854E+02  0.47000000000E+01 0.  1.
        -11    1    3    3    0    0  0.59785526050E+02  0.75633535865E+01  0.11186071231E+03  0.12706034944E+03  0.00000000000E+00 0.  1.
         11    1    3    3    0    0 -0.29487654606E+02  0.15911007339E+02  0.22172354332E+02  0.40178292962E+02  0.00000000000E+00 0. -1.
<mgrwt>
<rscale>  0 0.12227598E+03</rscale>
<asrwt>0</asrwt>
<pdfrwt beam="1">  1        1 0.33918317E-01 0.13074547E+03</pdfrwt>
<pdfrwt beam="2">  1       -1 0.11969224E-01 0.13074547E+03</pdfrwt>
<totfact> 0.56733240E+03</totfact>
</mgrwt>
</event>
<event>
 7    1  0.5107591E-006  0.1264260E+03  0.7546771E-02  0.1248748E+00
         -1   -1    0    0    0  501 -0.00000000000E+00  0.00000000000E+00  0.41484738605E+03  0.41484738605E+03  0.00000000000E+00 0.  1.
          1   -1    0    0  501    0  0.00000000000E+00 -0.00000000000E+00 -0.29141494109E+02  0.29141494109E+02  0.00000000000E+00 0. -1.
         23    2    1    2    0    0  0.10614582274E+02  0.15653394146E+02  0.13392579424E+03  0.16225007772E+03  0.89617360229E+02 0.  0.
          5    1    1    2  502    0  0.51444928168E+02 -0.84562343206E+01  0.17488643052E+03  0.18255257355E+03  0.47000000000E+01 0.  1.
         -5    1    1    2    0  502 -0.62059510442E+02 -0.71971598257E+01  0.76893667194E+02  0.99186228885E+02  0.47000000000E+01 0.  1.
        -11    1    3    3    0    0 -0.19490547246E+02  0.41670274229E+02  0.99559666190E+02  0.10967415520E+03  0.00000000000E+00 0. -1.
         11    1    3    3    0    0  0.30105129521E+02 -0.26016880083E+02  0.34366128047E+02  0.52575922528E+02  0.00000000000E+00 0.  1.
<mgrwt>
<rscale>  0 0.11663822E+03</rscale>
<asrwt>0</asrwt>
<pdfrwt beam="2">  1        1 0.44833071E-02 0.12642601E+03</pdfrwt>
<pdfrwt beam="1">  1       -1 0.63822670E-01 0.12642601E+03</pdfrwt>
<totfact> 0.47464511E+03</totfact>
</mgrwt>
</event>
<event>
 7    1  0.5107591E-006  0.4047303E+03  0.7546771E-02  0.1042154E+00
         -2   -1    0    0    0  501 -0.00000000000E+00  0.00000000000E+00  0.69319246465E+02  0.69319246465E+02  0.00000000000E+00 0.  1.
          2   -1    0    0  501    0  0.00000000000E+00 -0.00000000000E+00 -0.59076877993E+03  0.59076877993E+03  0.00000000000E+00 0. -1.
         23    2    1    2    0    0  0.21504292599E+02 -0.40010355151E+01 -0.13016560221E+03  0.16040162023E+03  0.91143583909E+02 0.  0.
          5    1    1    2  502    0  0.11132357190E+03 -0.93822748874E+02 -0.17759372658E+03  0.22968950257E+03  0.47000000000E+01 0. -1.
         -5    1    1    2    0  502 -0.13282786450E+03  0.97823784389E+02 -0.21369020467E+03  0.26999690360E+03  0.47000000000E+01 0.  1.
        -11    1    3    3    0    0  0.32085582359E+02  0.37100849586E+02 -0.86942868163E+02  0.99824946580E+02  0.00000000000E+00 0.  1.
         11    1    3    3    0    0 -0.10581289760E+02 -0.41101885101E+02 -0.43222734048E+02  0.60576673649E+02  0.00000000000E+00 0. -1.
<mgrwt>
<rscale>  0 0.40473026E+03</rscale>
<asrwt>0</asrwt>
<pdfrwt beam="2">  1        2 0.90887508E-01 0.40473026E+03</pdfrwt>
<pdfrwt beam="1">  1       -2 0.10664499E-01 0.40473026E+03</pdfrwt>
<totfact> 0.30928840E+03</totfact>
</mgrwt>
</event>
<event>
 7    1  0.5107591E-006  0.2529690E+03  0.7546771E-02  0.1113936E+00
         -2   -1    0    0    0  501 -0.00000000000E+00  0.00000000000E+00  0.54476714026E+02  0.54476714026E+02  0.00000000000E+00 0. -1.
          2   -1    0    0  501    0  0.00000000000E+00 -0.00000000000E+00 -0.11040468986E+04  0.11040468986E+04  0.00000000000E+00 0.  1.
         23    2    1    2    0    0 -0.10936739860E+03  0.19080603872E+03 -0.51596049966E+03  0.56798774094E+03  0.89591653371E+02 0.  0.
          5    1    1    2  502    0  0.17212252528E+02 -0.12771174349E+03 -0.19353564406E+03  0.23256114590E+03  0.47000000000E+01 0.  1.
         -5    1    1    2    0  502  0.92155146073E+02 -0.63094295237E+02 -0.34007404084E+03  0.35797472577E+03  0.47000000000E+01 0.  1.
        -11    1    3    3    0    0 -0.71005082424E+02  0.11728530671E+03 -0.41652953352E+03  0.43851387344E+03  0.00000000000E+00 0.  1.
         11    1    3    3    0    0 -0.38362316178E+02  0.73520732011E+02 -0.99430966138E+02  0.12947386750E+03  0.00000000000E+00 0. -1.
<mgrwt>
<rscale>  0 0.24900348E+03</rscale>
<asrwt>0</asrwt>
<pdfrwt beam="2">  1        2 0.16985336E+00 0.25296901E+03</pdfrwt>
<pdfrwt beam="1">  1       -2 0.83810333E-02 0.25296901E+03</pdfrwt>
<totfact> 0.19950164E+03</totfact>
</mgrwt>
</event>
<event>
 7    1  0.5107591E-006  0.1255840E+03  0.7546771E-02  0.1249199E+00
          2   -1    0    0  501    0  0.00000000000E+00  0.00000000000E+00  0.58676486182E+03  0.58676486182E+03  0.00000000000E+00 0. -1.
         -2   -1    0    0    0  501 -0.00000000000E+00 -0.00000000000E+00 -0.20340443262E+02  0.20340443262E+02  0.00000000000E+00 0.  1.
         23    2    1    2    0    0  0.11051722477E+02 -0.48082486200E+01  0.22468896168E+03  0.24302502052E+03  0.91819231493E+02 0.  0.
          5    1    1    2  502    0  0.83490575387E+01  0.45714484394E+02  0.29561203640E+03  0.29927927912E+03  0.47000000000E+01 0. -1.
         -5    1    1    2    0  502 -0.19400780016E+02 -0.40906235774E+02  0.46123420478E+02  0.64801005448E+02  0.47000000000E+01 0. -1.
        -11    1    3    3    0    0 -0.37975056931E+02  0.85188178464E+01  0.68542194513E+02  0.78820730998E+02  0.00000000000E+00 0. -1.
         11    1    3    3    0    0  0.49026779408E+02 -0.13327066466E+02  0.15614676717E+03  0.16420428952E+03  0.00000000000E+00 0.  1.
<mgrwt>
<rscale>  0 0.11637546E+03</rscale>
<asrwt>0</asrwt>
<pdfrwt beam="1">  1        2 0.90271504E-01 0.12558396E+03</pdfrwt>
<pdfrwt beam="2">  1       -2 0.31292994E-02 0.12558396E+03</pdfrwt>
<totfact> 0.19307693E+04</totfact>
</mgrwt>
</event>
<event>
 7    1  0.5107591E-006  0.1334564E+03  0.7546771E-02  0.1234427E+00
          1   -1    0    0  501    0  0.00000000000E+00  0.00000000000E+00  0.26665084734E+03  0.26665084734E+03  0.00000000000E+00 0. -1.
         -1   -1    0    0    0  501 -0.00000000000E+00 -0.00000000000E+00 -0.52898407501E+02  0.52898407501E+02  0.00000000000E+00 0.  1.
         23    2    1    2    0    0 -0.46715076016E+02  0.17667342767E+01  0.94350220523E+02  0.14047525844E+03  0.92983409506E+02 0.  0.
          5    1    1    2  502    0  0.35209664703E+02 -0.56066997947E+02  0.28004161561E+02  0.72038543933E+02  0.47000000000E+01 0.  1.
         -5    1    1    2    0  502  0.11505411312E+02  0.54300263670E+02  0.91398057756E+02  0.10703545247E+03  0.47000000000E+01 0.  1.
        -11    1    3    3    0    0  0.25076573614E+02 -0.15493926963E+02  0.19553382989E+02  0.35372745204E+02  0.00000000000E+00 0.  1.
         11    1    3    3    0    0 -0.71791649630E+02  0.17260661239E+02  0.74796837534E+02  0.10510251323E+03  0.00000000000E+00 0. -1.
<mgrwt>
<rscale>  0 0.12541219E+03</rscale>
<asrwt>0</asrwt>
<pdfrwt beam="1">  1        1 0.41023207E-01 0.13345638E+03</pdfrwt>
<pdfrwt beam="2">  1       -1 0.81382167E-02 0.13345638E+03</pdfrwt>
<totfact> 0.80860679E+03</totfact>
</mgrwt>
</event>
<event>
 7    1  0.5107591E-006  0.1255107E+03  0.7546771E-02  0.1250634E+00
          2   -1    0    0  501    0  0.00000000000E+00  0.00000000000E+00  0.11501656405E+03  0.11501656405E+03  0.00000000000E+00 0. -1.
         -2   -1    0    0    0  501 -0.00000000000E+00 -0.00000000000E+00 -0.10826984671E+03  0.10826984671E+03  0.00000000000E+00 0.  1.
         23    2    1    2    0    0 -0.34759913199E+01 -0.10769795449E+02  0.31241735802E+02  0.95407809472E+02  0.89434518183E+02 0.  0.
          5    1    1    2  502    0 -0.59795985501E+02 -0.43227110392E+01 -0.14957102009E+02  0.61968141922E+02  0.47000000000E+01 0.  1.
         -5    1    1    2    0  502  0.63271976821E+02  0.15092506489E+02 -0.95379164502E+01  0.65910459360E+02  0.47000000000E+01 0.  1.
        -11    1    3    3    0    0 -0.25952738654E+02 -0.13973984689E+01  0.55345070942E+02  0.61143881490E+02  0.00000000000E+00 0. -1.
         11    1    3    3    0    0  0.22476747334E+02 -0.93723969806E+01 -0.24103335140E+02  0.34263927982E+02  0.00000000000E+00 0.  1.
<mgrwt>
<rscale>  0 0.11554447E+03</rscale>
<asrwt>0</asrwt>
<pdfrwt beam="1">  1        2 0.17694856E-01 0.12551068E+03</pdfrwt>
<pdfrwt beam="2">  1       -2 0.16656899E-01 0.12551068E+03</pdfrwt>
<totfact> 0.86193352E+03</totfact>
</mgrwt>
</event>
<event>
 7    1  0.5107591E-006  0.2175102E+03  0.7546771E-02  0.1135753E+00
          1   -1    0    0  501    0  0.00000000000E+00  0.00000000000E+00  0.44766187627E+03  0.44766187627E+03  0.00000000000E+00 0. -1.
         -1   -1    0    0    0  501 -0.00000000000E+00 -0.00000000000E+00 -0.26420999467E+02  0.26420999467E+02  0.00000000000E+00 0.  1.
         23    2    1    2    0    0 -0.75554186182E+01  0.14586733790E+02  0.17719855832E+03  0.19939443281E+03  0.89938610242E+02 0.  0.
          5    1    1    2  502    0  0.59954903132E+02 -0.35014446421E+02  0.13061524821E+03  0.14799673960E+03  0.47000000000E+01 0.  1.
         -5    1    1    2    0  502 -0.52399484513E+02  0.20427712631E+02  0.11342707027E+03  0.12669170332E+03  0.47000000000E+01 0.  1.
        -11    1    3    3    0    0  0.97246754106E+01 -0.11416482907E+02 -0.40037312870E+01  0.15522089358E+02  0.00000000000E+00 0.  1.
         11    1    3    3    0    0 -0.17280094029E+02  0.26003216697E+02  0.18120228961E+03  0.18387234345E+03  0.00000000000E+00 0. -1.
<mgrwt>
<rscale>  0 0.21751022E+03</rscale>
<asrwt>0</asrwt>
<pdfrwt beam="1">  1        1 0.68871052E-01 0.21751022E+03</pdfrwt>
<pdfrwt beam="2">  1       -1 0.40647695E-02 0.21751022E+03</pdfrwt>
<totfact> 0.12303522E+04</totfact>
</mgrwt>
</event>
<event>
 7    1  0.5107591E-006  0.1531509E+03  0.7546771E-02  0.1205378E+00
         -1   -1    0    0    0  501 -0.00000000000E+00  0.00000000000E+00  0.26171317271E+02  0.26171317271E+02  0.00000000000E+00 0.  1.
          1   -1    0    0  501    0  0.00000000000E+00 -0.00000000000E+00 -0.74889903099E+03  0.74889903099E+03  0.00000000000E+00 0. -1.
         23    2    1    2    0    0 -0.41553679322E+02  0.78111755545E+02 -0.31746557859E+03  0.34183532326E+03  0.90768056141E+02 0.  0.
          5    1    1    2  502    0 -0.28819718803E+02  0.17234505549E+02 -0.10761116507E+03  0.11282666892E+03  0.47000000000E+01 0.  1.
         -5    1    1    2    0  502  0.70373398125E+02 -0.95346261094E+02 -0.29765097007E+03  0.32040835609E+03  0.47000000000E+01 0.  1.
        -11    1    3    3    0    0 -0.28557422621E+02  0.75494891756E+02 -0.31847078097E+03  0.32854017015E+03  0.00000000000E+00 0. -1.
         11    1    3    3    0    0 -0.12996256701E+02  0.26168637891E+01  0.10052023807E+01  0.13295153108E+02  0.00000000000E+00 0.  1.
<mgrwt>
<rscale>  0 0.14607686E+03</rscale>
<asrwt>0</asrwt>
<pdfrwt beam="2">  1        1 0.11521525E+00 0.15315087E+03</pdfrwt>
<pdfrwt beam="1">  1       -1 0.40263561E-02 0.15315087E+03</pdfrwt>
<totfact> 0.60419155E+03</totfact>
</mgrwt>
</event>
<event>
 7    1  0.5107591E-006  0.1298639E+03  0.7546771E-02  0.1241108E+00
          1   -1    0    0  501    0  0.00000000000E+00  0.00000000000E+00  0.45497936069E+03  0.45497936069E+03  0.00000000000E+00 0. -1.
         -1   -1    0    0    0  501 -0.00000000000E+00 -0.00000000000E+00 -0.29953039359E+02  0.29953039359E+02  0.00000000000E+00 0.  1.
         23    2    1    2    0    0 -0.18094328705E+02  0.30193917443E+02  0.23432613947E+03  0.25421355377E+03  0.92069071373E+02 0.  0.
          5    1    1    2  502    0  0.16270522750E+02  0.29439432397E+02  0.34504527241E+01  0.34138039113E+02  0.47000000000E+01 0.  1.
         -5    1    1    2    0  502  0.18238059544E+01 -0.59633349840E+02  0.18724972914E+03  0.19658080716E+03  0.47000000000E+01 0.  1.
        -11    1    3    3    0    0 -0.11687596686E+02  0.63506668704E+02  0.15819415344E+03  0.17086569893E+03  0.00000000000E+00 0. -1.
         11    1    3    3    0    0 -0.64067320186E+01 -0.33312751262E+02  0.76131986025E+02  0.83347854849E+02  0.00000000000E+00 0.  1.
<mgrwt>
<rscale>  0 0.12121352E+03</rscale>
<asrwt>0</asrwt>
<pdfrwt beam="1">  1        1 0.69996819E-01 0.12986388E+03</pdfrwt>
<pdfrwt beam="2">  1       -1 0.46081603E-02 0.12986388E+03</pdfrwt>
<totfact> 0.96619082E+03</totfact>
</mgrwt>
</event>
<event>
 7    1  0.5107591E-006  0.1330190E+03  0.7546771E-02  0.1248170E+00
         -1   -1    0    0    0  501 -0.00000000000E+00  0.00000000000E+00  0.28364624739E+02  0.28364624739E+02  0.00000000000E+00 0.  1.
          1   -1    0    0  501    0  0.00000000000E+00 -0.00000000000E+00 -0.43908773473E+03  0.43908773473E+03  0.00000000000E+00 0. -1.
         23    2    1    2    0    0 -0.30664477765E+01  0.45303625060E+02 -0.22770145450E+03  0.24119810470E+03  0.65320378001E+02 0.  0.
          5    1    1    2  502    0 -0.56017239806E+02 -0.36420480224E+02 -0.62304857861E+02  0.91478783597E+02  0.47000000000E+01 0.  1.
         -5    1    1    2    0  502  0.59083687583E+02 -0.88831448362E+01 -0.12071679763E+03  0.13477547117E+03  0.47000000000E+01 0.  1.
        -11    1    3    3    0    0  0.15246971548E+02  0.56121138033E+02 -0.16051447317E+03  0.17072477375E+03  0.00000000000E+00 0.  1.
         11    1    3    3    0    0 -0.18313419324E+02 -0.10817512972E+02 -0.67186981326E+02  0.70473330941E+02  0.00000000000E+00 0. -1.
<mgrwt>
<rscale>  0 0.11697648E+03</rscale>
<asrwt>0</asrwt>
<pdfrwt beam="2">  1        1 0.67551953E-01 0.13301903E+03</pdfrwt>
<pdfrwt beam="1">  1       -1 0.43637888E-02 0.13301903E+03</pdfrwt>
<totfact> 0.10975089E+04</totfact>
</mgrwt>
</event>
<event>
 7    1  0.5107591E-006  0.1430432E+03  0.7546771E-02  0.1218562E+00
         -1   -1    0    0    0  501 -0.00000000000E+00  0.00000000000E+00  0.18790579226E+03  0.18790579226E+03  0.00000000000E+00 0.  1.
          1   -1    0    0  501    0  0.00000000000E+00 -0.00000000000E+00 -0.99321506854E+02  0.99321506854E+02  0.00000000000E+00 0. -1.
         23    2    1    2    0    0 -0.17278173103E+02  0.67352878359E+02 -0.26989287778E+01  0.11753942819E+03  0.94727437810E+02 0.  0.
          5    1    1    2  502    0  0.70065632881E+02 -0.38002753944E+02  0.35672635422E+02  0.87453011019E+02  0.47000000000E+01 0.  1.
         -5    1    1    2    0  502 -0.52787459778E+02 -0.29350124415E+02  0.55610578757E+02  0.82234859900E+02  0.47000000000E+01 0.  1.
        -11    1    3    3    0    0 -0.50551113046E+02  0.44112231100E+02 -0.24553408559E+02  0.71443500997E+02  0.00000000000E+00 0. -1.
         11    1    3    3    0    0  0.33272939943E+02  0.23240647259E+02  0.21854479781E+02  0.46095927195E+02  0.00000000000E+00 0.  1.
<mgrwt>
<rscale>  0 0.13618134E+03</rscale>
<asrwt>0</asrwt>
<pdfrwt beam="2">  1        1 0.15280232E-01 0.14304317E+03</pdfrwt>
<pdfrwt beam="1">  1       -1 0.28908583E-01 0.14304317E+03</pdfrwt>
<totfact> 0.38118482E+03</totfact>
</mgrwt>
</event>
<event>
 7    1  0.5107591E-006  0.1366575E+03  0.7546771E-02  0.1230032E+00
          1   -1    0    0  501    0  0.00000000000E+00  0.00000000000E+00  0.14322661524E+03  0.14322661524E+03  0.00000000000E+00 0. -1.
         -1   -1    0    0    0  501 -0.00000000000E+00 -0.00000000000E+00 -0.10302193392E+03  0.10302193392E+03  0.00000000000E+00 0.  1.
         23    2    1    2    0    0 -0.54755795183E+02  0.72080354756E+01  0.12807668440E+02  0.10687185528E+03  0.90594724999E+02 0.  0.
          5    1    1    2  502    0  0.55309292388E+02  0.12889252623E+02 -0.39519100385E+02  0.69347674459E+02  0.47000000000E+01 0. -1.
         -5    1    1    2    0  502 -0.55349720465E+00 -0.20097288098E+02  0.66916113258E+02  0.70029019425E+02  0.47000000000E+01 0. -1.
        -11    1    3    3    0    0 -0.10905220605E+02 -0.40060110613E+02  0.26688730722E+01  0.41603595785E+02  0.00000000000E+00 0. -1.
         11    1    3    3    0    0 -0.43850574579E+02  0.47268146088E+02  0.10138795368E+02  0.65268259491E+02  0.00000000000E+00 0.  1.
<mgrwt>
<rscale>  0 0.12827900E+03</rscale>
<asrwt>0</asrwt>
<pdfrwt beam="1">  1        1 0.22034864E-01 0.13665748E+03</pdfrwt>
<pdfrwt beam="2">  1       -1 0.15849528E-01 0.13665748E+03</pdfrwt>
<totfact> 0.62986525E+03</totfact>
</mgrwt>
</event>
<event>
 7    1  0.5107591E-006  0.1256618E+03  0.7546771E-02  0.1249326E+00
         -2   -1    0    0    0  501 -0.00000000000E+00  0.00000000000E+00  0.16945082280E+02  0.16945082280E+02  0.00000000000E+00 0.  1.
          2   -1    0    0  501    0  0.00000000000E+00 -0.00000000000E+00 -0.74112039887E+03  0.74112039887E+03  0.00000000000E+00 0. -1.
         23    2    1    2    0    0 -0.87439906893E+01 -0.92880968999E+01 -0.39753965783E+03  0.40809156958E+03  0.91313873520E+02 0.  0.
          5    1    1    2  502    0  0.18018200920E+02  0.61558674887E+02 -0.11532050170E+03  0.13204178933E+03  0.47000000000E+01 0. -1.
         -5    1    1    2    0  502 -0.92742102307E+01 -0.52270577987E+02 -0.21131515706E+03  0.21793212224E+03  0.47000000000E+01 0. -1.
        -11    1    3    3    0    0  0.15040218320E+02  0.35214642984E+02 -0.22832171105E+03  0.23151043817E+03  0.00000000000E+00 0. -1.
         11    1    3    3    0    0 -0.23784209009E+02 -0.44502739884E+02 -0.16921794678E+03  0.17658113141E+03  0.00000000000E+00 0.  1.
<mgrwt>
<rscale>  0 0.11630165E+03</rscale>
<asrwt>0</asrwt>
<pdfrwt beam="2">  1        2 0.11401855E+00 0.12566179E+03</pdfrwt>
<pdfrwt beam="1">  1       -2 0.26069351E-02 0.12566179E+03</pdfrwt>
<totfact> 0.19223814E+04</totfact>
</mgrwt>
</event>
<event>
 7    1  0.5107591E-006  0.1384861E+03  0.7546771E-02  0.1226970E+00
         -1   -1    0    0    0  501 -0.00000000000E+00  0.00000000000E+00  0.39656926672E+02  0.39656926672E+02  0.00000000000E+00 0.  1.
          1   -1    0    0  501    0  0.00000000000E+00 -0.00000000000E+00 -0.38866675805E+03  0.38866675805E+03  0.00000000000E+00 0. -1.
         23    2    1    2    0    0 -0.23518049076E+01 -0.59574643862E+02 -0.17440794614E+03  0.20546895416E+03  0.90800276832E+02 0.  0.
          5    1    1    2  502    0 -0.12378527037E+02  0.82511024988E+02 -0.17633994455E+03  0.19513883063E+03  0.47000000000E+01 0.  1.
         -5    1    1    2    0  502  0.14730331945E+02 -0.22936381126E+02  0.17380593101E+01  0.27715899923E+02  0.47000000000E+01 0.  1.
        -11    1    3    3    0    0  0.24896508670E+02 -0.33954770889E+02 -0.20031423692E+02  0.46626393225E+02  0.00000000000E+00 0.  1.
         11    1    3    3    0    0 -0.27248313578E+02 -0.25619872973E+02 -0.15437652244E+03  0.15884256094E+03  0.00000000000E+00 0. -1.
<mgrwt>
<rscale>  0 0.13032780E+03</rscale>
<asrwt>0</asrwt>
<pdfrwt beam="2">  1        1 0.59794884E-01 0.13848615E+03</pdfrwt>
<pdfrwt beam="1">  1       -1 0.61010659E-02 0.13848615E+03</pdfrwt>
<totfact> 0.78180571E+03</totfact>
</mgrwt>
</event>
<event>
 7    1  0.5107591E-006  0.2055220E+03  0.7546771E-02  0.1155448E+00
         -1   -1    0    0    0  501 -0.00000000000E+00  0.00000000000E+00  0.34246440824E+02  0.34246440824E+02  0.00000000000E+00 0.  1.
          1   -1    0    0  501    0  0.00000000000E+00 -0.00000000000E+00 -0.10018558931E+04  0.10018558931E+04  0.00000000000E+00 0. -1.
         23    2    1    2    0    0  0.10361798237E+03 -0.80674406278E+02 -0.50032701350E+03  0.52562004597E+03  0.93296656887E+02 0.  0.
          5    1    1    2  502    0 -0.81629110904E+02  0.12504960829E+03 -0.28829679452E+03  0.32471194621E+03  0.47000000000E+01 0.  1.
         -5    1    1    2    0  502 -0.21988871466E+02 -0.44375202016E+02 -0.17898564423E+03  0.18577034172E+03  0.47000000000E+01 0. -1.
        -11    1    3    3    0    0 -0.66922310582E+01 -0.35809109668E+02 -0.18506847243E+03  0.18861977038E+03  0.00000000000E+00 0.  1.
         11    1    3    3    0    0  0.11031021343E+03 -0.44865296610E+02 -0.31525854107E+03  0.33700027558E+03  0.00000000000E+00 0. -1.
<mgrwt>
<rscale>  0 0.19337906E+03</rscale>
<asrwt>0</asrwt>
<pdfrwt beam="2">  1        1 0.15413165E+00 0.20552199E+03</pdfrwt>
<pdfrwt beam="1">  1       -1 0.52686842E-02 0.20552199E+03</pdfrwt>
<totfact> 0.25803793E+03</totfact>
</mgrwt>
</event>
<event>
 7    1  0.5107591E-006  0.1788257E+03  0.7546771E-02  0.1174773E+00
          1   -1    0    0  501    0  0.00000000000E+00  0.00000000000E+00  0.12053344453E+03  0.12053344453E+03  0.00000000000E+00 0. -1.
         -1   -1    0    0    0  501 -0.00000000000E+00 -0.00000000000E+00 -0.23332821079E+03  0.23332821079E+03  0.00000000000E+00 0.  1.
         23    2    1    2    0    0 -0.59620016337E+02  0.11310921344E+03 -0.53642154066E+02  0.16550653793E+03  0.90369756509E+02 0.  0.
          5    1    1    2  502    0  0.16523462300E+02 -0.12905753480E+03 -0.29600758275E+02  0.13351841441E+03  0.47000000000E+01 0.  1.
         -5    1    1    2    0  502  0.43096554037E+02  0.15948321361E+02 -0.29551853919E+02  0.54836702984E+02  0.47000000000E+01 0.  1.
        -11    1    3    3    0    0 -0.71843173848E+02  0.42807657754E+02 -0.40616461209E+02  0.92971146664E+02  0.00000000000E+00 0.  1.
         11    1    3    3    0    0  0.12223157511E+02  0.70301555689E+02 -0.13025692857E+02  0.72535391267E+02  0.00000000000E+00 0. -1.
<mgrwt>
<rscale>  0 0.17298212E+03</rscale>
<asrwt>0</asrwt>
<pdfrwt beam="1">  1        1 0.18543607E-01 0.17882567E+03</pdfrwt>
<pdfrwt beam="2">  1       -1 0.35896648E-01 0.17882567E+03</pdfrwt>
<totfact> 0.20741587E+03</totfact>
</mgrwt>
</event>
<event>
 7    1  0.5107591E-006  0.1297808E+03  0.7546771E-02  0.1239087E+00
         -1   -1    0    0    0  501 -0.00000000000E+00  0.00000000000E+00  0.40079573753E+02  0.40079573753E+02  0.00000000000E+00 0.  1.
          1   -1    0    0  501    0  0.00000000000E+00 -0.00000000000E+00 -0.35121569561E+03  0.35121569561E+03  0.00000000000E+00 0. -1.
         23    2    1    2    0    0  0.21631352530E+02  0.27408405611E+02 -0.17642202700E+03  0.20423661195E+03  0.96792179123E+02 0.  0.
          5    1    1    2  502    0  0.32152250033E+02  0.29312094191E+02 -0.81108998669E+02  0.92161411194E+02  0.47000000000E+01 0.  1.
         -5    1    1    2    0  502 -0.53783602563E+02 -0.56720499802E+02 -0.53605096186E+02  0.94897246217E+02  0.47000000000E+01 0.  1.
        -11    1    3    3    0    0  0.39401111938E+02 -0.18474303420E+02 -0.39606305475E+02  0.58842220745E+02  0.00000000000E+00 0.  1.
         11    1    3    3    0    0 -0.17769759408E+02  0.45882709030E+02 -0.13681572152E+03  0.14539439120E+03  0.00000000000E+00 0. -1.
<mgrwt>
<rscale>  0 0.12246412E+03</rscale>
<asrwt>0</asrwt>
<pdfrwt beam="2">  1        1 0.54033183E-01 0.12978079E+03</pdfrwt>
<pdfrwt beam="1">  1       -1 0.61660884E-02 0.12978079E+03</pdfrwt>
<totfact> 0.86972333E+03</totfact>
</mgrwt>
</event>
<event>
 7    1  0.5107591E-006  0.1272335E+03  0.7546771E-02  0.1246882E+00
          2   -1    0    0  501    0  0.00000000000E+00  0.00000000000E+00  0.85070463234E+02  0.85070463234E+02  0.00000000000E+00 0. -1.
         -2   -1    0    0    0  501 -0.00000000000E+00 -0.00000000000E+00 -0.17045400655E+03  0.17045400655E+03  0.00000000000E+00 0.  1.
         23    2    1    2    0    0 -0.56927103874E+00  0.23745587244E+02  0.13669183754E+02  0.94279937039E+02  0.90209106860E+02 0.  0.
          5    1    1    2  502    0  0.37529238332E+02 -0.39596212000E+02 -0.56682677903E+00  0.54760524351E+02  0.47000000000E+01 0. -1.
         -5    1    1    2    0  502 -0.36959967294E+02  0.15850624756E+02 -0.98485900287E+02  0.10648400839E+03  0.47000000000E+01 0. -1.
        -11    1    3    3    0    0  0.78162646017E+01  0.55858260390E+02 -0.42494386686E+01  0.56562328233E+02  0.00000000000E+00 0.  1.
         11    1    3    3    0    0 -0.83855356404E+01 -0.32112673146E+02  0.17918622423E+02  0.37717608806E+02  0.00000000000E+00 0. -1.
<mgrwt>
<rscale>  0 0.11773418E+03</rscale>
<asrwt>0</asrwt>
<pdfrwt beam="1">  1        2 0.13087764E-01 0.12723347E+03</pdfrwt>
<pdfrwt beam="2">  1       -2 0.26223693E-01 0.12723347E+03</pdfrwt>
<totfact> 0.56686867E+03</totfact>
</mgrwt>
</event>
<event>
 7    1  0.5107591E-006  0.1333122E+03  0.7546771E-02  0.1234903E+00
         -1   -1    0    0    0  501 -0.00000000000E+00  0.00000000000E+00  0.16132004546E+03  0.16132004546E+03  0.00000000000E+00 0.  1.
          1   -1    0    0  501    0  0.00000000000E+00 -0.00000000000E+00 -0.11292453963E+03  0.11292453963E+03  0.00000000000E+00 0. -1.
         23    2    1    2    0    0 -0.41769862938E+02  0.20053456716E+02 -0.43659943811E+02  0.11223734407E+03  0.92434669544E+02 0.  0.
          5    1    1    2  502    0  0.33877519996E+02 -0.10425384339E+02  0.12312299490E+03  0.12820973782E+03  0.47000000000E+01 0. -1.
         -5    1    1    2    0  502  0.78923429417E+01 -0.96280723769E+01 -0.31067545255E+02  0.33797503206E+02  0.47000000000E+01 0. -1.
        -11    1    3    3    0    0 -0.91133477697E+01  0.38478429544E+02 -0.59574879474E+02  0.71503908370E+02  0.00000000000E+00 0. -1.
         11    1    3    3    0    0 -0.32656515168E+02 -0.18424972828E+02  0.15914935663E+02  0.40733435698E+02  0.00000000000E+00 0.  1.
<mgrwt>
<rscale>  0 0.12510649E+03</rscale>
<asrwt>0</asrwt>
<pdfrwt beam="2">  1        1 0.17373006E-01 0.13331219E+03</pdfrwt>
<pdfrwt beam="1">  1       -1 0.24818468E-01 0.13331219E+03</pdfrwt>
<totfact> 0.41435146E+03</totfact>
</mgrwt>
</event>
<event>
 7    1  0.5107591E-006  0.3404757E+03  0.7546771E-02  0.1066593E+00
         -3   -1    0    0    0  501 -0.00000000000E+00  0.00000000000E+00  0.31229345455E+03  0.31229345455E+03  0.00000000000E+00 0.  1.
          3   -1    0    0  501    0  0.00000000000E+00 -0.00000000000E+00 -0.92800318107E+02  0.92800318107E+02  0.00000000000E+00 0. -1.
         23    2    1    2    0    0 -0.71717978588E+02  0.53615519700E+02  0.27569791366E+02  0.13091408499E+03  0.91434740915E+02 0.  0.
          5    1    1    2  502    0 -0.37864060602E+02  0.36575900636E+02  0.40482042724E+02  0.66576042055E+02  0.47000000000E+01 0. -1.
         -5    1    1    2    0  502  0.10958203919E+03 -0.90191420335E+02  0.15144130235E+03  0.20760364561E+03  0.47000000000E+01 0.  1.
        -11    1    3    3    0    0 -0.47674057309E+02  0.74120776062E+02  0.40223745002E+02  0.96874428237E+02  0.00000000000E+00 0.  1.
         11    1    3    3    0    0 -0.24043921278E+02 -0.20505256362E+02 -0.12653953635E+02  0.34039656748E+02  0.00000000000E+00 0. -1.
<mgrwt>
<rscale>  0 0.34047574E+03</rscale>
<asrwt>0</asrwt>
<pdfrwt beam="2">  1        3 0.14276972E-01 0.34047574E+03</pdfrwt>
<pdfrwt beam="1">  1       -3 0.48045146E-01 0.34047574E+03</pdfrwt>
<totfact> 0.45223272E+02</totfact>
</mgrwt>
</event>
<event>
 7    1  0.5107591E-006  0.1354936E+03  0.7546771E-02  0.1231749E+00
         -1   -1    0    0    0  501 -0.00000000000E+00  0.00000000000E+00  0.21364123252E+03  0.21364123252E+03  0.00000000000E+00 0.  1.
          1   -1    0    0  501    0  0.00000000000E+00 -0.00000000000E+00 -0.74227164555E+02  0.74227164555E+02  0.00000000000E+00 0. -1.
         23    2    1    2    0    0  0.32761000281E+02  0.40784853253E+02  0.19366258245E+02  0.10684354241E+03  0.91125206187E+02 0.  0.
          5    1    1    2  502    0  0.36505149044E+01  0.17348399143E+02 -0.18689138754E+02  0.26185246213E+02  0.47000000000E+01 0. -1.
         -5    1    1    2    0  502 -0.36411515185E+02 -0.58133252396E+02  0.13873694847E+03  0.15483960845E+03  0.47000000000E+01 0. -1.
        -11    1    3    3    0    0  0.55339867243E+02  0.54274194199E+02  0.71442806269E+01  0.77841054773E+02  0.00000000000E+00 0.  1.
         11    1    3    3    0    0 -0.22578866962E+02 -0.13489340945E+02  0.12221977618E+02  0.29002487640E+02  0.00000000000E+00 0. -1.
<mgrwt>
<rscale>  0 0.12714892E+03</rscale>
<asrwt>0</asrwt>
<pdfrwt beam="2">  1        1 0.11419564E-01 0.13549362E+03</pdfrwt>
<pdfrwt beam="1">  1       -1 0.32867882E-01 0.13549362E+03</pdfrwt>
<totfact> 0.44754551E+03</totfact>
</mgrwt>
</event>
<event>
 7    1  0.5107591E-006  0.1331242E+03  0.7546771E-02  0.1235597E+00
         -2   -1    0    0    0  501 -0.00000000000E+00  0.00000000000E+00  0.15502172452E+02  0.15502172452E+02  0.00000000000E+00 0.  1.
          2   -1    0    0  501    0  0.00000000000E+00 -0.00000000000E+00 -0.91375890692E+03  0.91375890692E+03  0.00000000000E+00 0. -1.
         23    2    1    2    0    0  0.45526189541E+02 -0.50238592557E+01 -0.45885794861E+03  0.47013870618E+03  0.91552787783E+02 0.  0.
          5    1    1    2  502    0 -0.40774382908E+02 -0.57273758556E+02 -0.23024905660E+03  0.24078943454E+03  0.47000000000E+01 0.  1.
         -5    1    1    2    0  502 -0.47518066326E+01  0.62297617812E+02 -0.20914972925E+03  0.21833293865E+03  0.47000000000E+01 0.  1.
        -11    1    3    3    0    0  0.64606550956E+02  0.22534300596E+02 -0.32752214363E+03  0.33459311963E+03  0.00000000000E+00 0.  1.
         11    1    3    3    0    0 -0.19080361415E+02 -0.27558159851E+02 -0.13133580497E+03  0.13554558655E+03  0.00000000000E+00 0. -1.
<mgrwt>
<rscale>  0 0.12466280E+03</rscale>
<asrwt>0</asrwt>
<pdfrwt beam="2">  1        2 0.14057831E+00 0.13312423E+03</pdfrwt>
<pdfrwt beam="1">  1       -2 0.23849493E-02 0.13312423E+03</pdfrwt>
<totfact> 0.16899635E+04</totfact>
</mgrwt>
</event>
<event>
 7    1  0.5107591E-006  0.2234725E+03  0.7546771E-02  0.1134374E+00
          1   -1    0    0  501    0  0.00000000000E+00  0.00000000000E+00  0.15498482219E+04  0.15498482219E+04  0.00000000000E+00 0. -1.
         -1   -1    0    0    0  501 -0.00000000000E+00 -0.00000000000E+00 -0.30128929529E+02  0.30128929529E+02  0.00000000000E+00 0.  1.
         23    2    1    2    0    0  0.16708854136E+03  0.80016054932E+02  0.79293888388E+03  0.81961558956E+03  0.93254980431E+02 0.  0.
          5    1    1    2  502    0 -0.91100355704E+02  0.50204046683E+01  0.18072046793E+03  0.20250051062E+03  0.47000000000E+01 0.  1.
         -5    1    1    2    0  502 -0.75988185652E+02 -0.85036459600E+02  0.54605994059E+03  0.55786105128E+03  0.47000000000E+01 0.  1.
        -11    1    3    3    0    0  0.57167425531E+01  0.36416794780E+02  0.20885122137E+03  0.21207945859E+03  0.00000000000E+00 0.  1.
         11    1    3    3    0    0  0.16137179880E+03  0.43599260152E+02  0.58408766251E+03  0.60753613097E+03  0.00000000000E+00 0. -1.
<mgrwt>
<rscale>  0 0.21934303E+03</rscale>
<asrwt>0</asrwt>
<pdfrwt beam="1">  1        1 0.23843813E+00 0.22347246E+03</pdfrwt>
<pdfrwt beam="2">  1       -1 0.46352211E-02 0.22347246E+03</pdfrwt>
<totfact> 0.13112412E+03</totfact>
</mgrwt>
</event>
<event>
 7    1  0.5107591E-006  0.1548876E+03  0.7546771E-02  0.1203198E+00
          1   -1    0    0  501    0  0.00000000000E+00  0.00000000000E+00  0.64483919291E+03  0.64483919291E+03  0.00000000000E+00 0. -1.
         -1   -1    0    0    0  501 -0.00000000000E+00 -0.00000000000E+00 -0.32404629441E+02  0.32404629441E+02  0.00000000000E+00 0.  1.
         23    2    1    2    0    0  0.21119783013E+02  0.88958184859E+02  0.34586830926E+03  0.36894569724E+03  0.90202196602E+02 0.  0.
          5    1    1    2  502    0 -0.72327944789E+02 -0.35486467314E+02  0.13878564433E+03  0.16054334627E+03  0.47000000000E+01 0. -1.
         -5    1    1    2    0  502  0.51208161776E+02 -0.53471717546E+02  0.12778060988E+03  0.14775477884E+03  0.47000000000E+01 0. -1.
        -11    1    3    3    0    0  0.39560540818E+02  0.89682696725E+02  0.33111356822E+03  0.34531756043E+03  0.00000000000E+00 0. -1.
         11    1    3    3    0    0 -0.18440757805E+02 -0.72451186577E+00  0.14754741040E+02  0.23628136808E+02  0.00000000000E+00 0.  1.
<mgrwt>
<rscale>  0 0.14780357E+03</rscale>
<asrwt>0</asrwt>
<pdfrwt beam="1">  1        1 0.99206020E-01 0.15488759E+03</pdfrwt>
<pdfrwt beam="2">  1       -1 0.49853281E-02 0.15488759E+03</pdfrwt>
<totfact> 0.54619998E+03</totfact>
</mgrwt>
</event>
<event>
 7    1  0.5107591E-006  0.1933143E+03  0.7546771E-02  0.1160009E+00
         -1   -1    0    0    0  501 -0.00000000000E+00  0.00000000000E+00  0.18593744069E+02  0.18593744069E+02  0.00000000000E+00 0.  1.
          1   -1    0    0  501    0  0.00000000000E+00 -0.00000000000E+00 -0.18141589218E+04  0.18141589218E+04  0.00000000000E+00 0. -1.
         23    2    1    2    0    0  0.58185961325E+02  0.13547628266E+03 -0.84459831803E+03  0.86233606670E+03  0.92399912568E+02 0.  0.
          5    1    1    2  502    0 -0.71656200194E+02 -0.17762898535E+02 -0.40817751159E+03  0.41482659336E+03  0.47000000000E+01 0.  1.
         -5    1    1    2    0  502  0.13470238869E+02 -0.11771338413E+03 -0.54278934808E+03  0.55559000579E+03  0.47000000000E+01 0.  1.
        -11    1    3    3    0    0  0.54521796321E+02  0.19606201035E+02 -0.26563449738E+03  0.27187996541E+03  0.00000000000E+00 0.  1.
         11    1    3    3    0    0  0.36641650046E+01  0.11587008163E+03 -0.57896382066E+03  0.59045610129E+03  0.00000000000E+00 0. -1.
<mgrwt>
<rscale>  0 0.18829438E+03</rscale>
<asrwt>0</asrwt>
<pdfrwt beam="2">  1        1 0.27910148E+00 0.19331427E+03</pdfrwt>
<pdfrwt beam="1">  1       -1 0.28605749E-02 0.19331427E+03</pdfrwt>
<totfact> 0.18068530E+03</totfact>
</mgrwt>
</event>
<event>
 7    1  0.5107591E-006  0.2235813E+03  0.7546771E-02  0.1134359E+00
         -1   -1    0    0    0  501 -0.00000000000E+00  0.00000000000E+00  0.61778563509E+02  0.61778563509E+02  0.00000000000E+00 0.  1.
          1   -1    0    0  501    0  0.00000000000E+00 -0.00000000000E+00 -0.86037526203E+03  0.86037526203E+03  0.00000000000E+00 0. -1.
         23    2    1    2    0    0  0.10765571695E+02 -0.18506058726E+03 -0.55040980416E+03  0.58810994189E+03  0.92515040613E+02 0.  0.
          5    1    1    2  502    0 -0.55015003213E+02  0.12840395591E+03 -0.21066432144E+03  0.25281568939E+03  0.47000000000E+01 0.  1.
         -5    1    1    2    0  502  0.44249431518E+02  0.56656631345E+02 -0.37522572917E+02  0.81228194264E+02  0.47000000000E+01 0.  1.
        -11    1    3    3    0    0  0.44108602273E+02 -0.48267076337E+02 -0.20229252039E+03  0.21259713841E+03  0.00000000000E+00 0.  1.
         11    1    3    3    0    0 -0.33343030578E+02 -0.13679351092E+03 -0.34811728377E+03  0.37551280348E+03  0.00000000000E+00 0. -1.
<mgrwt>
<rscale>  0 0.21936230E+03</rscale>
<asrwt>0</asrwt>
<pdfrwt beam="2">  1        1 0.13236542E+00 0.22358126E+03</pdfrwt>
<pdfrwt beam="1">  1       -1 0.95043946E-02 0.22358126E+03</pdfrwt>
<totfact> 0.13554537E+03</totfact>
</mgrwt>
</event>
<event>
 7    1  0.5107591E-006  0.1399255E+03  0.7546771E-02  0.1224509E+00
          1   -1    0    0  501    0  0.00000000000E+00  0.00000000000E+00  0.12778966932E+03  0.12778966932E+03  0.00000000000E+00 0. -1.
         -1   -1    0    0    0  501 -0.00000000000E+00 -0.00000000000E+00 -0.15874462354E+03  0.15874462354E+03  0.00000000000E+00 0.  1.
         23    2    1    2    0    0 -0.45958343951E+02 -0.43174974645E+02  0.53524612286E+02  0.12308417709E+03  0.91151427387E+02 0.  0.
          5    1    1    2  502    0  0.30931043700E+02  0.84685717046E+02 -0.34623254983E+02  0.96691571099E+02  0.47000000000E+01 0.  1.
         -5    1    1    2    0  502  0.15027300251E+02 -0.41510742401E+02 -0.49856311522E+02  0.66758544667E+02  0.47000000000E+01 0.  1.
        -11    1    3    3    0    0 -0.52430823198E+02 -0.54160146813E+02  0.69577870608E+02  0.10258358934E+03  0.00000000000E+00 0. -1.
         11    1    3    3    0    0  0.64724792470E+01  0.10985172167E+02 -0.16053258322E+02  0.20500587745E+02  0.00000000000E+00 0.  1.
<mgrwt>
<rscale>  0 0.13200603E+03</rscale>
<asrwt>0</asrwt>
<pdfrwt beam="1">  1        1 0.19659949E-01 0.13992549E+03</pdfrwt>
<pdfrwt beam="2">  1       -1 0.24422250E-01 0.13992549E+03</pdfrwt>
<totfact> 0.36422160E+03</totfact>
</mgrwt>
</event>
<event>
 7    1  0.5107591E-006  0.1855522E+03  0.7546771E-02  0.1171216E+00
          1   -1    0    0  501    0  0.00000000000E+00  0.00000000000E+00  0.10919140302E+03  0.10919140302E+03  0.00000000000E+00 0. -1.
         -1   -1    0    0    0  501 -0.00000000000E+00 -0.00000000000E+00 -0.26166883293E+03  0.26166883293E+03  0.00000000000E+00 0.  1.
         23    2    1    2    0    0 -0.40736512613E+02 -0.13094016550E+03 -0.58230693597E+02  0.16274469194E+03  0.65499852495E+02 0.  0.
          5    1    1    2  502    0  0.68387139795E+02  0.11889561594E+03 -0.35258405182E+02  0.14169761295E+03  0.47000000000E+01 0.  1.
         -5    1    1    2    0  502 -0.27650627182E+02  0.12044549557E+02 -0.58988331132E+02  0.66417931067E+02  0.47000000000E+01 0.  1.
        -11    1    3    3    0    0 -0.33704791859E+02 -0.11313934062E+03 -0.19649689720E+02  0.11967720625E+03  0.00000000000E+00 0. -1.
         11    1    3    3    0    0 -0.70317207539E+01 -0.17800824876E+02 -0.38581003877E+02  0.43067485685E+02  0.00000000000E+00 0.  1.
<mgrwt>
<rscale>  0 0.17651818E+03</rscale>
<asrwt>0</asrwt>
<pdfrwt beam="1">  1        1 0.16798678E-01 0.18555224E+03</pdfrwt>
<pdfrwt beam="2">  1       -1 0.40256743E-01 0.18555224E+03</pdfrwt>
<totfact> 0.19306353E+03</totfact>
</mgrwt>
</event>
<event>
 7    1  0.5107591E-006  0.1698916E+03  0.7546771E-02  0.1179679E+00
          1   -1    0    0  501    0  0.00000000000E+00  0.00000000000E+00  0.34613745553E+03  0.34613745553E+03  0.00000000000E+00 0. -1.
         -1   -1    0    0    0  501 -0.00000000000E+00 -0.00000000000E+00 -0.81771495882E+02  0.81771495882E+02  0.00000000000E+00 0.  1.
         23    2    1    2    0    0 -0.11476420608E+03 -0.82457735708E+01  0.15884938996E+03  0.22791670383E+03  0.11607790236E+03 0.  0.
          5    1    1    2  502    0  0.10155313228E+03  0.37827653979E+02  0.22536365305E+02  0.11078785061E+03  0.47000000000E+01 0.  1.
         -5    1    1    2    0  502  0.13211073808E+02 -0.29581880408E+02  0.82980204391E+02  0.89204396979E+02  0.47000000000E+01 0.  1.
        -11    1    3    3    0    0 -0.12620316680E+03  0.14799323275E+02  0.15720293417E+03  0.20213614667E+03  0.00000000000E+00 0.  1.
         11    1    3    3    0    0  0.11438960712E+02 -0.23045096846E+02  0.16464557819E+01  0.25780557159E+02  0.00000000000E+00 0. -1.
<mgrwt>
<rscale>  0 0.16825541E+03</rscale>
<asrwt>0</asrwt>
<pdfrwt beam="1">  1        1 0.53251915E-01 0.16989159E+03</pdfrwt>
<pdfrwt beam="2">  1       -1 0.12580230E-01 0.16989159E+03</pdfrwt>
<totfact> 0.30398773E+03</totfact>
</mgrwt>
</event>
<event>
 7    1  0.5107591E-006  0.1686662E+03  0.7546771E-02  0.1186077E+00
         -2   -1    0    0    0  501 -0.00000000000E+00  0.00000000000E+00  0.34385169988E+02  0.34385169988E+02  0.00000000000E+00 0.  1.
          2   -1    0    0  501    0  0.00000000000E+00 -0.00000000000E+00 -0.88837011046E+03  0.88837011046E+03  0.00000000000E+00 0. -1.
         23    2    1    2    0    0  0.97272261371E+02 -0.57990125845E+02 -0.60460043317E+03  0.62168898774E+03  0.90170761101E+02 0.  0.
          5    1    1    2  502    0 -0.12848596309E+02 -0.26102470811E+02 -0.60551047278E+01  0.30086204527E+02  0.47000000000E+01 0. -1.
         -5    1    1    2    0  502 -0.84423665062E+02  0.84092596656E+02 -0.24332940258E+03  0.27098008819E+03  0.47000000000E+01 0. -1.
        -11    1    3    3    0    0  0.49411212378E+02 -0.70228743205E+02 -0.48058802570E+03  0.48819913429E+03  0.00000000000E+00 0.  1.
         11    1    3    3    0    0  0.47861048992E+02  0.12238617361E+02 -0.12401240747E+03  0.13348985344E+03  0.00000000000E+00 0. -1.
<mgrwt>
<rscale>  0 0.16234290E+03</rscale>
<asrwt>0</asrwt>
<pdfrwt beam="2">  1        2 0.13667232E+00 0.16866618E+03</pdfrwt>
<pdfrwt beam="1">  1       -2 0.52900263E-02 0.16866618E+03</pdfrwt>
<totfact> 0.54476571E+03</totfact>
</mgrwt>
</event>
<event>
 7    1  0.5107591E-006  0.2145834E+03  0.7546771E-02  0.1141565E+00
         -2   -1    0    0    0  501 -0.00000000000E+00  0.00000000000E+00  0.21131181832E+03  0.21131181832E+03  0.00000000000E+00 0.  1.
          2   -1    0    0  501    0  0.00000000000E+00 -0.00000000000E+00 -0.21355729883E+03  0.21355729883E+03  0.00000000000E+00 0. -1.
         23    2    1    2    0    0 -0.42992504863E+02 -0.16903503782E+03 -0.54052387167E+02  0.20412038836E+03  0.91226492323E+02 0.  0.
          5    1    1    2  502    0  0.53406592370E+01  0.74891754238E+02 -0.38838623305E+02  0.84663015267E+02  0.47000000000E+01 0.  1.
         -5    1    1    2    0  502  0.37651845626E+02  0.94143283582E+02  0.90645529965E+02  0.13608571352E+03  0.47000000000E+01 0.  1.
        -11    1    3    3    0    0 -0.68415454443E+01 -0.11571453413E+03 -0.72979922243E+02  0.13697711197E+03  0.00000000000E+00 0. -1.
         11    1    3    3    0    0 -0.36150959418E+02 -0.53320503688E+02  0.18927535076E+02  0.67143276390E+02  0.00000000000E+00 0.  1.
<mgrwt>
<rscale>  0 0.21000128E+03</rscale>
<asrwt>0</asrwt>
<pdfrwt beam="2">  1        2 0.32854969E-01 0.21458342E+03</pdfrwt>
<pdfrwt beam="1">  1       -2 0.32509510E-01 0.21458342E+03</pdfrwt>
<totfact> 0.13898296E+03</totfact>
</mgrwt>
</event>
<event>
 7    1  0.5107591E-006  0.1833756E+03  0.7546771E-02  0.1169826E+00
         -1   -1    0    0    0  501 -0.00000000000E+00  0.00000000000E+00  0.32445191759E+03  0.32445191759E+03  0.00000000000E+00 0.  1.
          1   -1    0    0  501    0  0.00000000000E+00 -0.00000000000E+00 -0.92959896611E+02  0.92959896611E+02  0.00000000000E+00 0. -1.
         23    2    1    2    0    0 -0.19482166762E+02  0.13274545046E+03  0.12774863455E+03  0.20672413838E+03  0.91729201008E+02 0.  0.
          5    1    1    2  502    0 -0.55535583315E+01 -0.51018540825E+02  0.11337972911E+03  0.12454230804E+03  0.47000000000E+01 0. -1.
         -5    1    1    2    0  502  0.25035725093E+02 -0.81726909638E+02 -0.96363426894E+01  0.86145367782E+02  0.47000000000E+01 0. -1.
        -11    1    3    3    0    0 -0.53753947667E+02  0.90234539085E+02  0.64892377953E+02  0.12346165255E+03  0.00000000000E+00 0.  1.
         11    1    3    3    0    0  0.34271780906E+02  0.42510911378E+02  0.62856256602E+02  0.83262485830E+02  0.00000000000E+00 0. -1.
<mgrwt>
<rscale>  0 0.17792533E+03</rscale>
<asrwt>0</asrwt>
<pdfrwt beam="2">  1        1 0.14301523E-01 0.18337559E+03</pdfrwt>
<pdfrwt beam="1">  1       -1 0.49915679E-01 0.18337559E+03</pdfrwt>
<totfact> 0.16154045E+03</totfact>
</mgrwt>
</event>
<event>
 7    1  0.5107591E-006  0.1420766E+03  0.7546771E-02  0.1221595E+00
          1   -1    0    0  501    0  0.00000000000E+00  0.00000000000E+00  0.15496069945E+03  0.15496069945E+03  0.00000000000E+00 0. -1.
         -1   -1    0    0    0  501 -0.00000000000E+00 -0.00000000000E+00 -0.16203700726E+03  0.16203700726E+03  0.00000000000E+00 0.  1.
         23    2    1    2    0    0  0.40517516638E+02 -0.54032075158E+02  0.90700786163E+02  0.14452703825E+03  0.90001654847E+02 0.  0.
          5    1    1    2  502    0 -0.58060802274E+02  0.13916834364E+02 -0.11131330194E+03  0.12640204203E+03  0.47000000000E+01 0.  1.
         -5    1    1    2    0  502  0.17543285636E+02  0.40115240794E+02  0.13536207975E+02  0.46068626431E+02  0.47000000000E+01 0.  1.
        -11    1    3    3    0    0  0.42746717423E+02 -0.71754306515E+02  0.43736351336E+02  0.94280596000E+02  0.00000000000E+00 0.  1.
         11    1    3    3    0    0 -0.22292007849E+01  0.17722231357E+02  0.46964434828E+02  0.50246442253E+02  0.00000000000E+00 0. -1.
<mgrwt>
<rscale>  0 0.13403011E+03</rscale>
<asrwt>0</asrwt>
<pdfrwt beam="1">  1        1 0.23840108E-01 0.14207664E+03</pdfrwt>
<pdfrwt beam="2">  1       -1 0.24928770E-01 0.14207664E+03</pdfrwt>
<totfact> 0.27606409E+03</totfact>
</mgrwt>
</event>
<event>
 7    1  0.5107591E-006  0.1307446E+03  0.7546771E-02  0.1234271E+00
          1   -1    0    0  501    0  0.00000000000E+00  0.00000000000E+00  0.23603039702E+02  0.23603039702E+02  0.00000000000E+00 0. -1.
         -1   -1    0    0    0  501 -0.00000000000E+00 -0.00000000000E+00 -0.11459960770E+04  0.11459960770E+04  0.00000000000E+00 0.  1.
         23    2    1    2    0    0  0.61974535629E+02 -0.24771208894E+00 -0.14069842175E+03  0.17923631419E+03  0.92134173986E+02 0.  0.
          5    1    1    2  502    0 -0.32240051308E+01 -0.11062725119E+02 -0.79427167073E+01  0.14763293835E+02  0.47000000000E+01 0. -1.
         -5    1    1    2    0  502 -0.58750530498E+02  0.11310437208E+02 -0.97375189888E+03  0.97559950871E+03  0.47000000000E+01 0.  1.
        -11    1    3    3    0    0  0.81149628184E+01 -0.41306747086E+02 -0.67166210968E+02  0.79267899381E+02  0.00000000000E+00 0. -1.
         11    1    3    3    0    0  0.53859572811E+02  0.41059034998E+02 -0.73532210779E+02  0.99968414814E+02  0.00000000000E+00 0.  1.
<mgrwt>
<rscale>  0 0.12551239E+03</rscale>
<asrwt>0</asrwt>
<pdfrwt beam="1">  1        1 0.36312366E-02 0.13074465E+03</pdfrwt>
<pdfrwt beam="2">  1       -1 0.17630710E+00 0.13074465E+03</pdfrwt>
<totfact> 0.62531852E+02</totfact>
</mgrwt>
</event>
<event>
 7    1  0.5107591E-006  0.1301033E+03  0.7546771E-02  0.1240271E+00
         -1   -1    0    0    0  501 -0.00000000000E+00  0.00000000000E+00  0.18607213120E+03  0.18607213120E+03  0.00000000000E+00 0.  1.
          1   -1    0    0  501    0  0.00000000000E+00 -0.00000000000E+00 -0.90820343145E+02  0.90820343145E+02  0.00000000000E+00 0. -1.
         23    2    1    2    0    0 -0.14275155664E+02  0.33129441937E+02 -0.21598490607E+02  0.10201865673E+03  0.92951447174E+02 0.  0.
          5    1    1    2  502    0 -0.76481670102E+00 -0.35310089465E+02  0.14128994960E+03  0.14571316763E+03  0.47000000000E+01 0.  1.
         -5    1    1    2    0  502  0.15039972365E+02  0.21806475283E+01 -0.24439670936E+02  0.29160649990E+02  0.47000000000E+01 0.  1.
        -11    1    3    3    0    0 -0.18441276003E+02 -0.17602159076E+02 -0.40386472781E+02  0.47759646654E+02  0.00000000000E+00 0. -1.
         11    1    3    3    0    0  0.41661203397E+01  0.50731601013E+02  0.18787982175E+02  0.54259010074E+02  0.00000000000E+00 0.  1.
<mgrwt>
<rscale>  0 0.12172973E+03</rscale>
<asrwt>0</asrwt>
<pdfrwt beam="2">  1        1 0.13972360E-01 0.13010328E+03</pdfrwt>
<pdfrwt beam="1">  1       -1 0.28626482E-01 0.13010328E+03</pdfrwt>
<totfact> 0.43276184E+03</totfact>
</mgrwt>
</event>
<event>
 7    1  0.5107591E-006  0.1373094E+03  0.7546771E-02  0.1228506E+00
         -2   -1    0    0    0  501 -0.00000000000E+00  0.00000000000E+00  0.24460290578E+03  0.24460290578E+03  0.00000000000E+00 0.  1.
          2   -1    0    0  501    0  0.00000000000E+00 -0.00000000000E+00 -0.65120204835E+02  0.65120204835E+02  0.00000000000E+00 0. -1.
         23    2    1    2    0    0  0.55808259967E+02  0.10534043276E+02  0.43229760449E+02  0.11628385413E+03  0.91801931323E+02 0.  0.
          5    1    1    2  502    0  0.31172825817E+02 -0.23477576651E+02  0.11913813059E+02  0.41072747856E+02  0.47000000000E+01 0.  1.
         -5    1    1    2    0  502 -0.86981085784E+02  0.12943533375E+02  0.12433912744E+03  0.15236650863E+03  0.47000000000E+01 0.  1.
        -11    1    3    3    0    0  0.51579660112E+02  0.46721739886E+02  0.17743795031E+02  0.71820780958E+02  0.00000000000E+00 0. -1.
         11    1    3    3    0    0  0.42285998548E+01 -0.36187696610E+02  0.25485965418E+02  0.44463073172E+02  0.00000000000E+00 0.  1.
<mgrwt>
<rscale>  0 0.12929466E+03</rscale>
<asrwt>0</asrwt>
<pdfrwt beam="2">  1        2 0.10018493E-01 0.13730944E+03</pdfrwt>
<pdfrwt beam="1">  1       -2 0.37631216E-01 0.13730944E+03</pdfrwt>
<totfact> 0.40897304E+03</totfact>
</mgrwt>
</event>
<event>
 7    1  0.5107591E-006  0.1628078E+03  0.7546771E-02  0.1192292E+00
          1   -1    0    0  501    0  0.00000000000E+00  0.00000000000E+00  0.44504845040E+02  0.44504845040E+02  0.00000000000E+00 0. -1.
         -1   -1    0    0    0  501 -0.00000000000E+00 -0.00000000000E+00 -0.51755789698E+03  0.51755789698E+03  0.00000000000E+00 0.  1.
         23    2    1    2    0    0  0.88968547983E+02 -0.54452502041E+02 -0.20367679032E+03  0.24730893580E+03  0.93792309417E+02 0.  0.
          5    1    1    2  502    0 -0.77669804584E+02  0.57547838057E+02 -0.81702397484E+02  0.12665592747E+03  0.47000000000E+01 0.  1.
         -5    1    1    2    0  502 -0.11298743399E+02 -0.30953360163E+01 -0.18767386414E+03  0.18809787875E+03  0.47000000000E+01 0.  1.
        -11    1    3    3    0    0  0.62492862311E+02 -0.77884458025E+02 -0.11773624705E+03  0.15437995502E+03  0.00000000000E+00 0. -1.
         11    1    3    3    0    0  0.26475685672E+02  0.23431955985E+02 -0.85940543262E+02  0.92928980783E+02  0.00000000000E+00 0.  1.
<mgrwt>
<rscale>  0 0.15685654E+03</rscale>
<asrwt>0</asrwt>
<pdfrwt beam="1">  1        1 0.68468991E-02 0.16280783E+03</pdfrwt>
<pdfrwt beam="2">  1       -1 0.79624294E-01 0.16280783E+03</pdfrwt>
<totfact> 0.17405336E+03</totfact>
</mgrwt>
</event>
<event>
 7    1  0.5107591E-006  0.1592414E+03  0.7546771E-02  0.1196825E+00
          1   -1    0    0  501    0  0.00000000000E+00  0.00000000000E+00  0.66283422633E+03  0.66283422633E+03  0.00000000000E+00 0. -1.
         -1   -1    0    0    0  501 -0.00000000000E+00 -0.00000000000E+00 -0.33394119269E+02  0.33394119269E+02  0.00000000000E+00 0.  1.
         23    2    1    2    0    0 -0.94476925401E+02  0.28411773505E+02  0.33567146647E+03  0.36207593619E+03  0.93223022152E+02 0.  0.
          5    1    1    2  502    0  0.71473439575E+02  0.16315495312E+02  0.26712303222E+03  0.27704052464E+03  0.47000000000E+01 0. -1.
         -5    1    1    2    0  502  0.23003485826E+02 -0.44727268816E+02  0.26645608370E+02  0.57111884764E+02  0.47000000000E+01 0. -1.
        -11    1    3    3    0    0 -0.75560616883E+02 -0.22908648138E+02  0.16630359535E+03  0.18409535249E+03  0.00000000000E+00 0.  1.
         11    1    3    3    0    0 -0.18916308518E+02  0.51320421642E+02  0.16936787113E+03  0.17798058370E+03  0.00000000000E+00 0. -1.
<mgrwt>
<rscale>  0 0.15300792E+03</rscale>
<asrwt>0</asrwt>
<pdfrwt beam="1">  1        1 0.10197449E+00 0.15924138E+03</pdfrwt>
<pdfrwt beam="2">  1       -1 0.51375573E-02 0.15924138E+03</pdfrwt>
<totfact> 0.50317875E+03</totfact>
</mgrwt>
</event>
<event>
 7    1  0.5107591E-006  0.1860319E+03  0.7546771E-02  0.1168051E+00
         -2   -1    0    0    0  501 -0.00000000000E+00  0.00000000000E+00  0.88226502846E+03  0.88226502846E+03  0.00000000000E+00 0.  1.
          2   -1    0    0  501    0  0.00000000000E+00 -0.00000000000E+00 -0.36838634949E+02  0.36838634949E+02  0.00000000000E+00 0. -1.
         23    2    1    2    0    0  0.38788675155E+02 -0.13221251349E+03  0.27641690853E+03  0.32045548045E+03  0.85444119651E+02 0.  0.
          5    1    1    2  502    0 -0.84533599999E+01 -0.72031266548E+00  0.26786433237E+03  0.26803986402E+03  0.47000000000E+01 0.  1.
         -5    1    1    2    0  502 -0.30335315155E+02  0.13293282616E+03  0.30114515260E+03  0.33060831894E+03  0.47000000000E+01 0.  1.
        -11    1    3    3    0    0 -0.11331043504E+02 -0.69660993399E+02  0.18952836183E+03  0.20224254371E+03  0.00000000000E+00 0. -1.
         11    1    3    3    0    0  0.50119718659E+02 -0.62551520091E+02  0.86888546701E+02  0.11821293674E+03  0.00000000000E+00 0.  1.
<mgrwt>
<rscale>  0 0.17974418E+03</rscale>
<asrwt>0</asrwt>
<pdfrwt beam="2">  1        2 0.56674830E-02 0.18603186E+03</pdfrwt>
<pdfrwt beam="1">  1       -2 0.13573307E+00 0.18603186E+03</pdfrwt>
<totfact> 0.53955079E+02</totfact>
</mgrwt>
</event>
<event>
 7    1  0.5107591E-006  0.2814315E+03  0.7546771E-02  0.1096708E+00
          1   -1    0    0  501    0  0.00000000000E+00  0.00000000000E+00  0.90944593565E+03  0.90944593565E+03  0.00000000000E+00 0. -1.
         -1   -1    0    0    0  501 -0.00000000000E+00 -0.00000000000E+00 -0.10735532253E+03  0.10735532253E+03  0.00000000000E+00 0.  1.
         23    2    1    2    0    0 -0.25152211596E+03 -0.17437219796E+02  0.63517593334E+03  0.68959456478E+03  0.92329659585E+02 0.  0.
          5    1    1    2  502    0  0.18850681761E+03  0.52681063041E+02  0.16298191914E+03  0.25474558025E+03  0.47000000000E+01 0. -1.
         -5    1    1    2    0  502  0.63015298347E+02 -0.35243843245E+02  0.39327606442E+01  0.72461113148E+02  0.47000000000E+01 0. -1.
        -11    1    3    3    0    0 -0.24079518784E+03  0.79085620298E+01  0.56581452576E+03  0.61497231271E+03  0.00000000000E+00 0.  1.
         11    1    3    3    0    0 -0.10726928112E+02 -0.25345781825E+02  0.69361407576E+02  0.74622252070E+02  0.00000000000E+00 0. -1.
<mgrwt>
<rscale>  0 0.27814138E+03</rscale>
<asrwt>0</asrwt>
<pdfrwt beam="1">  1        1 0.13991475E+00 0.28143154E+03</pdfrwt>
<pdfrwt beam="2">  1       -1 0.16516204E-01 0.28143154E+03</pdfrwt>
<totfact> 0.51887679E+02</totfact>
</mgrwt>
</event>
<event>
 7    1  0.5107591E-006  0.1990416E+03  0.7546771E-02  0.1155146E+00
         -2   -1    0    0    0  501 -0.00000000000E+00  0.00000000000E+00  0.24998339532E+03  0.24998339532E+03  0.00000000000E+00 0.  1.
          2   -1    0    0  501    0  0.00000000000E+00 -0.00000000000E+00 -0.17212086252E+03  0.17212086252E+03  0.00000000000E+00 0. -1.
         23    2    1    2    0    0  0.14417851671E+03  0.56559571819E+02 -0.50075334663E+02  0.18549140611E+03  0.88955566183E+02 0.  0.
          5    1    1    2  502    0 -0.64537970242E+02 -0.12590845268E+02  0.12971197940E+03  0.14550246248E+03  0.47000000000E+01 0. -1.
         -5    1    1    2    0  502 -0.79640546469E+02 -0.43968726551E+02 -0.17741119346E+01  0.91110389252E+02  0.47000000000E+01 0. -1.
        -11    1    3    3    0    0  0.21774234381E+02 -0.23436349425E+02 -0.13753112202E+02  0.34821370629E+02  0.00000000000E+00 0. -1.
         11    1    3    3    0    0  0.12240428233E+03  0.79995921244E+02 -0.36322222461E+02  0.15067003548E+03  0.00000000000E+00 0.  1.
<mgrwt>
<rscale>  0 0.19372285E+03</rscale>
<asrwt>0</asrwt>
<pdfrwt beam="2">  1        2 0.26480133E-01 0.19904156E+03</pdfrwt>
<pdfrwt beam="1">  1       -2 0.38458984E-01 0.19904156E+03</pdfrwt>
<totfact> 0.12849755E+03</totfact>
</mgrwt>
</event>
<event>
 7    1  0.5107591E-006  0.2286480E+03  0.7546771E-02  0.1127595E+00
          2   -1    0    0  501    0  0.00000000000E+00  0.00000000000E+00  0.42884074777E+03  0.42884074777E+03  0.00000000000E+00 0. -1.
         -2   -1    0    0    0  501 -0.00000000000E+00 -0.00000000000E+00 -0.30477459792E+02  0.30477459792E+02  0.00000000000E+00 0.  1.
         23    2    1    2    0    0 -0.96899142407E+01  0.34962678230E+02  0.18560248285E+03  0.20989248937E+03  0.91051041435E+02 0.  0.
          5    1    1    2  502    0  0.89308476239E+01  0.45750627866E+02  0.55768270850E+02  0.72835911631E+02  0.47000000000E+01 0.  1.
         -5    1    1    2    0  502  0.75906661685E+00 -0.80713306096E+02  0.15699253427E+03  0.17658980656E+03  0.47000000000E+01 0.  1.
        -11    1    3    3    0    0  0.15896623330E+02  0.39802983228E+02  0.30463710036E+02  0.52583435950E+02  0.00000000000E+00 0.  1.
         11    1    3    3    0    0 -0.25586537571E+02 -0.48403049981E+01  0.15513877282E+03  0.15730905342E+03  0.00000000000E+00 0. -1.
<mgrwt>
<rscale>  0 0.22864800E+03</rscale>
<asrwt>0</asrwt>
<pdfrwt beam="1">  1        2 0.65975496E-01 0.22864800E+03</pdfrwt>
<pdfrwt beam="2">  1       -2 0.46888403E-02 0.22864800E+03</pdfrwt>
<totfact> 0.15660274E+04</totfact>
</mgrwt>
</event>
<event>
 7    1  0.5107591E-006  0.1424128E+03  0.7546771E-02  0.1218439E+00
          1   -1    0    0  501    0  0.00000000000E+00  0.00000000000E+00  0.12331524702E+03  0.12331524702E+03  0.00000000000E+00 0. -1.
         -1   -1    0    0    0  501 -0.00000000000E+00 -0.00000000000E+00 -0.13934332052E+03  0.13934332052E+03  0.00000000000E+00 0.  1.
         23    2    1    2    0    0  0.68208914019E+02 -0.19739121652E+01 -0.14286949518E+02  0.12023510106E+03  0.97959227838E+02 0.  0.
          5    1    1    2  502    0 -0.79835489224E+02 -0.40155529468E+02 -0.24696418873E+02  0.92834126223E+02  0.47000000000E+01 0. -1.
         -5    1    1    2    0  502  0.11626575204E+02  0.42129441633E+02  0.22955294898E+02  0.49589340258E+02  0.47000000000E+01 0. -1.
        -11    1    3    3    0    0  0.71681978953E+02  0.36637140538E+02 -0.12101738460E+02  0.81406622871E+02  0.00000000000E+00 0.  1.
         11    1    3    3    0    0 -0.34730649341E+01 -0.38611052703E+02 -0.21852110583E+01  0.38828478186E+02  0.00000000000E+00 0. -1.
<mgrwt>
<rscale>  0 0.13626919E+03</rscale>
<asrwt>0</asrwt>
<pdfrwt beam="1">  1        1 0.18971577E-01 0.14241282E+03</pdfrwt>
<pdfrwt beam="2">  1       -1 0.21437434E-01 0.14241282E+03</pdfrwt>
<totfact> 0.47178658E+03</totfact>
</mgrwt>
</event>
<event>
 7    1  0.5107591E-006  0.1343720E+03  0.7546771E-02  0.1233815E+00
          1   -1    0    0  501    0  0.00000000000E+00  0.00000000000E+00  0.13349227605E+03  0.13349227605E+03  0.00000000000E+00 0. -1.
         -1   -1    0    0    0  501 -0.00000000000E+00 -0.00000000000E+00 -0.11286789840E+03  0.11286789840E+03  0.00000000000E+00 0.  1.
         23    2    1    2    0    0  0.61237240904E+01 -0.48903741181E+02  0.39745963888E+02  0.11063449358E+03  0.90725815656E+02 0.  0.
          5    1    1    2  502    0 -0.66529227639E+01 -0.42283991484E+02 -0.62425187746E+01  0.43511565793E+02  0.47000000000E+01 0. -1.
         -5    1    1    2    0  502  0.52919867347E+00  0.91187732665E+02 -0.12879067463E+02  0.92214115072E+02  0.47000000000E+01 0. -1.
        -11    1    3    3    0    0  0.40136597359E+02 -0.49137779047E+02  0.42724186052E+02  0.76490678197E+02  0.00000000000E+00 0. -1.
         11    1    3    3    0    0 -0.34012873269E+02  0.23403786666E+00 -0.29782221641E+01  0.34143815384E+02  0.00000000000E+00 0.  1.
<mgrwt>
<rscale>  0 0.12580631E+03</rscale>
<asrwt>0</asrwt>
<pdfrwt beam="1">  1        1 0.20537273E-01 0.13437197E+03</pdfrwt>
<pdfrwt beam="2">  1       -1 0.17364292E-01 0.13437197E+03</pdfrwt>
<totfact> 0.59548090E+03</totfact>
</mgrwt>
</event>
<event>
 7    1  0.5107591E-006  0.1336024E+03  0.7546771E-02  0.1234696E+00
         -1   -1    0    0    0  501 -0.00000000000E+00  0.00000000000E+00  0.10835021428E+03  0.10835021428E+03  0.00000000000E+00 0.  1.
          1   -1    0    0  501    0  0.00000000000E+00 -0.00000000000E+00 -0.13642296831E+03  0.13642296831E+03  0.00000000000E+00 0. -1.
         23    2    1    2    0    0  0.46066515038E+02  0.10133655551E+02 -0.39988758172E+02  0.11064046925E+03  0.91746377989E+02 0.  0.
          5    1    1    2  502    0 -0.18837080077E+02  0.48591449821E+02 -0.26562419690E+02  0.58682337388E+02  0.47000000000E+01 0.  1.
         -5    1    1    2    0  502 -0.27229434961E+02 -0.58725105371E+02  0.38478423831E+02  0.75450375941E+02  0.47000000000E+01 0.  1.
        -11    1    3    3    0    0  0.66511421376E+01  0.96191121306E+01 -0.63616715051E+02  0.64682698180E+02  0.00000000000E+00 0. -1.
         11    1    3    3    0    0  0.39415372901E+02  0.51454342016E+00  0.23627956879E+02  0.45957771074E+02  0.00000000000E+00 0.  1.
<mgrwt>
<rscale>  0 0.12523901E+03</rscale>
<asrwt>0</asrwt>
<pdfrwt beam="2">  1        1 0.20988149E-01 0.13360237E+03</pdfrwt>
<pdfrwt beam="1">  1       -1 0.16669264E-01 0.13360237E+03</pdfrwt>
<totfact> 0.61775253E+03</totfact>
</mgrwt>
</event>
<event>
 7    1  0.5107591E-006  0.1383853E+03  0.7546771E-02  0.1226499E+00
         -2   -1    0    0    0  501 -0.00000000000E+00  0.00000000000E+00  0.18992540271E+03  0.18992540271E+03  0.00000000000E+00 0.  1.
          2   -1    0    0  501    0  0.00000000000E+00 -0.00000000000E+00 -0.85612593985E+02  0.85612593985E+02  0.00000000000E+00 0. -1.
         23    2    1    2    0    0 -0.24450339275E+02  0.54117254064E+02  0.15288275867E+02  0.11099058512E+03  0.92513146789E+02 0.  0.
          5    1    1    2  502    0  0.34639764137E+02  0.65380112327E+01  0.96089687106E+02  0.10245963507E+03  0.47000000000E+01 0. -1.
         -5    1    1    2    0  502 -0.10189424862E+02 -0.60655265297E+02 -0.70651542433E+01  0.62087776508E+02  0.47000000000E+01 0. -1.
        -11    1    3    3    0    0 -0.36547453682E+02 -0.15096452125E+02  0.29492697067E+01  0.39652458048E+02  0.00000000000E+00 0.  1.
         11    1    3    3    0    0  0.12097114408E+02  0.69213706189E+02  0.12339006160E+02  0.71338127075E+02  0.00000000000E+00 0. -1.
<mgrwt>
<rscale>  0 0.13064688E+03</rscale>
<asrwt>0</asrwt>
<pdfrwt beam="2">  1        2 0.13171168E-01 0.13838527E+03</pdfrwt>
<pdfrwt beam="1">  1       -2 0.29219293E-01 0.13838527E+03</pdfrwt>
<totfact> 0.46708597E+03</totfact>
</mgrwt>
</event>
<event>
 7    1  0.5107591E-006  0.4330549E+03  0.7546771E-02  0.1033560E+00
          1   -1    0    0  501    0  0.00000000000E+00  0.00000000000E+00  0.31397608865E+03  0.31397608865E+03  0.00000000000E+00 0. -1.
         -1   -1    0    0    0  501 -0.00000000000E+00 -0.00000000000E+00 -0.63809909006E+03  0.63809909006E+03  0.00000000000E+00 0.  1.
         23    2    1    2    0    0  0.37752049373E+03  0.17143698031E+03 -0.24382050575E+02  0.42540526623E+03  0.91993449453E+02 0.  0.
          5    1    1    2  502    0 -0.30605494856E+03 -0.10332526347E+03 -0.27628197694E+03  0.42508771141E+03  0.47000000000E+01 0. -1.
         -5    1    1    2    0  502 -0.71465545175E+02 -0.68111716837E+02 -0.23458973893E+02  0.10158220107E+03  0.47000000000E+01 0. -1.
        -11    1    3    3    0    0  0.11961939048E+03  0.93258061513E+02  0.17488903494E+02  0.15268178137E+03  0.00000000000E+00 0.  1.
         11    1    3    3    0    0  0.25790110325E+03  0.78178918798E+02 -0.41870954068E+02  0.27272348486E+03  0.00000000000E+00 0. -1.
<mgrwt>
<rscale>  0 0.43095241E+03</rscale>
<asrwt>0</asrwt>
<pdfrwt beam="1">  1        1 0.48304014E-01 0.43305491E+03</pdfrwt>
<pdfrwt beam="2">  1       -1 0.98169090E-01 0.43305491E+03</pdfrwt>
<totfact> 0.85835011E+01</totfact>
</mgrwt>
</event>
<event>
 7    1  0.5107591E-006  0.1411731E+03  0.7546771E-02  0.1222806E+00
         -1   -1    0    0    0  501 -0.00000000000E+00  0.00000000000E+00  0.22941461478E+02  0.22941461478E+02  0.00000000000E+00 0.  1.
          1   -1    0    0  501    0  0.00000000000E+00 -0.00000000000E+00 -0.80812659847E+03  0.80812659847E+03  0.00000000000E+00 0. -1.
         23    2    1    2    0    0 -0.64157875473E+02  0.13759433522E+02 -0.50611141198E+03  0.51831896590E+03  0.90555143886E+02 0.  0.
          5    1    1    2  502    0  0.63800274911E+01  0.72714396755E+01 -0.23892119638E+03  0.23916313818E+03  0.47000000000E+01 0. -1.
         -5    1    1    2    0  502  0.57777847982E+02 -0.21030873197E+02 -0.40152528638E+02  0.73585955867E+02  0.47000000000E+01 0. -1.
        -11    1    3    3    0    0 -0.54489375980E+02 -0.31257553490E+02 -0.34864268857E+03  0.35425675863E+03  0.00000000000E+00 0. -1.
         11    1    3    3    0    0 -0.96684994927E+01  0.45016987011E+02 -0.15746872341E+03  0.16406220727E+03  0.00000000000E+00 0.  1.
<mgrwt>
<rscale>  0 0.13318426E+03</rscale>
<asrwt>0</asrwt>
<pdfrwt beam="2">  1        1 0.12432719E+00 0.14117313E+03</pdfrwt>
<pdfrwt beam="1">  1       -1 0.35294551E-02 0.14117313E+03</pdfrwt>
<totfact> 0.65174010E+03</totfact>
</mgrwt>
</event>
<event>
 7    1  0.5107591E-006  0.1254270E+03  0.7546771E-02  0.1249828E+00
         -1   -1    0    0    0  501 -0.00000000000E+00  0.00000000000E+00  0.29978876977E+03  0.29978876977E+03  0.00000000000E+00 0.  1.
          1   -1    0    0  501    0  0.00000000000E+00 -0.00000000000E+00 -0.54821271065E+02  0.54821271065E+02  0.00000000000E+00 0. -1.
         23    2    1    2    0    0  0.24288631186E+01 -0.10157760740E+02  0.15489863273E+02  0.93091547687E+02  0.91197702313E+02 0.  0.
          5    1    1    2  502    0 -0.19313528116E+02 -0.12769531813E+02 -0.59220604835E+01  0.24356397751E+02  0.47000000000E+01 0.  1.
         -5    1    1    2    0  502  0.16884664997E+02  0.22927292553E+02  0.23539969592E+03  0.23716209540E+03  0.47000000000E+01 0.  1.
        -11    1    3    3    0    0 -0.64137313506E+01 -0.15586277172E+02  0.52246871538E+02  0.54898119926E+02  0.00000000000E+00 0.  1.
         11    1    3    3    0    0  0.88425944692E+01  0.54285164322E+01 -0.36757008264E+02  0.38193427761E+02  0.00000000000E+00 0. -1.
<mgrwt>
<rscale>  0 0.11601033E+03</rscale>
<asrwt>0</asrwt>
<pdfrwt beam="2">  1        1 0.84340419E-02 0.12542702E+03</pdfrwt>
<pdfrwt beam="1">  1       -1 0.46121348E-01 0.12542702E+03</pdfrwt>
<totfact> 0.36858832E+03</totfact>
</mgrwt>
</event>
<event>
 7    1  0.5107591E-006  0.1445143E+03  0.7546771E-02  0.1217236E+00
          1   -1    0    0  501    0  0.00000000000E+00  0.00000000000E+00  0.56844408653E+03  0.56844408653E+03  0.00000000000E+00 0. -1.
         -1   -1    0    0    0  501 -0.00000000000E+00 -0.00000000000E+00 -0.30309526989E+02  0.30309526989E+02  0.00000000000E+00 0.  1.
         23    2    1    2    0    0 -0.70559969281E+02  0.16759231680E+02  0.26469758877E+03  0.28947679548E+03  0.92045752283E+02 0.  0.
          5    1    1    2  502    0  0.78061087994E+02  0.39145553211E+02  0.17785950438E+03  0.19819687458E+03  0.47000000000E+01 0. -1.
         -5    1    1    2    0  502 -0.75011187127E+01 -0.55904784891E+02  0.95577466390E+02  0.11107994345E+03  0.47000000000E+01 0. -1.
        -11    1    3    3    0    0 -0.23151711676E+02 -0.30929763402E+02  0.16330085894E+03  0.16780888698E+03  0.00000000000E+00 0. -1.
         11    1    3    3    0    0 -0.47408257605E+02  0.47688995082E+02  0.10139672983E+03  0.12166790851E+03  0.00000000000E+00 0.  1.
<mgrwt>
<rscale>  0 0.13713546E+03</rscale>
<asrwt>0</asrwt>
<pdfrwt beam="1">  1        1 0.87452929E-01 0.14451427E+03</pdfrwt>
<pdfrwt beam="2">  1       -1 0.46630046E-02 0.14451427E+03</pdfrwt>
<totfact> 0.71413076E+03</totfact>
</mgrwt>
</event>
<event>
 7    1  0.5107591E-006  0.1380520E+03  0.7546771E-02  0.1232980E+00
         -2   -1    0    0    0  501 -0.00000000000E+00  0.00000000000E+00  0.65844905218E+02  0.65844905218E+02  0.00000000000E+00 0.  1.
          2   -1    0    0  501    0  0.00000000000E+00 -0.00000000000E+00 -0.55119500645E+03  0.55119500645E+03  0.00000000000E+00 0. -1.
         23    2    1    2    0    0 -0.87303405611E+00 -0.32735329185E+02 -0.46798214877E+03  0.47789968833E+03  0.91150735464E+02 0.  0.
          5    1    1    2  502    0 -0.57001184574E+01 -0.49954055028E+02  0.10365733507E+02  0.51550338459E+02  0.47000000000E+01 0. -1.
         -5    1    1    2    0  502  0.65731525135E+01  0.82689384213E+02 -0.27733685973E+02  0.87589884879E+02  0.47000000000E+01 0.  1.
        -11    1    3    3    0    0  0.44709198071E+02 -0.18044470278E+02 -0.20507899753E+03  0.21067014626E+03  0.00000000000E+00 0. -1.
         11    1    3    3    0    0 -0.45582232127E+02 -0.14690858908E+02 -0.26290315124E+03  0.26722954207E+03  0.00000000000E+00 0.  1.
<mgrwt>
<rscale>  0 0.12634619E+03</rscale>
<asrwt>0</asrwt>
<pdfrwt beam="2">  1        2 0.84799232E-01 0.13805200E+03</pdfrwt>
<pdfrwt beam="1">  1       -2 0.10129985E-01 0.13805200E+03</pdfrwt>
<totfact> 0.35212602E+03</totfact>
</mgrwt>
</event>
<event>
 7    1  0.5107591E-006  0.1286903E+03  0.7546771E-02  0.1243560E+00
         -3   -1    0    0    0  501 -0.00000000000E+00  0.00000000000E+00  0.70685375588E+02  0.70685375588E+02  0.00000000000E+00 0.  1.
          3   -1    0    0  501    0  0.00000000000E+00 -0.00000000000E+00 -0.18518162545E+03  0.18518162545E+03  0.00000000000E+00 0. -1.
         23    2    1    2    0    0 -0.84707571949E+01 -0.29382366633E+02 -0.72108754429E+02  0.12037570753E+03  0.91408759433E+02 0.  0.
          5    1    1    2  502    0 -0.17592136014E+02 -0.23354932951E+02  0.29960969396E+02  0.42127020187E+02  0.47000000000E+01 0. -1.
         -5    1    1    2    0  502  0.26062893208E+02  0.52737299585E+02 -0.72348464824E+02  0.93364273319E+02  0.47000000000E+01 0. -1.
        -11    1    3    3    0    0  0.28893546685E+02 -0.28929398413E+02 -0.20064129366E+01  0.40936204336E+02  0.00000000000E+00 0.  1.
         11    1    3    3    0    0 -0.37364303880E+02 -0.45296822039E+00 -0.70102341492E+02  0.79439503192E+02  0.00000000000E+00 0. -1.
<mgrwt>
<rscale>  0 0.11971954E+03</rscale>
<asrwt>0</asrwt>
<pdfrwt beam="2">  1        3 0.28489480E-01 0.12869029E+03</pdfrwt>
<pdfrwt beam="1">  1       -3 0.10874673E-01 0.12869029E+03</pdfrwt>
<totfact> 0.17238432E+03</totfact>
</mgrwt>
</event>
<event>
 7    1  0.5107591E-006  0.1628711E+03  0.7546771E-02  0.1199567E+00
          4   -1    0    0  501    0  0.00000000000E+00  0.00000000000E+00  0.22888149404E+03  0.22888149404E+03  0.00000000000E+00 0. -1.
         -4   -1    0    0    0  501 -0.00000000000E+00 -0.00000000000E+00 -0.92171207308E+02  0.92171207308E+02  0.00000000000E+00 0.  1.
         23    2    1    2    0    0 -0.14578976499E+01  0.78490896658E+02  0.95697687505E+02  0.15309730999E+03  0.90098793603E+02 0.  0.
          5    1    1    2  502    0  0.25440651237E+02 -0.13129115161E+02  0.82031807228E+02  0.87010963662E+02  0.47000000000E+01 0. -1.
         -5    1    1    2    0  502 -0.23982753587E+02 -0.65361781497E+02 -0.41019208001E+02  0.80944427696E+02  0.47000000000E+01 0.  1.
        -11    1    3    3    0    0  0.80202011236E+00 -0.19778801239E+02  0.25632273203E+02  0.32386071763E+02  0.00000000000E+00 0.  1.
         11    1    3    3    0    0 -0.22599177623E+01  0.98269697897E+02  0.70065414302E+02  0.12071123823E+03  0.00000000000E+00 0. -1.
<mgrwt>
<rscale>  0 0.15073939E+03</rscale>
<asrwt>0</asrwt>
<pdfrwt beam="1">  1        4 0.35212537E-01 0.16287105E+03</pdfrwt>
<pdfrwt beam="2">  1       -4 0.14180186E-01 0.16287105E+03</pdfrwt>
<totfact> 0.55776567E+02</totfact>
</mgrwt>
</event>
<event>
 6    1  0.5107591E-006  0.4010170E+03  0.7546771E-02  0.1043428E+00
         -2   -1    0    0    0  501 -0.00000000000E+00  0.00000000000E+00  0.17374076013E+03  0.17374076013E+03  0.00000000000E+00 0.  1.
          2   -1    0    0  501    0  0.00000000000E+00 -0.00000000000E+00 -0.23140029272E+03  0.23140029272E+03  0.00000000000E+00 0. -1.
          5    1    1    2  502    0  0.60591314684E+02 -0.30543580928E+02 -0.28372942437E+02  0.73697568573E+02  0.47000000000E+01 0.  1.
         -5    1    1    2    0  502  0.61490244308E+02  0.82778200096E+02  0.34182043955E+02  0.10873721849E+03  0.47000000000E+01 0.  1.
        -11    1    1    2    0    0 -0.89997808752E+02  0.46853545987E+02 -0.14240401521E+01  0.10147358396E+03  0.00000000000E+00 0.  1.
         11    1    1    2    0    0 -0.32083750241E+02 -0.99088165155E+02 -0.62044593952E+02  0.12123268182E+03  0.00000000000E+00 0. -1.
<mgrwt>
<rscale>  0 0.40101702E+03</rscale>
<asrwt>0</asrwt>
<pdfrwt beam="2">  1        2 0.35600045E-01 0.40101702E+03</pdfrwt>
<pdfrwt beam="1">  1       -2 0.26729348E-01 0.40101702E+03</pdfrwt>
<totfact> 0.18432951E+03</totfact>
</mgrwt>
</event>
<event>
 7    1  0.5107591E-006  0.1362267E+03  0.7546771E-02  0.1230322E+00
         -2   -1    0    0    0  501 -0.00000000000E+00  0.00000000000E+00  0.48477261087E+02  0.48477261087E+02  0.00000000000E+00 0. -1.
          2   -1    0    0  501    0  0.00000000000E+00 -0.00000000000E+00 -0.30525644647E+03  0.30525644647E+03  0.00000000000E+00 0.  1.
         23    2    1    2    0    0  0.53028749659E+02 -0.10967795529E+02 -0.12500554702E+03  0.16420268460E+03  0.91672209599E+02 0.  0.
          5    1    1    2  502    0 -0.24775617223E+02 -0.19270395269E+02 -0.14293162163E+03  0.14641283347E+03  0.47000000000E+01 0. -1.
         -5    1    1    2    0  502 -0.28253132436E+02  0.30238190798E+02  0.11157983263E+02  0.43118189499E+02  0.47000000000E+01 0. -1.
        -11    1    3    3    0    0 -0.18933343609E+02  0.15670222031E+01 -0.70629519675E+02  0.73139976130E+02  0.00000000000E+00 0.  1.
         11    1    3    3    0    0  0.71962093267E+02 -0.12534817732E+02 -0.54376027349E+02  0.91062708466E+02  0.00000000000E+00 0. -1.
<mgrwt>
<rscale>  0 0.12808693E+03</rscale>
<asrwt>0</asrwt>
<pdfrwt beam="2">  1        2 0.46962530E-01 0.13622671E+03</pdfrwt>
<pdfrwt beam="1">  1       -2 0.74580401E-02 0.13622671E+03</pdfrwt>
<totfact> 0.10706828E+04</totfact>
</mgrwt>
</event>
<event>
 7    1  0.5107591E-006  0.1465177E+03  0.7546771E-02  0.1214188E+00
          1   -1    0    0  501    0  0.00000000000E+00  0.00000000000E+00  0.36770410118E+02  0.36770410118E+02  0.00000000000E+00 0. -1.
         -1   -1    0    0    0  501 -0.00000000000E+00 -0.00000000000E+00 -0.75917092620E+03  0.75917092620E+03  0.00000000000E+00 0.  1.
         23    2    1    2    0    0  0.55964261623E+02  0.52060655278E+02 -0.98876565547E+02  0.15543406342E+03  0.92416786626E+02 0.  0.
          5    1    1    2  502    0 -0.33134968809E+02 -0.88823675955E+02 -0.31693252354E+03  0.33084117949E+03  0.47000000000E+01 0. -1.
         -5    1    1    2    0  502 -0.22829292814E+02  0.36763020677E+02 -0.30659142700E+03  0.30966609341E+03  0.47000000000E+01 0. -1.
        -11    1    3    3    0    0 -0.41870578158E+01  0.58215609787E+02 -0.38087777220E+02  0.69694099102E+02  0.00000000000E+00 0.  1.
         11    1    3    3    0    0  0.60151319439E+02 -0.61549545094E+01 -0.60788788327E+02  0.85739964320E+02  0.00000000000E+00 0. -1.
<mgrwt>
<rscale>  0 0.13936365E+03</rscale>
<asrwt>0</asrwt>
<pdfrwt beam="1">  1        1 0.56569866E-02 0.14651775E+03</pdfrwt>
<pdfrwt beam="2">  1       -1 0.11679552E+00 0.14651775E+03</pdfrwt>
<totfact> 0.97490266E+02</totfact>
</mgrwt>
</event>
<event>
 7    1  0.5107591E-006  0.1433639E+03  0.7546771E-02  0.1219431E+00
         -2   -1    0    0    0  501 -0.00000000000E+00  0.00000000000E+00  0.49603959825E+02  0.49603959825E+02  0.00000000000E+00 0.  1.
          2   -1    0    0  501    0  0.00000000000E+00 -0.00000000000E+00 -0.33594916611E+03  0.33594916611E+03  0.00000000000E+00 0. -1.
         23    2    1    2    0    0 -0.70162362121E+02 -0.27381660962E+01 -0.13497296258E+03  0.17706629514E+03  0.90578792417E+02 0.  0.
          5    1    1    2  502    0  0.98725655470E+02  0.54771940407E+01 -0.14956259391E+03  0.17935387981E+03  0.47000000000E+01 0.  1.
         -5    1    1    2    0  502 -0.28563293349E+02 -0.27390279445E+01 -0.18096497916E+01  0.29132950990E+02  0.47000000000E+01 0.  1.
        -11    1    3    3    0    0 -0.80643997935E+01  0.88791432659E+01  0.12076159493E+02  0.17020791911E+02  0.00000000000E+00 0.  1.
         11    1    3    3    0    0 -0.62097962328E+02 -0.11617309362E+02 -0.14704912207E+03  0.16004550323E+03  0.00000000000E+00 0. -1.
<mgrwt>
<rscale>  0 0.13556033E+03</rscale>
<asrwt>0</asrwt>
<pdfrwt beam="2">  1        2 0.51684487E-01 0.14336388E+03</pdfrwt>
<pdfrwt beam="1">  1       -2 0.76313785E-02 0.14336388E+03</pdfrwt>
<totfact> 0.93704926E+03</totfact>
</mgrwt>
</event>
<event>
 7    1  0.5107591E-006  0.1278706E+03  0.7546771E-02  0.1243216E+00
         -4   -1    0    0    0  501 -0.00000000000E+00  0.00000000000E+00  0.81311712847E+02  0.81311712847E+02  0.00000000000E+00 0. -1.
          4   -1    0    0  501    0  0.00000000000E+00 -0.00000000000E+00 -0.16844418168E+03  0.16844418168E+03  0.00000000000E+00 0.  1.
         23    2    1    2    0    0  0.26183086588E+02 -0.63059735391E+01 -0.68958963436E+02  0.12060029148E+03  0.95203846249E+02 0.  0.
          5    1    1    2  502    0 -0.71874991768E+02 -0.38169843242E+01 -0.33713690717E+02  0.79619637984E+02  0.47000000000E+01 0. -1.
         -5    1    1    2    0  502  0.45691905180E+02  0.10122957863E+02  0.15540185323E+02  0.49535965063E+02  0.47000000000E+01 0. -1.
        -11    1    3    3    0    0  0.39360886865E+02 -0.27340144826E+02 -0.65804591151E+00  0.47929072163E+02  0.00000000000E+00 0. -1.
         11    1    3    3    0    0 -0.13177800278E+02  0.21034171287E+02 -0.68300917525E+02  0.72671219314E+02  0.00000000000E+00 0.  1.
<mgrwt>
<rscale>  0 0.11992807E+03</rscale>
<asrwt>0</asrwt>
<pdfrwt beam="2">  1        4 0.25914489E-01 0.12787061E+03</pdfrwt>
<pdfrwt beam="1">  1       -4 0.12509494E-01 0.12787061E+03</pdfrwt>
<totfact> 0.11796912E+03</totfact>
</mgrwt>
</event>
<event>
 7    1  0.5107591E-006  0.2031714E+03  0.7546771E-02  0.1151170E+00
          1   -1    0    0  501    0  0.00000000000E+00  0.00000000000E+00  0.12828527935E+03  0.12828527935E+03  0.00000000000E+00 0. -1.
         -1   -1    0    0    0  501 -0.00000000000E+00 -0.00000000000E+00 -0.50593250345E+03  0.50593250345E+03  0.00000000000E+00 0.  1.
         23    2    1    2    0    0  0.40822434663E+02 -0.15487785224E+03  0.22158495721E+02  0.18575011247E+03  0.91424750832E+02 0.  0.
          5    1    1    2  502    0 -0.19160490755E+02 -0.11494826080E+02 -0.12023118511E+03  0.12238007724E+03  0.47000000000E+01 0.  1.
         -5    1    1    2    0  502 -0.21661943908E+02  0.16637267832E+03 -0.27957453471E+03  0.32608759309E+03  0.47000000000E+01 0.  1.
        -11    1    3    3    0    0  0.41135235981E+00 -0.54282334953E+02 -0.33601063483E+02  0.63841777590E+02  0.00000000000E+00 0.  1.
         11    1    3    3    0    0  0.40411082303E+02 -0.10059551729E+03  0.55759559204E+02  0.12190833488E+03  0.00000000000E+00 0. -1.
<mgrwt>
<rscale>  0 0.19831301E+03</rscale>
<asrwt>0</asrwt>
<pdfrwt beam="1">  1        1 0.19736197E-01 0.20317145E+03</pdfrwt>
<pdfrwt beam="2">  1       -1 0.77835771E-01 0.20317145E+03</pdfrwt>
<totfact> 0.45051308E+02</totfact>
</mgrwt>
</event>
<event>
 7    1  0.5107591E-006  0.2498742E+03  0.7546771E-02  0.1115816E+00
         -2   -1    0    0    0  501 -0.00000000000E+00  0.00000000000E+00  0.10132881180E+03  0.10132881180E+03  0.00000000000E+00 0.  1.
          2   -1    0    0  501    0  0.00000000000E+00 -0.00000000000E+00 -0.59952013869E+03  0.59952013869E+03  0.00000000000E+00 0. -1.
         23    2    1    2    0    0 -0.18785346203E+03  0.10734385361E+03 -0.30486835923E+03  0.38492036480E+03  0.91691573647E+02 0.  0.
          5    1    1    2  502    0  0.31718981211E+02 -0.97291552086E+01  0.15973166786E+02  0.37121183808E+02  0.47000000000E+01 0. -1.
         -5    1    1    2    0  502  0.15613448082E+03 -0.97614698398E+02 -0.20929613445E+03  0.27880740188E+03  0.47000000000E+01 0. -1.
        -11    1    3    3    0    0 -0.26976741987E+02  0.45846787150E+02 -0.31503312677E+02  0.61823387240E+02  0.00000000000E+00 0.  1.
         11    1    3    3    0    0 -0.16087672004E+03  0.61497066457E+02 -0.27336504655E+03  0.32309697756E+03  0.00000000000E+00 0. -1.
<mgrwt>
<rscale>  0 0.24606626E+03</rscale>
<asrwt>0</asrwt>
<pdfrwt beam="2">  1        2 0.92233867E-01 0.24987417E+03</pdfrwt>
<pdfrwt beam="1">  1       -2 0.15589048E-01 0.24987417E+03</pdfrwt>
<totfact> 0.16187626E+03</totfact>
</mgrwt>
</event>
<event>
 7    1  0.5107591E-006  0.1319931E+03  0.7546771E-02  0.1237693E+00
         -2   -1    0    0    0  501 -0.00000000000E+00  0.00000000000E+00  0.52851772531E+03  0.52851772531E+03  0.00000000000E+00 0. -1.
          2   -1    0    0  501    0  0.00000000000E+00 -0.00000000000E+00 -0.36013003517E+02  0.36013003517E+02  0.00000000000E+00 0.  1.
         23    2    1    2    0    0  0.35532289448E+02  0.23039187549E+02  0.71821988103E+02  0.12362695752E+03  0.91279126283E+02 0.  0.
          5    1    1    2  502    0  0.16490256984E+02  0.41776900837E+02  0.20019535892E+03  0.20522550951E+03  0.47000000000E+01 0.  1.
         -5    1    1    2    0  502 -0.52022546432E+02 -0.64816088386E+02  0.22048737477E+03  0.23567826179E+03  0.47000000000E+01 0.  1.
        -11    1    3    3    0    0  0.34549858692E+02  0.36736231718E+02  0.88599185785E+02  0.10194635441E+03  0.00000000000E+00 0. -1.
         11    1    3    3    0    0  0.98243075536E+00 -0.13697044169E+02 -0.16777197681E+02  0.21680603109E+02  0.00000000000E+00 0.  1.
<mgrwt>
<rscale>  0 0.12333575E+03</rscale>
<asrwt>0</asrwt>
<pdfrwt beam="2">  1        2 0.55404624E-02 0.13199308E+03</pdfrwt>
<pdfrwt beam="1">  1       -2 0.81310414E-01 0.13199308E+03</pdfrwt>
<totfact> 0.18127950E+03</totfact>
</mgrwt>
</event>
<event>
 7    1  0.5107591E-006  0.1331587E+03  0.7546771E-02  0.1229724E+00
         -1   -1    0    0    0  501 -0.00000000000E+00  0.00000000000E+00  0.28945684628E+03  0.28945684628E+03  0.00000000000E+00 0.  1.
          1   -1    0    0  501    0  0.00000000000E+00 -0.00000000000E+00 -0.55435626482E+02  0.55435626482E+02  0.00000000000E+00 0. -1.
         23    2    1    2    0    0  0.68274592965E+02 -0.10902768232E+02  0.75745067825E+02  0.13805297566E+03  0.92417630286E+02 0.  0.
          5    1    1    2  502    0  0.10916720191E+02  0.35530078402E+02  0.13305924399E+02  0.39758003913E+02  0.47000000000E+01 0. -1.
         -5    1    1    2    0  502 -0.79191313156E+02 -0.24627310170E+02  0.14497022758E+03  0.16708149320E+03  0.47000000000E+01 0.  1.
        -11    1    3    3    0    0 -0.19284383244E+02  0.17954103286E+01  0.36383360839E+02  0.41217227967E+02  0.00000000000E+00 0.  1.
         11    1    3    3    0    0  0.87558976208E+02 -0.12698178561E+02  0.39361706986E+02  0.96835747688E+02  0.00000000000E+00 0. -1.
<mgrwt>
<rscale>  0 0.12848295E+03</rscale>
<asrwt>0</asrwt>
<pdfrwt beam="2">  1        1 0.85285581E-02 0.13315869E+03</pdfrwt>
<pdfrwt beam="1">  1       -1 0.44531822E-01 0.13315869E+03</pdfrwt>
<totfact> 0.38809543E+03</totfact>
</mgrwt>
</event>
<event>
 7    1  0.5107591E-006  0.1739023E+03  0.7546771E-02  0.1175240E+00
         -1   -1    0    0    0  501 -0.00000000000E+00  0.00000000000E+00  0.35686576193E+02  0.35686576193E+02  0.00000000000E+00 0.  1.
          1   -1    0    0  501    0  0.00000000000E+00 -0.00000000000E+00 -0.87193831270E+03  0.87193831270E+03  0.00000000000E+00 0. -1.
         23    2    1    2    0    0  0.11180156107E+03  0.47245867819E+02 -0.52141542744E+03  0.54795294763E+03  0.11681876457E+03 0.  0.
          5    1    1    2  502    0 -0.10014974553E+03 -0.54647249037E+02 -0.32325814212E+03  0.34283262651E+03  0.47000000000E+01 0. -1.
         -5    1    1    2    0  502 -0.11651815538E+02  0.74013812188E+01  0.84218330541E+01  0.16839314750E+02  0.47000000000E+01 0.  1.
        -11    1    3    3    0    0  0.12884113739E+03  0.64349741963E+02 -0.43443964486E+03  0.45768846719E+03  0.00000000000E+00 0. -1.
         11    1    3    3    0    0 -0.17039576327E+02 -0.17103874144E+02 -0.86975782583E+02  0.90264480434E+02  0.00000000000E+00 0.  1.
<mgrwt>
<rscale>  0 0.17252515E+03</rscale>
<asrwt>0</asrwt>
<pdfrwt beam="2">  1        1 0.13414437E+00 0.17390228E+03</pdfrwt>
<pdfrwt beam="1">  1       -1 0.54902420E-02 0.17390228E+03</pdfrwt>
<totfact> 0.30386650E+03</totfact>
</mgrwt>
</event>
<event>
 7    1  0.5107591E-006  0.1298993E+03  0.7546771E-02  0.1241279E+00
         -1   -1    0    0    0  501 -0.00000000000E+00  0.00000000000E+00  0.18336377267E+03  0.18336377267E+03  0.00000000000E+00 0.  1.
          1   -1    0    0  501    0  0.00000000000E+00 -0.00000000000E+00 -0.77509353333E+02  0.77509353333E+02  0.00000000000E+00 0. -1.
         23    2    1    2    0    0  0.35345370492E+02  0.12562547630E+01  0.84521694223E+01  0.98512303103E+02  0.91555236352E+02 0.  0.
          5    1    1    2  502    0  0.31060610193E+02  0.45831182291E+01 -0.12184821851E+02  0.34004799099E+02  0.47000000000E+01 0. -1.
         -5    1    1    2    0  502 -0.66405980685E+02 -0.58393729921E+01  0.10958707176E+03  0.12835602380E+03  0.47000000000E+01 0. -1.
        -11    1    3    3    0    0  0.73181508196E+00 -0.14041532436E+02 -0.36874710185E+02  0.39464470575E+02  0.00000000000E+00 0. -1.
         11    1    3    3    0    0  0.34613555410E+02  0.15297787199E+02  0.45326879608E+02  0.59047832528E+02  0.00000000000E+00 0.  1.
<mgrwt>
<rscale>  0 0.12110909E+03</rscale>
<asrwt>0</asrwt>
<pdfrwt beam="2">  1        1 0.11924516E-01 0.12989934E+03</pdfrwt>
<pdfrwt beam="1">  1       -1 0.28209811E-01 0.12989934E+03</pdfrwt>
<totfact> 0.54527749E+03</totfact>
</mgrwt>
</event>
<event>
 7    1  0.5107591E-006  0.1358789E+03  0.7546771E-02  0.1231416E+00
         -1   -1    0    0    0  501 -0.00000000000E+00  0.00000000000E+00  0.10341832100E+03  0.10341832100E+03  0.00000000000E+00 0.  1.
          1   -1    0    0  501    0  0.00000000000E+00 -0.00000000000E+00 -0.14689828641E+03  0.14689828641E+03  0.00000000000E+00 0. -1.
         23    2    1    2    0    0 -0.51434682476E+02 -0.13869586558E+02 -0.45697851308E+02  0.11441960683E+03  0.90364046056E+02 0.  0.
          5    1    1    2  502    0 -0.28627856041E+02  0.34540924568E+02 -0.21181452710E+02  0.49833458142E+02  0.47000000000E+01 0.  1.
         -5    1    1    2    0  502  0.80062538517E+02 -0.20671338010E+02  0.23399338609E+02  0.86063542434E+02  0.47000000000E+01 0.  1.
        -11    1    3    3    0    0 -0.64482558507E+02 -0.12453320741E+02 -0.64130273222E+02  0.91792033927E+02  0.00000000000E+00 0. -1.
         11    1    3    3    0    0  0.13047876031E+02 -0.14162658174E+01  0.18432421913E+02  0.22627572900E+02  0.00000000000E+00 0.  1.
<mgrwt>
<rscale>  0 0.12736662E+03</rscale>
<asrwt>0</asrwt>
<pdfrwt beam="2">  1        1 0.22599736E-01 0.13587890E+03</pdfrwt>
<pdfrwt beam="1">  1       -1 0.15910511E-01 0.13587890E+03</pdfrwt>
<totfact> 0.60614220E+03</totfact>
</mgrwt>
</event>
<event>
 7    1  0.5107591E-006  0.1772449E+03  0.7546771E-02  0.1183968E+00
          2   -1    0    0  501    0  0.00000000000E+00  0.00000000000E+00  0.11599094938E+04  0.11599094938E+04  0.00000000000E+00 0. -1.
         -2   -1    0    0    0  501 -0.00000000000E+00 -0.00000000000E+00 -0.20607805987E+02  0.20607805987E+02  0.00000000000E+00 0.  1.
         23    2    1    2    0    0 -0.30961509200E+02  0.71118343443E+02  0.43247033812E+03  0.45180177305E+03  0.10525119932E+03 0.  0.
          5    1    1    2  502    0  0.46864050913E+02 -0.10199266925E+03  0.66370142117E+03  0.67314219175E+03  0.47000000000E+01 0. -1.
         -5    1    1    2    0  502 -0.15902541712E+02  0.30874325809E+02  0.43129928551E+02  0.55573335008E+02  0.47000000000E+01 0.  1.
        -11    1    3    3    0    0  0.35103474874E+02  0.37631161987E+02  0.24255621665E+03  0.24795539223E+03  0.00000000000E+00 0.  1.
         11    1    3    3    0    0 -0.66064984074E+02  0.33487181456E+02  0.18991412146E+03  0.20384638082E+03  0.00000000000E+00 0. -1.
<mgrwt>
<rscale>  0 0.16426181E+03</rscale>
<asrwt>0</asrwt>
<pdfrwt beam="1">  1        2 0.17844756E+00 0.17724492E+03</pdfrwt>
<pdfrwt beam="2">  1       -2 0.31704326E-02 0.17724492E+03</pdfrwt>
<totfact> 0.80756568E+03</totfact>
</mgrwt>
</event>
<event>
 7    1  0.5107591E-006  0.3348444E+03  0.7546771E-02  0.1070280E+00
          2   -1    0    0  501    0  0.00000000000E+00  0.00000000000E+00  0.13459754404E+04  0.13459754404E+04  0.00000000000E+00 0. -1.
         -2   -1    0    0    0  501 -0.00000000000E+00 -0.00000000000E+00 -0.11027521680E+03  0.11027521680E+03  0.00000000000E+00 0.  1.
         23    2    1    2    0    0 -0.21657141681E+03 -0.22269421278E+03  0.98846540778E+03  0.10400225371E+04  0.89928439567E+02 0.  0.
          5    1    1    2  502    0  0.56527645072E+02  0.61239393823E+02  0.44523768407E+01  0.83591576566E+02  0.47000000000E+01 0.  1.
         -5    1    1    2    0  502  0.16004377174E+03  0.16145481896E+03  0.24278243895E+03  0.33263654354E+03  0.47000000000E+01 0.  1.
        -11    1    3    3    0    0 -0.83083232584E+02 -0.12802160799E+03  0.36926805885E+03  0.39956383086E+03  0.00000000000E+00 0.  1.
         11    1    3    3    0    0 -0.13348818423E+03 -0.94672604787E+02  0.61919734893E+03  0.64045870620E+03  0.00000000000E+00 0. -1.
<mgrwt>
<rscale>  0 0.33194410E+03</rscale>
<asrwt>0</asrwt>
<pdfrwt beam="1">  1        2 0.20707313E+00 0.33484443E+03</pdfrwt>
<pdfrwt beam="2">  1       -2 0.16965419E-01 0.33484443E+03</pdfrwt>
<totfact> 0.45961549E+02</totfact>
</mgrwt>
</event>
<event>
 7    1  0.5107591E-006  0.1306082E+03  0.7546771E-02  0.1240941E+00
         -2   -1    0    0    0  501 -0.00000000000E+00  0.00000000000E+00  0.37162191606E+02  0.37162191606E+02  0.00000000000E+00 0.  1.
          2   -1    0    0  501    0  0.00000000000E+00 -0.00000000000E+00 -0.38104703411E+03  0.38104703411E+03  0.00000000000E+00 0. -1.
         23    2    1    2    0    0  0.31186466524E+02  0.21417060950E+02 -0.20871399603E+03  0.23024739517E+03  0.89560284993E+02 0.  0.
          5    1    1    2  502    0 -0.77127623149E+02 -0.70287484913E+01 -0.10638616033E+03  0.13167451791E+03  0.47000000000E+01 0.  1.
         -5    1    1    2    0  502  0.45941156625E+02 -0.14388312459E+02 -0.28784686145E+02  0.56287312637E+02  0.47000000000E+01 0.  1.
        -11    1    3    3    0    0  0.15388301082E+02 -0.28894845317E+02 -0.13918176793E+03  0.14297998609E+03  0.00000000000E+00 0. -1.
         11    1    3    3    0    0  0.15798165442E+02  0.50311906267E+02 -0.69532228101E+02  0.87267409084E+02  0.00000000000E+00 0.  1.
<mgrwt>
<rscale>  0 0.12131656E+03</rscale>
<asrwt>0</asrwt>
<pdfrwt beam="2">  1        2 0.58622626E-01 0.13060816E+03</pdfrwt>
<pdfrwt beam="1">  1       -2 0.57172597E-02 0.13060816E+03</pdfrwt>
<totfact> 0.12644451E+04</totfact>
</mgrwt>
</event>
<event>
 7    1  0.5107591E-006  0.2169486E+03  0.7546771E-02  0.1136179E+00
         -1   -1    0    0    0  501 -0.00000000000E+00  0.00000000000E+00  0.29513147418E+03  0.29513147418E+03  0.00000000000E+00 0.  1.
          1   -1    0    0  501    0  0.00000000000E+00 -0.00000000000E+00 -0.39869272563E+02  0.39869272563E+02  0.00000000000E+00 0. -1.
         23    2    1    2    0    0  0.20037433689E+02 -0.83164153337E+01  0.92314596685E+02  0.12848679000E+03  0.86696072181E+02 0.  0.
          5    1    1    2  502    0 -0.59589317266E+02  0.39220495195E+02  0.66276987676E+02  0.97487758569E+02  0.47000000000E+01 0.  1.
         -5    1    1    2    0  502  0.39551883576E+02 -0.30904079861E+02  0.96670617257E+02  0.10902619817E+03  0.47000000000E+01 0.  1.
        -11    1    3    3    0    0 -0.24774179182E+02 -0.29965797040E+02  0.32494593365E+02  0.50671565442E+02  0.00000000000E+00 0. -1.
         11    1    3    3    0    0  0.44811612872E+02  0.21649381706E+02  0.59820003320E+02  0.77815224562E+02  0.00000000000E+00 0.  1.
<mgrwt>
<rscale>  0 0.21694863E+03</rscale>
<asrwt>0</asrwt>
<pdfrwt beam="2">  1        1 0.61337344E-02 0.21694863E+03</pdfrwt>
<pdfrwt beam="1">  1       -1 0.45404841E-01 0.21694863E+03</pdfrwt>
<totfact> 0.60353346E+03</totfact>
</mgrwt>
</event>
<event>
 7    1  0.5107591E-006  0.1562439E+03  0.7546771E-02  0.1201094E+00
         -1   -1    0    0    0  501 -0.00000000000E+00  0.00000000000E+00  0.12896194604E+03  0.12896194604E+03  0.00000000000E+00 0.  1.
          1   -1    0    0  501    0  0.00000000000E+00 -0.00000000000E+00 -0.31900119696E+03  0.31900119696E+03  0.00000000000E+00 0. -1.
         23    2    1    2    0    0 -0.81226406723E+02 -0.46788179998E+02 -0.24870091999E+03  0.28106991921E+03  0.91440083903E+02 0.  0.
          5    1    1    2  502    0  0.77652418340E+02 -0.53495272157E+01  0.78640689909E+02  0.11074729624E+03  0.47000000000E+01 0. -1.
         -5    1    1    2    0  502  0.35739883832E+01  0.52137707214E+02 -0.19979020830E+02  0.56145927544E+02  0.47000000000E+01 0. -1.
        -11    1    3    3    0    0 -0.45036146723E+02 -0.86565221465E+01 -0.21212674422E+03  0.21702752245E+03  0.00000000000E+00 0. -1.
         11    1    3    3    0    0 -0.36190260001E+02 -0.38131657852E+02 -0.36574175768E+02  0.64042396758E+02  0.00000000000E+00 0.  1.
<mgrwt>
<rscale>  0 0.14949597E+03</rscale>
<asrwt>0</asrwt>
<pdfrwt beam="2">  1        1 0.49077107E-01 0.15624390E+03</pdfrwt>
<pdfrwt beam="1">  1       -1 0.19840299E-01 0.15624390E+03</pdfrwt>
<totfact> 0.16335740E+03</totfact>
</mgrwt>
</event>
<event>
 7    1  0.5107591E-006  0.1698231E+03  0.7546771E-02  0.1181652E+00
          3   -1    0    0  501    0  0.00000000000E+00  0.00000000000E+00  0.98884253717E+02  0.98884253717E+02  0.00000000000E+00 0. -1.
         -3   -1    0    0    0  501 -0.00000000000E+00 -0.00000000000E+00 -0.28124683667E+03  0.28124683667E+03  0.00000000000E+00 0.  1.
         23    2    1    2    0    0 -0.78565583762E+02 -0.96141083137E+02 -0.48495657906E+02  0.16388993715E+03  0.95354202022E+02 0.  0.
          5    1    1    2  502    0 -0.28853985692E+02  0.11664348471E+02 -0.14185552138E+02  0.34524330624E+02  0.47000000000E+01 0. -1.
         -5    1    1    2    0  502  0.10741956945E+03  0.84476734667E+02 -0.11968137291E+03  0.18171682262E+03  0.47000000000E+01 0.  1.
        -11    1    3    3    0    0 -0.65710801972E+02 -0.11556307818E+03 -0.37452730757E+02  0.13811387177E+03  0.00000000000E+00 0. -1.
         11    1    3    3    0    0 -0.12854781790E+02  0.19421995042E+02 -0.11042927149E+02  0.25776065376E+02  0.00000000000E+00 0.  1.
<mgrwt>
<rscale>  0 0.16640303E+03</rscale>
<asrwt>0</asrwt>
<pdfrwt beam="1">  1        3 0.15212962E-01 0.16982309E+03</pdfrwt>
<pdfrwt beam="2">  1       -3 0.43268744E-01 0.16982309E+03</pdfrwt>
<totfact> 0.46164084E+02</totfact>
</mgrwt>
</event>
<event>
 7    1  0.5107591E-006  0.1490716E+03  0.7546771E-02  0.1210815E+00
         -1   -1    0    0    0  501 -0.00000000000E+00  0.00000000000E+00  0.78139929414E+03  0.78139929414E+03  0.00000000000E+00 0. -1.
          1   -1    0    0  501    0  0.00000000000E+00 -0.00000000000E+00 -0.28188364170E+02  0.28188364170E+02  0.00000000000E+00 0.  1.
         23    2    1    2    0    0  0.49515039609E+02 -0.64394150275E+02  0.18236781349E+03  0.21960103910E+03  0.91478146245E+02 0.  0.
          5    1    1    2  502    0  0.23515726791E+02  0.57592824203E+02  0.38700334605E+03  0.39199949319E+03  0.47000000000E+01 0.  1.
         -5    1    1    2    0  502 -0.73030766400E+02  0.68013260722E+01  0.18383977043E+03  0.19798712602E+03  0.47000000000E+01 0.  1.
        -11    1    3    3    0    0  0.60374190733E+02 -0.34042812352E+02  0.55765408842E+02  0.88959186163E+02  0.00000000000E+00 0.  1.
         11    1    3    3    0    0 -0.10859151123E+02 -0.30351337923E+02  0.12660240465E+03  0.13064185294E+03  0.00000000000E+00 0. -1.
<mgrwt>
<rscale>  0 0.14188504E+03</rscale>
<asrwt>0</asrwt>
<pdfrwt beam="2">  1        1 0.43366720E-02 0.14907162E+03</pdfrwt>
<pdfrwt beam="1">  1       -1 0.12021526E+00 0.14907162E+03</pdfrwt>
<totfact> 0.13122497E+03</totfact>
</mgrwt>
</event>
<event>
 7    1  0.5107591E-006  0.1578628E+03  0.7546771E-02  0.1198999E+00
          1   -1    0    0  501    0  0.00000000000E+00  0.00000000000E+00  0.34210000680E+03  0.34210000680E+03  0.00000000000E+00 0. -1.
         -1   -1    0    0    0  501 -0.00000000000E+00 -0.00000000000E+00 -0.69095698378E+02  0.69095698378E+02  0.00000000000E+00 0.  1.
         23    2    1    2    0    0  0.55233018647E+02  0.79026310988E+02  0.19273455488E+03  0.23409714157E+03  0.91427670150E+02 0.  0.
          5    1    1    2  502    0  0.21880773544E+02 -0.27416113546E+02  0.76295066944E+02  0.84103738162E+02  0.47000000000E+01 0.  1.
         -5    1    1    2    0  502 -0.77113792192E+02 -0.51610197442E+02  0.39746865964E+01  0.92994825446E+02  0.47000000000E+01 0.  1.
        -11    1    3    3    0    0  0.23247422997E+02  0.35618532597E+02  0.10164649832E+02  0.43731483471E+02  0.00000000000E+00 0. -1.
         11    1    3    3    0    0  0.31985595650E+02  0.43407778391E+02  0.18256990505E+03  0.19036565810E+03  0.00000000000E+00 0.  1.
<mgrwt>
<rscale>  0 0.15120562E+03</rscale>
<asrwt>0</asrwt>
<pdfrwt beam="1">  1        1 0.52630769E-01 0.15786281E+03</pdfrwt>
<pdfrwt beam="2">  1       -1 0.10630108E-01 0.15786281E+03</pdfrwt>
<totfact> 0.39904744E+03</totfact>
</mgrwt>
</event>
<event>
 7    1  0.5107591E-006  0.1372886E+03  0.7546771E-02  0.1229370E+00
          2   -1    0    0  501    0  0.00000000000E+00  0.00000000000E+00  0.74316341918E+03  0.74316341918E+03  0.00000000000E+00 0. -1.
         -2   -1    0    0    0  501 -0.00000000000E+00 -0.00000000000E+00 -0.21437701308E+02  0.21437701308E+02  0.00000000000E+00 0.  1.
         23    2    1    2    0    0 -0.55634192129E+01 -0.56501892014E+02  0.41861940899E+03  0.43185257980E+03  0.89615989956E+02 0.  0.
          5    1    1    2  502    0  0.26056761403E+02  0.29034159560E+02  0.14203671911E+02  0.41782430900E+02  0.47000000000E+01 0. -1.
         -5    1    1    2    0  502 -0.20493342190E+02  0.27467732454E+02  0.28890263697E+03  0.29096610979E+03  0.47000000000E+01 0. -1.
        -11    1    3    3    0    0  0.41903049602E+02 -0.30593531236E+02  0.19441658067E+03  0.20122036815E+03  0.00000000000E+00 0.  1.
         11    1    3    3    0    0 -0.47466468815E+02 -0.25908360778E+02  0.22420282832E+03  0.23063221164E+03  0.00000000000E+00 0. -1.
<mgrwt>
<rscale>  0 0.12871860E+03</rscale>
<asrwt>0</asrwt>
<pdfrwt beam="1">  1        2 0.11433281E+00 0.13728859E+03</pdfrwt>
<pdfrwt beam="2">  1       -2 0.32981085E-02 0.13728859E+03</pdfrwt>
<totfact> 0.13659127E+04</totfact>
</mgrwt>
</event>
<event>
 7    1  0.5107591E-006  0.1361936E+03  0.7546771E-02  0.1233075E+00
         -3   -1    0    0    0  501 -0.00000000000E+00  0.00000000000E+00  0.13166088318E+03  0.13166088318E+03  0.00000000000E+00 0.  1.
          3   -1    0    0  501    0  0.00000000000E+00 -0.00000000000E+00 -0.10672408986E+03  0.10672408986E+03  0.00000000000E+00 0. -1.
         23    2    1    2    0    0  0.17960321552E+02 -0.51013605733E+02  0.56850252107E+01  0.10083747102E+03  0.84917106225E+02 0.  0.
          5    1    1    2  502    0  0.16881150460E+02  0.74891585654E+02  0.43756504722E+02  0.88489799119E+02  0.47000000000E+01 0. -1.
         -5    1    1    2    0  502 -0.34841472013E+02 -0.23877979922E+02 -0.24504736621E+02  0.49057702902E+02  0.47000000000E+01 0. -1.
        -11    1    3    3    0    0  0.46318233850E+02 -0.53895661069E+02  0.10793869118E+02  0.71879264601E+02  0.00000000000E+00 0. -1.
         11    1    3    3    0    0 -0.28357912298E+02  0.28820553359E+01 -0.51088439075E+01  0.28958206418E+02  0.00000000000E+00 0.  1.
<mgrwt>
<rscale>  0 0.12628451E+03</rscale>
<asrwt>0</asrwt>
<pdfrwt beam="2">  1        3 0.16419091E-01 0.13619356E+03</pdfrwt>
<pdfrwt beam="1">  1       -3 0.20255521E-01 0.13619356E+03</pdfrwt>
<totfact> 0.16003541E+03</totfact>
</mgrwt>
</event>
<event>
 7    1  0.5107591E-006  0.1543165E+03  0.7546771E-02  0.1203920E+00
         -2   -1    0    0    0  501 -0.00000000000E+00  0.00000000000E+00  0.44509318916E+02  0.44509318916E+02  0.00000000000E+00 0.  1.
          2   -1    0    0  501    0  0.00000000000E+00 -0.00000000000E+00 -0.46757377687E+03  0.46757377687E+03  0.00000000000E+00 0. -1.
         23    2    1    2    0    0 -0.41087958411E+02  0.80634801643E+02 -0.24574289756E+03  0.27701603396E+03  0.90322310690E+02 0.  0.
          5    1    1    2  502    0  0.74460532527E+02 -0.13243902699E+02 -0.65114693586E+02  0.99908884408E+02  0.47000000000E+01 0. -1.
         -5    1    1    2    0  502 -0.33372574116E+02 -0.67390898944E+02 -0.11220686680E+03  0.13515817741E+03  0.47000000000E+01 0. -1.
        -11    1    3    3    0    0  0.19761036466E+01  0.74590658565E+02 -0.99032044773E+02  0.12399603712E+03  0.00000000000E+00 0.  1.
         11    1    3    3    0    0 -0.43064062058E+02  0.60441430786E+01 -0.14671085279E+03  0.15301999684E+03  0.00000000000E+00 0. -1.
<mgrwt>
<rscale>  0 0.14722902E+03</rscale>
<asrwt>0</asrwt>
<pdfrwt beam="2">  1        2 0.71934427E-01 0.15431652E+03</pdfrwt>
<pdfrwt beam="1">  1       -2 0.68475875E-02 0.15431652E+03</pdfrwt>
<totfact> 0.77991051E+03</totfact>
</mgrwt>
</event>
<event>
 7    1  0.5107591E-006  0.1547481E+03  0.7546771E-02  0.1215993E+00
          2   -1    0    0  501    0  0.00000000000E+00  0.00000000000E+00  0.50697638244E+03  0.50697638244E+03  0.00000000000E+00 0. -1.
         -2   -1    0    0    0  501 -0.00000000000E+00 -0.00000000000E+00 -0.31495500741E+02  0.31495500741E+02  0.00000000000E+00 0.  1.
         23    2    1    2    0    0 -0.29297187973E+02 -0.13366429481E+02  0.18478796826E+03  0.20915542247E+03  0.92533296033E+02 0.  0.
          5    1    1    2  502    0  0.24812878571E+02  0.55345282441E+02  0.27857951485E+03  0.28514455163E+03  0.47000000000E+01 0. -1.
         -5    1    1    2    0  502  0.44843094022E+01 -0.41978852960E+02  0.12113398595E+02  0.44171909084E+02  0.47000000000E+01 0.  1.
        -11    1    3    3    0    0 -0.59225240557E+02  0.94746960666E+01  0.10478027638E+03  0.12073237057E+03  0.00000000000E+00 0.  1.
         11    1    3    3    0    0  0.29928052584E+02 -0.22841125548E+02  0.80007691883E+02  0.88423051905E+02  0.00000000000E+00 0. -1.
<mgrwt>
<rscale>  0 0.13803824E+03</rscale>
<asrwt>0</asrwt>
<pdfrwt beam="1">  1        2 0.77996360E-01 0.15474806E+03</pdfrwt>
<pdfrwt beam="2">  1       -2 0.48454620E-02 0.15474806E+03</pdfrwt>
<totfact> 0.12064567E+04</totfact>
</mgrwt>
</event>
<event>
 7    1  0.5107591E-006  0.2582443E+03  0.7546771E-02  0.1110444E+00
         -1   -1    0    0    0  501 -0.00000000000E+00  0.00000000000E+00  0.79470154057E+02  0.79470154057E+02  0.00000000000E+00 0.  1.
          1   -1    0    0  501    0  0.00000000000E+00 -0.00000000000E+00 -0.79400060413E+03  0.79400060413E+03  0.00000000000E+00 0. -1.
         23    2    1    2    0    0 -0.18473300537E+03  0.13014627090E+03 -0.36078515036E+03  0.43549145134E+03  0.91774421095E+02 0.  0.
          5    1    1    2  502    0  0.10615858773E+03 -0.78736135610E+00 -0.16011253246E+03  0.19216757983E+03  0.47000000000E+01 0.  1.
         -5    1    1    2    0  502  0.78574417640E+02 -0.12935890955E+03 -0.19363276725E+03  0.24581172702E+03  0.47000000000E+01 0.  1.
        -11    1    3    3    0    0 -0.92729162229E+02  0.10956031717E+03 -0.16857080723E+03  0.22140071742E+03  0.00000000000E+00 0.  1.
         11    1    3    3    0    0 -0.92003843139E+02  0.20585953735E+02 -0.19221434313E+03  0.21409073392E+03  0.00000000000E+00 0. -1.
<mgrwt>
<rscale>  0 0.25458086E+03</rscale>
<asrwt>0</asrwt>
<pdfrwt beam="2">  1        1 0.12215394E+00 0.25824433E+03</pdfrwt>
<pdfrwt beam="1">  1       -1 0.12226177E-01 0.25824433E+03</pdfrwt>
<totfact> 0.10387354E+03</totfact>
</mgrwt>
</event>
<event>
 7    1  0.5107591E-006  0.1541415E+03  0.7546771E-02  0.1203875E+00
         -1   -1    0    0    0  501 -0.00000000000E+00  0.00000000000E+00  0.95961139832E+03  0.95961139832E+03  0.00000000000E+00 0.  1.
          1   -1    0    0  501    0  0.00000000000E+00 -0.00000000000E+00 -0.20948449686E+02  0.20948449686E+02  0.00000000000E+00 0. -1.
         23    2    1    2    0    0 -0.44390562979E+02 -0.78516754750E+02  0.38590110590E+03  0.40670859528E+03  0.91415617266E+02 0.  0.
          5    1    1    2  502    0  0.13454835758E+02  0.10609080439E+03  0.32130729935E+03  0.33866910399E+03  0.47000000000E+01 0. -1.
         -5    1    1    2    0  502  0.30935727221E+02 -0.27574049640E+02  0.23145454338E+03  0.23518214874E+03  0.47000000000E+01 0. -1.
        -11    1    3    3    0    0  0.15925599887E+02  0.11793511985E+02  0.60853769467E+02  0.63999163393E+02  0.00000000000E+00 0.  1.
         11    1    3    3    0    0 -0.60316162866E+02 -0.90310266735E+02  0.32504733644E+03  0.34270943189E+03  0.00000000000E+00 0. -1.
<mgrwt>
<rscale>  0 0.14726502E+03</rscale>
<asrwt>0</asrwt>
<pdfrwt beam="2">  1        1 0.32228392E-02 0.15414151E+03</pdfrwt>
<pdfrwt beam="1">  1       -1 0.14763249E+00 0.15414151E+03</pdfrwt>
<totfact> 0.11940233E+03</totfact>
</mgrwt>
</event>
<event>
 7    1  0.5107591E-006  0.1427606E+03  0.7546771E-02  0.1220312E+00
         -2   -1    0    0    0  501 -0.00000000000E+00  0.00000000000E+00  0.27910745871E+02  0.27910745871E+02  0.00000000000E+00 0. -1.
          2   -1    0    0  501    0  0.00000000000E+00 -0.00000000000E+00 -0.60316016233E+03  0.60316016233E+03  0.00000000000E+00 0.  1.
         23    2    1    2    0    0  0.58797558636E+02 -0.36037318212E+02 -0.30194153289E+03  0.32272405498E+03  0.90698870836E+02 0.  0.
          5    1    1    2  502    0 -0.39043797689E+02 -0.36592979128E+02 -0.18284105125E+03  0.19056863405E+03  0.47000000000E+01 0. -1.
         -5    1    1    2    0  502 -0.19753760947E+02  0.72630297340E+02 -0.90466832315E+02  0.11777821918E+03  0.47000000000E+01 0. -1.
        -11    1    3    3    0    0  0.56739177088E+02 -0.50129771213E+02 -0.29866212032E+03  0.30810938040E+03  0.00000000000E+00 0.  1.
         11    1    3    3    0    0  0.20583815488E+01  0.14092453001E+02 -0.32794125748E+01  0.14614674578E+02  0.00000000000E+00 0. -1.
<mgrwt>
<rscale>  0 0.13493495E+03</rscale>
<asrwt>0</asrwt>
<pdfrwt beam="2">  1        2 0.92793867E-01 0.14276058E+03</pdfrwt>
<pdfrwt beam="1">  1       -2 0.42939611E-02 0.14276058E+03</pdfrwt>
<totfact> 0.11830909E+04</totfact>
</mgrwt>
</event>
<event>
 7    1  0.5107591E-006  0.1303556E+03  0.7546771E-02  0.1241500E+00
         -1   -1    0    0    0  501 -0.00000000000E+00  0.00000000000E+00  0.64708920644E+02  0.64708920644E+02  0.00000000000E+00 0.  1.
          1   -1    0    0  501    0  0.00000000000E+00 -0.00000000000E+00 -0.24133433208E+03  0.24133433208E+03  0.00000000000E+00 0. -1.
         23    2    1    2    0    0 -0.31655269641E+02  0.19129740161E+02 -0.14089433273E+03  0.17087931829E+03  0.89333786267E+02 0.  0.
          5    1    1    2  502    0  0.52993434158E+02  0.40239803995E+02 -0.23540923065E+02  0.70737620459E+02  0.47000000000E+01 0. -1.
         -5    1    1    2    0  502 -0.21338164517E+02 -0.59369544157E+02 -0.12190155646E+02  0.64426313980E+02  0.47000000000E+01 0. -1.
        -11    1    3    3    0    0 -0.49752154215E+02  0.86671789845E+01 -0.31531882461E+02  0.59537017494E+02  0.00000000000E+00 0.  1.
         11    1    3    3    0    0  0.18096884574E+02  0.10462561177E+02 -0.10936245026E+03  0.11134230079E+03  0.00000000000E+00 0. -1.
<mgrwt>
<rscale>  0 0.12097347E+03</rscale>
<asrwt>0</asrwt>
<pdfrwt beam="2">  1        1 0.37128359E-01 0.13035559E+03</pdfrwt>
<pdfrwt beam="1">  1       -1 0.99552186E-02 0.13035559E+03</pdfrwt>
<totfact> 0.67267833E+03</totfact>
</mgrwt>
</event>
<event>
 7    1  0.5107591E-006  0.1857944E+03  0.7546771E-02  0.1167386E+00
         -2   -1    0    0    0  501 -0.00000000000E+00  0.00000000000E+00  0.71796654283E+03  0.71796654283E+03  0.00000000000E+00 0.  1.
          2   -1    0    0  501    0  0.00000000000E+00 -0.00000000000E+00 -0.43228022137E+02  0.43228022137E+02  0.00000000000E+00 0. -1.
         23    2    1    2    0    0 -0.11612836766E+03  0.73546625112E+02  0.35031026839E+03  0.38733195956E+03  0.91727089329E+02 0.  0.
          5    1    1    2  502    0  0.96486328607E+01 -0.27034258905E+02  0.20542460679E+03  0.20747362807E+03  0.47000000000E+01 0. -1.
         -5    1    1    2    0  502  0.10647973480E+03 -0.46512366206E+02  0.11900364552E+03  0.16638897734E+03  0.47000000000E+01 0. -1.
        -11    1    3    3    0    0 -0.69155638658E+02  0.52118593373E+02  0.30989106973E+03  0.32176284004E+03  0.00000000000E+00 0.  1.
         11    1    3    3    0    0 -0.46972729005E+02  0.21428031739E+02  0.40419198663E+02  0.65569119522E+02  0.00000000000E+00 0. -1.
<mgrwt>
<rscale>  0 0.18043144E+03</rscale>
<asrwt>0</asrwt>
<pdfrwt beam="2">  1        2 0.66504655E-02 0.18579439E+03</pdfrwt>
<pdfrwt beam="1">  1       -2 0.11045638E+00 0.18579439E+03</pdfrwt>
<totfact> 0.72337143E+02</totfact>
</mgrwt>
</event>
<event>
 7    1  0.5107591E-006  0.1380407E+03  0.7546771E-02  0.1227257E+00
         -2   -1    0    0    0  501 -0.00000000000E+00  0.00000000000E+00  0.28760481753E+02  0.28760481753E+02  0.00000000000E+00 0.  1.
          2   -1    0    0  501    0  0.00000000000E+00 -0.00000000000E+00 -0.53587868848E+03  0.53587868848E+03  0.00000000000E+00 0. -1.
         23    2    1    2    0    0  0.45460070980E+02  0.36913184081E+02 -0.25186159338E+03  0.27444757228E+03  0.91967420845E+02 0.  0.
          5    1    1    2  502    0 -0.70102990099E+02 -0.65905518461E+02 -0.20884757686E+03  0.22999427590E+03  0.47000000000E+01 0. -1.
         -5    1    1    2    0  502  0.24642919119E+02  0.28992334380E+02 -0.46409036482E+02  0.60197322056E+02  0.47000000000E+01 0. -1.
        -11    1    3    3    0    0 -0.21229893879E+02  0.36191838945E+02 -0.86375880533E+02  0.96027862301E+02  0.00000000000E+00 0. -1.
         11    1    3    3    0    0  0.66689964859E+02  0.72134513604E+00 -0.16548571285E+03  0.17841970998E+03  0.00000000000E+00 0.  1.
<mgrwt>
<rscale>  0 0.13013384E+03</rscale>
<asrwt>0</asrwt>
<pdfrwt beam="2">  1        2 0.82442865E-01 0.13804066E+03</pdfrwt>
<pdfrwt beam="1">  1       -2 0.44246901E-02 0.13804066E+03</pdfrwt>
<totfact> 0.12893382E+04</totfact>
</mgrwt>
</event>
<event>
 7    1  0.5107591E-006  0.1252718E+03  0.7546771E-02  0.1250809E+00
         -1   -1    0    0    0  501 -0.00000000000E+00  0.00000000000E+00  0.22403313336E+03  0.22403313336E+03  0.00000000000E+00 0.  1.
          1   -1    0    0  501    0  0.00000000000E+00 -0.00000000000E+00 -0.89280435355E+02  0.89280435355E+02  0.00000000000E+00 0. -1.
         23    2    1    2    0    0  0.33078007763E+01  0.75535687964E+01 -0.39581978393E+02  0.98637994611E+02  0.89970678667E+02 0.  0.
          5    1    1    2  502    0 -0.47696739668E+02  0.16124267925E+02  0.23802382927E+02  0.55889305096E+02  0.47000000000E+01 0.  1.
         -5    1    1    2    0  502  0.44388938892E+02 -0.23677836721E+02  0.15053229347E+03  0.15878626901E+03  0.47000000000E+01 0.  1.
        -11    1    3    3    0    0 -0.25635809647E+02 -0.32082721315E+02 -0.21319759748E+02  0.46271242678E+02  0.00000000000E+00 0.  1.
         11    1    3    3    0    0  0.28943610423E+02  0.39636290112E+02 -0.18262218646E+02  0.52366751933E+02  0.00000000000E+00 0. -1.
<mgrwt>
<rscale>  0 0.11544346E+03</rscale>
<asrwt>0</asrwt>
<pdfrwt beam="2">  1        1 0.13735452E-01 0.12527180E+03</pdfrwt>
<pdfrwt beam="1">  1       -1 0.34466636E-01 0.12527180E+03</pdfrwt>
<totfact> 0.32272616E+03</totfact>
</mgrwt>
</event>
<event>
 7    1  0.5107591E-006  0.2089857E+03  0.7546771E-02  0.1146320E+00
         -2   -1    0    0    0  501 -0.00000000000E+00  0.00000000000E+00  0.96696486822E+02  0.96696486822E+02  0.00000000000E+00 0.  1.
          2   -1    0    0  501    0  0.00000000000E+00 -0.00000000000E+00 -0.41977858998E+03  0.41977858998E+03  0.00000000000E+00 0. -1.
         23    2    1    2    0    0 -0.11024529723E+02  0.16711507111E+03 -0.11862744662E+03  0.22411107317E+03  0.90023967787E+02 0.  0.
          5    1    1    2  502    0 -0.33332843380E+02 -0.94352722275E+02 -0.41542524447E+02  0.10844992386E+03  0.47000000000E+01 0. -1.
         -5    1    1    2    0  502  0.44357373103E+02 -0.72762348835E+02 -0.16291213209E+03  0.18391407978E+03  0.47000000000E+01 0. -1.
        -11    1    3    3    0    0  0.87020887313E+00  0.27091765043E+02 -0.70564588179E+02  0.75591547818E+02  0.00000000000E+00 0. -1.
         11    1    3    3    0    0 -0.11894738597E+02  0.14002330607E+03 -0.48062858441E+02  0.14851952535E+03  0.00000000000E+00 0.  1.
<mgrwt>
<rscale>  0 0.20410604E+03</rscale>
<asrwt>0</asrwt>
<pdfrwt beam="2">  1        2 0.64581320E-01 0.20898566E+03</pdfrwt>
<pdfrwt beam="1">  1       -2 0.14876383E-01 0.20898566E+03</pdfrwt>
<totfact> 0.25990670E+03</totfact>
</mgrwt>
</event>
<event>
 7    1  0.5107591E-006  0.1348139E+03  0.7546771E-02  0.1232601E+00
          1   -1    0    0  501    0  0.00000000000E+00  0.00000000000E+00  0.30864731025E+03  0.30864731025E+03  0.00000000000E+00 0. -1.
         -1   -1    0    0    0  501 -0.00000000000E+00 -0.00000000000E+00 -0.56283225040E+02  0.56283225040E+02  0.00000000000E+00 0.  1.
         23    2    1    2    0    0  0.47634599043E+02 -0.16761781577E+02  0.18866327714E+03  0.21582456846E+03  0.91849876774E+02 0.  0.
          5    1    1    2  502    0 -0.31007826206E+02  0.55141084756E+02 -0.10013986706E+02  0.64221448471E+02  0.47000000000E+01 0.  1.
         -5    1    1    2    0  502 -0.16626772837E+02 -0.38379303178E+02  0.73714794773E+02  0.84884518352E+02  0.47000000000E+01 0.  1.
        -11    1    3    3    0    0  0.34102973208E+02  0.12894425905E+02  0.15495721827E+02  0.39615607985E+02  0.00000000000E+00 0.  1.
         11    1    3    3    0    0  0.13531625835E+02 -0.29656207482E+02  0.17316755531E+03  0.17620896048E+03  0.00000000000E+00 0. -1.
<mgrwt>
<rscale>  0 0.12659253E+03</rscale>
<asrwt>0</asrwt>
<pdfrwt beam="1">  1        1 0.47484200E-01 0.13481393E+03</pdfrwt>
<pdfrwt beam="2">  1       -1 0.86589579E-02 0.13481393E+03</pdfrwt>
<totfact> 0.61487625E+03</totfact>
</mgrwt>
</event>
<event>
 7    1  0.5107591E-006  0.1268967E+03  0.7546771E-02  0.1246975E+00
         -2   -1    0    0    0  501 -0.00000000000E+00  0.00000000000E+00  0.66978562179E+02  0.66978562179E+02  0.00000000000E+00 0.  1.
          2   -1    0    0  501    0  0.00000000000E+00 -0.00000000000E+00 -0.34133162165E+03  0.34133162165E+03  0.00000000000E+00 0. -1.
         23    2    1    2    0    0 -0.19839896650E+01  0.21714818111E+02 -0.26493145350E+03  0.28106421468E+03  0.91284983332E+02 0.  0.
          5    1    1    2  502    0  0.35489310102E+02 -0.58543528928E+02 -0.27697745856E+02  0.74000615108E+02  0.47000000000E+01 0. -1.
         -5    1    1    2    0  502 -0.33505320437E+02  0.36828710817E+02  0.18276139881E+02  0.53245354041E+02  0.47000000000E+01 0. -1.
        -11    1    3    3    0    0  0.41739081816E+02 -0.95904437546E-02 -0.86033216640E+02  0.95623560947E+02  0.00000000000E+00 0. -1.
         11    1    3    3    0    0 -0.43723071481E+02  0.21724408554E+02 -0.17889823686E+03  0.18544065373E+03  0.00000000000E+00 0.  1.
<mgrwt>
<rscale>  0 0.11767927E+03</rscale>
<asrwt>0</asrwt>
<pdfrwt beam="2">  1        2 0.52512557E-01 0.12689669E+03</pdfrwt>
<pdfrwt beam="1">  1       -2 0.10304394E-01 0.12689669E+03</pdfrwt>
<totfact> 0.57278919E+03</totfact>
</mgrwt>
</event>
<event>
 7    1  0.5107591E-006  0.1845239E+03  0.7546771E-02  0.1168615E+00
          3   -1    0    0  501    0  0.00000000000E+00  0.00000000000E+00  0.10110387873E+03  0.10110387873E+03  0.00000000000E+00 0. -1.
         -3   -1    0    0    0  501 -0.00000000000E+00 -0.00000000000E+00 -0.71396401439E+03  0.71396401439E+03  0.00000000000E+00 0.  1.
         23    2    1    2    0    0  0.80642320637E+02  0.10918077070E+03  0.11121895219E+02  0.16437391699E+03  0.92040553380E+02 0.  0.
          5    1    1    2  502    0 -0.59089158093E+02 -0.13622344791E+03 -0.47558185856E+03  0.49824547218E+03  0.47000000000E+01 0.  1.
         -5    1    1    2    0  502 -0.21553162544E+02  0.27042677212E+02 -0.14840017233E+03  0.15244850394E+03  0.47000000000E+01 0.  1.
        -11    1    3    3    0    0  0.72125437868E+02  0.20959845585E+02  0.96861549793E+01  0.75731205674E+02  0.00000000000E+00 0. -1.
         11    1    3    3    0    0  0.85168827689E+01  0.88220925114E+02  0.14357402397E+01  0.88642711320E+02  0.00000000000E+00 0.  1.
<mgrwt>
<rscale>  0 0.17916312E+03</rscale>
<asrwt>0</asrwt>
<pdfrwt beam="1">  1        3 0.15554442E-01 0.18452392E+03</pdfrwt>
<pdfrwt beam="2">  1       -3 0.10984062E+00 0.18452392E+03</pdfrwt>
<totfact> 0.61598009E+01</totfact>
</mgrwt>
</event>
<event>
 7    1  0.5107591E-006  0.1367571E+03  0.7546771E-02  0.1229487E+00
         -4   -1    0    0    0  501 -0.00000000000E+00  0.00000000000E+00  0.14755779915E+03  0.14755779915E+03  0.00000000000E+00 0.  1.
          4   -1    0    0  501    0  0.00000000000E+00 -0.00000000000E+00 -0.17053756490E+03  0.17053756490E+03  0.00000000000E+00 0. -1.
         23    2    1    2    0    0 -0.10969734367E+02  0.54377585312E+02 -0.11197941915E+03  0.15492840729E+03  0.91576002405E+02 0.  0.
          5    1    1    2  502    0 -0.44343993124E+02 -0.44950520587E+02  0.85980032034E+02  0.10677825123E+03  0.47000000000E+01 0.  1.
         -5    1    1    2    0  502  0.55313727491E+02 -0.94270647253E+01  0.30196213702E+01  0.56388705531E+02  0.47000000000E+01 0.  1.
        -11    1    3    3    0    0 -0.28652772251E+02  0.51622552273E+02 -0.21716549591E+02  0.62908487400E+02  0.00000000000E+00 0.  1.
         11    1    3    3    0    0  0.17683037884E+02  0.27550330396E+01 -0.90262869562E+02  0.92019919895E+02  0.00000000000E+00 0. -1.
<mgrwt>
<rscale>  0 0.12864023E+03</rscale>
<asrwt>0</asrwt>
<pdfrwt beam="2">  1        4 0.26236548E-01 0.13675715E+03</pdfrwt>
<pdfrwt beam="1">  1       -4 0.22701200E-01 0.13675715E+03</pdfrwt>
<totfact> 0.40783391E+02</totfact>
</mgrwt>
</event>
<event>
 7    1  0.5107591E-006  0.1399531E+03  0.7546771E-02  0.1223969E+00
          2   -1    0    0  501    0  0.00000000000E+00  0.00000000000E+00  0.49986893820E+02  0.49986893820E+02  0.00000000000E+00 0. -1.
         -2   -1    0    0    0  501 -0.00000000000E+00 -0.00000000000E+00 -0.31772023171E+03  0.31772023171E+03  0.00000000000E+00 0.  1.
         23    2    1    2    0    0 -0.29525869405E+02  0.55582715718E+02 -0.12325155439E+03  0.16655579878E+03  0.92675094799E+02 0.  0.
          5    1    1    2  502    0  0.34667968710E+02 -0.81769636614E+02 -0.14914975878E+03  0.17365449050E+03  0.47000000000E+01 0. -1.
         -5    1    1    2    0  502 -0.51420993052E+01  0.26186920896E+02  0.46679752717E+01  0.27496836262E+02  0.47000000000E+01 0. -1.
        -11    1    3    3    0    0 -0.61308075695E+02  0.42984757513E+02 -0.10114235776E+03  0.12584175006E+03  0.00000000000E+00 0.  1.
         11    1    3    3    0    0  0.31782206290E+02  0.12597958205E+02 -0.22109196625E+02  0.40714048718E+02  0.00000000000E+00 0. -1.
<mgrwt>
<rscale>  0 0.13237832E+03</rscale>
<asrwt>0</asrwt>
<pdfrwt beam="1">  1        2 0.76902913E-02 0.13995310E+03</pdfrwt>
<pdfrwt beam="2">  1       -2 0.48880036E-01 0.13995310E+03</pdfrwt>
<totfact> 0.34447241E+03</totfact>
</mgrwt>
</event>
<event>
 7    1  0.5107591E-006  0.1293275E+03  0.7546771E-02  0.1242752E+00
         -1   -1    0    0    0  501 -0.00000000000E+00  0.00000000000E+00  0.39357445270E+02  0.39357445270E+02  0.00000000000E+00 0.  1.
          1   -1    0    0  501    0  0.00000000000E+00 -0.00000000000E+00 -0.32746403032E+03  0.32746403032E+03  0.00000000000E+00 0. -1.
         23    2    1    2    0    0  0.29507100135E+01  0.33042630633E+02 -0.14190925109E+03  0.17163117536E+03  0.90655957777E+02 0.  0.
          5    1    1    2  502    0  0.20427232268E+02  0.25477182299E+02 -0.12384146370E+03  0.12816066779E+03  0.47000000000E+01 0.  1.
         -5    1    1    2    0  502 -0.23377942281E+02 -0.58519812931E+02 -0.22355870259E+02  0.67029632446E+02  0.47000000000E+01 0.  1.
        -11    1    3    3    0    0  0.42672380933E+02  0.10143134074E+00 -0.82920623152E+02  0.93256485708E+02  0.00000000000E+00 0. -1.
         11    1    3    3    0    0 -0.39721670919E+02  0.32941199292E+02 -0.58988627937E+02  0.78374689647E+02  0.00000000000E+00 0.  1.
<mgrwt>
<rscale>  0 0.12020966E+03</rscale>
<asrwt>0</asrwt>
<pdfrwt beam="2">  1        1 0.50379080E-01 0.12932746E+03</pdfrwt>
<pdfrwt beam="1">  1       -1 0.60549917E-02 0.12932746E+03</pdfrwt>
<totfact> 0.97459217E+03</totfact>
</mgrwt>
</event>
<event>
 7    1  0.5107591E-006  0.1386499E+03  0.7546771E-02  0.1226831E+00
         -1   -1    0    0    0  501 -0.00000000000E+00  0.00000000000E+00  0.10302446556E+03  0.10302446556E+03  0.00000000000E+00 0.  1.
          1   -1    0    0  501    0  0.00000000000E+00 -0.00000000000E+00 -0.18832868122E+03  0.18832868122E+03  0.00000000000E+00 0. -1.
         23    2    1    2    0    0 -0.23132664301E+01  0.59947421493E+02 -0.10534062183E+03  0.15126297282E+03  0.90469861256E+02 0.  0.
          5    1    1    2  502    0  0.45339537998E+02 -0.71341243574E+00  0.43555236315E+02  0.63050228181E+02  0.47000000000E+01 0.  1.
         -5    1    1    2    0  502 -0.43026271567E+02 -0.59234009057E+02 -0.23518830141E+02  0.77039945776E+02  0.47000000000E+01 0.  1.
        -11    1    3    3    0    0 -0.11321506910E+02  0.76132730799E+02 -0.10792518389E+03  0.13256022984E+03  0.00000000000E+00 0. -1.
         11    1    3    3    0    0  0.90082404803E+01 -0.16185309306E+02  0.25845620680E+01  0.18702742980E+02  0.00000000000E+00 0.  1.
<mgrwt>
<rscale>  0 0.13042191E+03</rscale>
<asrwt>0</asrwt>
<pdfrwt beam="2">  1        1 0.28973643E-01 0.13864992E+03</pdfrwt>
<pdfrwt beam="1">  1       -1 0.15849918E-01 0.13864992E+03</pdfrwt>
<totfact> 0.44710452E+03</totfact>
</mgrwt>
</event>
<event>
 7    1  0.5107591E-006  0.1260773E+03  0.7546771E-02  0.1247579E+00
         -2   -1    0    0    0  501 -0.00000000000E+00  0.00000000000E+00  0.75015430872E+03  0.75015430872E+03  0.00000000000E+00 0. -1.
          2   -1    0    0  501    0  0.00000000000E+00 -0.00000000000E+00 -0.17334735651E+02  0.17334735651E+02  0.00000000000E+00 0.  1.
         23    2    1    2    0    0  0.68126661728E+00  0.16443885722E+02  0.22107226816E+03  0.24043991563E+03  0.93099622850E+02 0.  0.
          5    1    1    2  502    0 -0.56564513373E+02  0.45379223199E+01  0.15125185729E+03  0.16161482372E+03  0.47000000000E+01 0. -1.
         -5    1    1    2    0  502  0.55883246756E+02 -0.20981808042E+02  0.36049544762E+03  0.36543430502E+03  0.47000000000E+01 0. -1.
        -11    1    3    3    0    0  0.39437204418E+02  0.33831637241E+02  0.11597143806E+03  0.12707968845E+03  0.00000000000E+00 0.  1.
         11    1    3    3    0    0 -0.38755937801E+02 -0.17387751519E+02  0.10510083010E+03  0.11336022717E+03  0.00000000000E+00 0. -1.
<mgrwt>
<rscale>  0 0.11732353E+03</rscale>
<asrwt>0</asrwt>
<pdfrwt beam="2">  1        2 0.26668830E-02 0.12607728E+03</pdfrwt>
<pdfrwt beam="1">  1       -2 0.11540833E+00 0.12607728E+03</pdfrwt>
<totfact> 0.21388974E+03</totfact>
</mgrwt>
</event>
<event>
 7    1  0.5107591E-006  0.1455362E+03  0.7546771E-02  0.1216433E+00
          2   -1    0    0  501    0  0.00000000000E+00  0.00000000000E+00  0.70050871213E+03  0.70050871213E+03  0.00000000000E+00 0. -1.
         -2   -1    0    0    0  501 -0.00000000000E+00 -0.00000000000E+00 -0.25814498731E+02  0.25814498731E+02  0.00000000000E+00 0.  1.
         23    2    1    2    0    0 -0.69916643868E+02 -0.25838119341E+02  0.38227509840E+03  0.39968929561E+03  0.89784946778E+02 0.  0.
          5    1    1    2  502    0 -0.21310476467E+02 -0.18051655614E+02  0.14499770091E+03  0.14773767951E+03  0.47000000000E+01 0. -1.
         -5    1    1    2    0  502  0.91227120335E+02  0.43889774955E+02  0.14742141409E+03  0.17889623574E+03  0.47000000000E+01 0. -1.
        -11    1    3    3    0    0 -0.84794127550E+01  0.31138700628E+02  0.88604393757E+02  0.94298768341E+02  0.00000000000E+00 0.  1.
         11    1    3    3    0    0 -0.61437231113E+02 -0.56976819969E+02  0.29367070464E+03  0.30539052727E+03  0.00000000000E+00 0. -1.
<mgrwt>
<rscale>  0 0.13771762E+03</rscale>
<asrwt>0</asrwt>
<pdfrwt beam="1">  1        2 0.10777056E+00 0.14553617E+03</pdfrwt>
<pdfrwt beam="2">  1       -2 0.39714619E-02 0.14553617E+03</pdfrwt>
<totfact> 0.11178906E+04</totfact>
</mgrwt>
</event>
<event>
 7    1  0.5107591E-006  0.1375898E+03  0.7546771E-02  0.1228418E+00
          1   -1    0    0  501    0  0.00000000000E+00  0.00000000000E+00  0.49893938393E+03  0.49893938393E+03  0.00000000000E+00 0. -1.
         -1   -1    0    0    0  501 -0.00000000000E+00 -0.00000000000E+00 -0.36250219396E+02  0.36250219396E+02  0.00000000000E+00 0.  1.
         23    2    1    2    0    0 -0.12899510508E+02  0.56034224481E+02  0.31732718761E+03  0.33503704055E+03  0.90813230630E+02 0.  0.
          5    1    1    2  502    0  0.17527513115E+02 -0.39891434138E+02  0.16683239100E+03  0.17249254164E+03  0.47000000000E+01 0.  1.
         -5    1    1    2    0  502 -0.46280026075E+01 -0.16142790343E+02 -0.21470414084E+02  0.27660021134E+02  0.47000000000E+01 0.  1.
        -11    1    3    3    0    0 -0.31518082671E+02  0.65908344244E+02  0.29664634823E+03  0.30550999214E+03  0.00000000000E+00 0. -1.
         11    1    3    3    0    0  0.18618572163E+02 -0.98741197632E+01  0.20680839383E+02  0.29527048415E+02  0.00000000000E+00 0.  1.
<mgrwt>
<rscale>  0 0.12935337E+03</rscale>
<asrwt>0</asrwt>
<pdfrwt beam="1">  1        1 0.76759900E-01 0.13758977E+03</pdfrwt>
<pdfrwt beam="2">  1       -1 0.55769572E-02 0.13758977E+03</pdfrwt>
<totfact> 0.64912733E+03</totfact>
</mgrwt>
</event>
<event>
 7    1  0.5107591E-006  0.1605763E+03  0.7546771E-02  0.1195560E+00
         -2   -1    0    0    0  501 -0.00000000000E+00  0.00000000000E+00  0.64395108782E+02  0.64395108782E+02  0.00000000000E+00 0.  1.
          2   -1    0    0  501    0  0.00000000000E+00 -0.00000000000E+00 -0.48932861892E+03  0.48932861892E+03  0.00000000000E+00 0. -1.
         23    2    1    2    0    0  0.99470298916E+02  0.16278259317E+02 -0.35194005874E+03  0.37733556307E+03  0.91438504552E+02 0.  0.
          5    1    1    2  502    0 -0.94393499432E+02 -0.43707537048E+02 -0.67368698144E+01  0.10434537337E+03  0.47000000000E+01 0.  1.
         -5    1    1    2    0  502 -0.50767994838E+01  0.27429277731E+02 -0.66256581583E+02  0.72042791263E+02  0.47000000000E+01 0.  1.
        -11    1    3    3    0    0  0.70816538367E+02 -0.17047279413E+02 -0.11338395874E+03  0.13476466133E+03  0.00000000000E+00 0.  1.
         11    1    3    3    0    0  0.28653760549E+02  0.33325538730E+02 -0.23855610000E+03  0.24257090174E+03  0.00000000000E+00 0. -1.
<mgrwt>
<rscale>  0 0.15406965E+03</rscale>
<asrwt>0</asrwt>
<pdfrwt beam="2">  1        2 0.75281322E-01 0.16057628E+03</pdfrwt>
<pdfrwt beam="1">  1       -2 0.99069403E-02 0.16057628E+03</pdfrwt>
<totfact> 0.41887302E+03</totfact>
</mgrwt>
</event>
<event>
 7    1  0.5107591E-006  0.1503552E+03  0.7546771E-02  0.1209093E+00
          3   -1    0    0  501    0  0.00000000000E+00  0.00000000000E+00  0.19934427059E+03  0.19934427059E+03  0.00000000000E+00 0. -1.
         -3   -1    0    0    0  501 -0.00000000000E+00 -0.00000000000E+00 -0.13314979378E+03  0.13314979378E+03  0.00000000000E+00 0.  1.
         23    2    1    2    0    0  0.83525295495E+02 -0.21125447170E+01  0.12044522732E+03  0.17265095262E+03  0.91216011882E+02 0.  0.
          5    1    1    2  502    0 -0.80632025649E+02 -0.37735479674E+02  0.37834086229E+01  0.89229446750E+02  0.47000000000E+01 0. -1.
         -5    1    1    2    0  502 -0.28932698457E+01  0.39848024391E+02 -0.58034159131E+02  0.70613664997E+02  0.47000000000E+01 0. -1.
        -11    1    3    3    0    0  0.40160216492E+00  0.23416965309E+02  0.66059278675E+02  0.70088114881E+02  0.00000000000E+00 0. -1.
         11    1    3    3    0    0  0.83123693330E+02 -0.25529510026E+02  0.54385948648E+02  0.10256283774E+03  0.00000000000E+00 0.  1.
<mgrwt>
<rscale>  0 0.14319564E+03</rscale>
<asrwt>0</asrwt>
<pdfrwt beam="1">  1        3 0.30668349E-01 0.15035517E+03</pdfrwt>
<pdfrwt beam="2">  1       -3 0.20484584E-01 0.15035517E+03</pdfrwt>
<totfact> 0.52127522E+02</totfact>
</mgrwt>
</event>
<event>
 7    1  0.5107591E-006  0.1331663E+03  0.7546771E-02  0.1236573E+00
         -3   -1    0    0    0  501 -0.00000000000E+00  0.00000000000E+00  0.81253338488E+02  0.81253338488E+02  0.00000000000E+00 0.  1.
          3   -1    0    0  501    0  0.00000000000E+00 -0.00000000000E+00 -0.16896487565E+03  0.16896487565E+03  0.00000000000E+00 0. -1.
         23    2    1    2    0    0  0.43364995720E+02  0.15110752658E+02 -0.48695506877E+02  0.11145396033E+03  0.89117199141E+02 0.  0.
          5    1    1    2  502    0 -0.65681234744E+02  0.21123185448E+02 -0.59568876376E+02  0.91272967486E+02  0.47000000000E+01 0.  1.
         -5    1    1    2    0  502  0.22316239024E+02 -0.36233938106E+02  0.20552846088E+02  0.47491286329E+02  0.47000000000E+01 0.  1.
        -11    1    3    3    0    0  0.36385302761E+02 -0.74146757116E+01  0.17597259164E+02  0.41091741300E+02  0.00000000000E+00 0.  1.
         11    1    3    3    0    0  0.69796929587E+01  0.22525428369E+02 -0.66292766041E+02  0.70362219027E+02  0.00000000000E+00 0. -1.
<mgrwt>
<rscale>  0 0.12404250E+03</rscale>
<asrwt>0</asrwt>
<pdfrwt beam="2">  1        3 0.25994596E-01 0.13316632E+03</pdfrwt>
<pdfrwt beam="1">  1       -3 0.12500514E-01 0.13316632E+03</pdfrwt>
<totfact> 0.16238944E+03</totfact>
</mgrwt>
</event>
<event>
 7    1  0.5107591E-006  0.1380727E+03  0.7546771E-02  0.1227986E+00
         -1   -1    0    0    0  501 -0.00000000000E+00  0.00000000000E+00  0.28200337403E+03  0.28200337403E+03  0.00000000000E+00 0.  1.
          1   -1    0    0  501    0  0.00000000000E+00 -0.00000000000E+00 -0.53624297349E+02  0.53624297349E+02  0.00000000000E+00 0. -1.
         23    2    1    2    0    0  0.43467748677E+02  0.39354415103E+02  0.11111229290E+03  0.15447699365E+03  0.89883172908E+02 0.  0.
          5    1    1    2  502    0 -0.37569498820E+02  0.88982211080E+01  0.12570863407E+03  0.13158797916E+03  0.47000000000E+01 0.  1.
         -5    1    1    2    0  502 -0.58982498568E+01 -0.48252636211E+02 -0.84418502857E+01  0.49562698564E+02  0.47000000000E+01 0.  1.
        -11    1    3    3    0    0  0.70580941050E+02  0.19409310593E+02  0.82566362669E+02  0.11034307781E+03  0.00000000000E+00 0.  1.
         11    1    3    3    0    0 -0.27113192373E+02  0.19945104510E+02  0.28545930227E+02  0.44133915837E+02  0.00000000000E+00 0. -1.
<mgrwt>
<rscale>  0 0.12964304E+03</rscale>
<asrwt>0</asrwt>
<pdfrwt beam="2">  1        1 0.82498921E-02 0.13807270E+03</pdfrwt>
<pdfrwt beam="1">  1       -1 0.43385134E-01 0.13807270E+03</pdfrwt>
<totfact> 0.42596269E+03</totfact>
</mgrwt>
</event>
<event>
 7    1  0.5107591E-006  0.1798848E+03  0.7546771E-02  0.1173342E+00
          1   -1    0    0  501    0  0.00000000000E+00  0.00000000000E+00  0.15252032933E+03  0.15252032933E+03  0.00000000000E+00 0. -1.
         -1   -1    0    0    0  501 -0.00000000000E+00 -0.00000000000E+00 -0.19152183275E+03  0.19152183275E+03  0.00000000000E+00 0.  1.
         23    2    1    2    0    0 -0.11353351065E+03  0.61865937932E+02  0.45143818319E+01  0.15896868651E+03  0.92376465251E+02 0.  0.
          5    1    1    2  502    0  0.13525669155E+03 -0.45131531519E+02 -0.12202337242E+02  0.14318594477E+03  0.47000000000E+01 0.  1.
         -5    1    1    2    0  502 -0.21723180904E+02 -0.16734406413E+02 -0.31313548007E+02  0.41887530786E+02  0.47000000000E+01 0.  1.
        -11    1    3    3    0    0 -0.82351860747E+02  0.82721253701E+02  0.19925819424E+02  0.11841314565E+03  0.00000000000E+00 0. -1.
         11    1    3    3    0    0 -0.31181649901E+02 -0.20855315768E+02 -0.15411437592E+02  0.40555540867E+02  0.00000000000E+00 0.  1.
<mgrwt>
<rscale>  0 0.17439340E+03</rscale>
<asrwt>0</asrwt>
<pdfrwt beam="1">  1        1 0.23464666E-01 0.17988485E+03</pdfrwt>
<pdfrwt beam="2">  1       -1 0.29464897E-01 0.17988485E+03</pdfrwt>
<totfact> 0.21524471E+03</totfact>
</mgrwt>
</event>
<event>
 7    1  0.5107591E-006  0.1305568E+03  0.7546771E-02  0.1239948E+00
         -1   -1    0    0    0  501 -0.00000000000E+00  0.00000000000E+00  0.90380834315E+02  0.90380834315E+02  0.00000000000E+00 0.  1.
          1   -1    0    0  501    0  0.00000000000E+00 -0.00000000000E+00 -0.16633415159E+03  0.16633415159E+03  0.00000000000E+00 0. -1.
         23    2    1    2    0    0  0.23111781471E+02 -0.29712329593E+02 -0.77771985226E+02  0.12614555634E+03  0.91908882742E+02 0.  0.
          5    1    1    2  502    0 -0.70189796159E+02  0.10347872931E+02 -0.21637754391E+02  0.74323403946E+02  0.47000000000E+01 0. -1.
         -5    1    1    2    0  502  0.47078014688E+02  0.19364456662E+02  0.23456422339E+02  0.56246025617E+02  0.47000000000E+01 0. -1.
        -11    1    3    3    0    0  0.38205055717E+02 -0.39923124122E+02 -0.10241192120E+02  0.56199325067E+02  0.00000000000E+00 0.  1.
         11    1    3    3    0    0 -0.15093274246E+02  0.10210794529E+02 -0.67530793106E+02  0.69946231277E+02  0.00000000000E+00 0. -1.
<mgrwt>
<rscale>  0 0.12192910E+03</rscale>
<asrwt>0</asrwt>
<pdfrwt beam="2">  1        1 0.25589870E-01 0.13055676E+03</pdfrwt>
<pdfrwt beam="1">  1       -1 0.13904744E-01 0.13055676E+03</pdfrwt>
<totfact> 0.63852340E+03</totfact>
</mgrwt>
</event>
<event>
 6    1  0.1321842E-005  0.1186291E+03  0.7546771E-02  0.1294018E+00
          2   -1    0    0  501    0  0.00000000000E+00  0.00000000000E+00  0.95952898231E+01  0.95952898231E+01  0.00000000000E+00 0. -1.
         -2   -1    0    0    0  501 -0.00000000000E+00 -0.00000000000E+00 -0.71481914858E+03  0.71481914858E+03  0.00000000000E+00 0.  1.
          5    1    1    2  502    0 -0.10850777332E+02 -0.14668240616E+02 -0.64982263336E+01  0.19930218187E+02  0.47000000000E+01 0. -1.
         -5    1    1    2    0  502  0.20862370045E+02 -0.24949082508E+02 -0.46874046366E+03  0.46989084634E+03  0.47000000000E+01 0.  1.
        -11    1    1    2    0    0 -0.13637861823E+02  0.12125312419E+02 -0.10442698017E+03  0.10600947441E+03  0.00000000000E+00 0. -1.
         11    1    1    2    0    0  0.36262691104E+01  0.27492010705E+02 -0.12555818859E+03  0.12858389947E+03  0.00000000000E+00 0.  1.
<mgrwt>
<rscale>  0 0.93749139E+02</rscale>
<asrwt>0</asrwt>
<pdfrwt beam="1">  1        2 0.14761984E-02 0.11862910E+03</pdfrwt>
<pdfrwt beam="2">  1       -2 0.10997218E+00 0.11862910E+03</pdfrwt>
<totfact> 0.53292743E+03</totfact>
</mgrwt>
</event>
<event>
 7    1  0.5107591E-006  0.1484447E+03  0.7546771E-02  0.1213844E+00
          1   -1    0    0  501    0  0.00000000000E+00  0.00000000000E+00  0.66892790810E+03  0.66892790810E+03  0.00000000000E+00 0. -1.
         -1   -1    0    0    0  501 -0.00000000000E+00 -0.00000000000E+00 -0.26973849884E+02  0.26973849884E+02  0.00000000000E+00 0.  1.
         23    2    1    2    0    0  0.40940310779E+02 -0.59875016257E+02  0.34269266955E+03  0.36184607119E+03  0.90736910129E+02 0.  0.
          5    1    1    2  502    0  0.34309997749E+02  0.39318944905E+01  0.21724410892E+02  0.41069158360E+02  0.47000000000E+01 0. -1.
         -5    1    1    2    0  502 -0.75250308529E+02  0.55943121767E+02  0.27753697778E+03  0.29298652843E+03  0.47000000000E+01 0.  1.
        -11    1    3    3    0    0  0.90839644823E+01 -0.73062897336E+01 -0.19022851883E+01  0.11811814819E+02  0.00000000000E+00 0.  1.
         11    1    3    3    0    0  0.31856346297E+02 -0.52568726524E+02  0.34459495473E+03  0.35003425638E+03  0.00000000000E+00 0. -1.
<mgrwt>
<rscale>  0 0.13961829E+03</rscale>
<asrwt>0</asrwt>
<pdfrwt beam="1">  1        1 0.10291197E+00 0.14844468E+03</pdfrwt>
<pdfrwt beam="2">  1       -1 0.41498236E-02 0.14844468E+03</pdfrwt>
<totfact> 0.67894609E+03</totfact>
</mgrwt>
</event>
<event>
 7    1  0.5107591E-006  0.1330680E+03  0.7546771E-02  0.1235707E+00
          1   -1    0    0  501    0  0.00000000000E+00  0.00000000000E+00  0.29018105831E+02  0.29018105831E+02  0.00000000000E+00 0. -1.
         -1   -1    0    0    0  501 -0.00000000000E+00 -0.00000000000E+00 -0.48285567097E+03  0.48285567097E+03  0.00000000000E+00 0.  1.
         23    2    1    2    0    0 -0.42212272876E+02 -0.17361756597E+02 -0.16999523689E+03  0.19838762924E+03  0.91520294470E+02 0.  0.
          5    1    1    2  502    0  0.33403733384E+02  0.18186039529E+02 -0.29558035903E+03  0.29805432404E+03  0.47000000000E+01 0. -1.
         -5    1    1    2    0  502  0.88085394925E+01 -0.82428293210E+00  0.11738030777E+02  0.15431823511E+02  0.47000000000E+01 0. -1.
        -11    1    3    3    0    0 -0.67200862357E+01  0.35570027683E+02 -0.82966818804E+02  0.90520049994E+02  0.00000000000E+00 0.  1.
         11    1    3    3    0    0 -0.35492186640E+02 -0.52931784280E+02 -0.87028418082E+02  0.10786757925E+03  0.00000000000E+00 0. -1.
<mgrwt>
<rscale>  0 0.12459280E+03</rscale>
<asrwt>0</asrwt>
<pdfrwt beam="1">  1        1 0.44643246E-02 0.13306802E+03</pdfrwt>
<pdfrwt beam="2">  1       -1 0.74285478E-01 0.13306802E+03</pdfrwt>
<totfact> 0.35561163E+03</totfact>
</mgrwt>
</event>
<event>
 7    1  0.5107591E-006  0.1616235E+03  0.7546771E-02  0.1194429E+00
         -1   -1    0    0    0  501 -0.00000000000E+00  0.00000000000E+00  0.55892437250E+02  0.55892437250E+02  0.00000000000E+00 0.  1.
          1   -1    0    0  501    0  0.00000000000E+00 -0.00000000000E+00 -0.40029019851E+03  0.40029019851E+03  0.00000000000E+00 0. -1.
         23    2    1    2    0    0  0.83828819733E+02 -0.58906987895E+02 -0.14215208436E+03  0.19728986676E+03  0.90657444235E+02 0.  0.
          5    1    1    2  502    0 -0.10242001569E+03  0.71470476753E+01 -0.15635813332E+03  0.18711198722E+03  0.47000000000E+01 0.  1.
         -5    1    1    2    0  502  0.18591195954E+02  0.51759940220E+02 -0.45887543568E+02  0.71780781782E+02  0.47000000000E+01 0.  1.
        -11    1    3    3    0    0  0.19462412288E+02 -0.64623618051E+02 -0.46897805274E+02  0.82185166798E+02  0.00000000000E+00 0.  1.
         11    1    3    3    0    0  0.64366407445E+02  0.57166301555E+01 -0.95254279090E+02  0.11510469996E+03  0.00000000000E+00 0. -1.
<mgrwt>
<rscale>  0 0.15502624E+03</rscale>
<asrwt>0</asrwt>
<pdfrwt beam="2">  1        1 0.61583109E-01 0.16162349E+03</pdfrwt>
<pdfrwt beam="1">  1       -1 0.85988363E-02 0.16162349E+03</pdfrwt>
<totfact> 0.45332580E+03</totfact>
</mgrwt>
</event>
<event>
 7    1  0.5107591E-006  0.1904521E+03  0.7546771E-02  0.1174639E+00
         -2   -1    0    0    0  501 -0.00000000000E+00  0.00000000000E+00  0.79335534990E+02  0.79335534990E+02  0.00000000000E+00 0.  1.
          2   -1    0    0  501    0  0.00000000000E+00 -0.00000000000E+00 -0.32877771631E+03  0.32877771631E+03  0.00000000000E+00 0. -1.
         23    2    1    2    0    0  0.82522137830E+02  0.38550100775E+02 -0.12670627720E+03  0.18153855990E+03  0.92767206197E+02 0.  0.
          5    1    1    2  502    0 -0.80682014710E+02 -0.58742368588E+02 -0.15722916198E+03  0.18628835911E+03  0.47000000000E+01 0. -1.
         -5    1    1    2    0  502 -0.18401231201E+01  0.20192267814E+02  0.34493257851E+02  0.40286332295E+02  0.47000000000E+01 0.  1.
        -11    1    3    3    0    0  0.65849583881E+02  0.66782893755E+02 -0.74000430967E+02  0.11946625624E+03  0.00000000000E+00 0.  1.
         11    1    3    3    0    0  0.16672553949E+02 -0.28232792981E+02 -0.52705846231E+02  0.62072303660E+02  0.00000000000E+00 0. -1.
<mgrwt>
<rscale>  0 0.17311344E+03</rscale>
<asrwt>0</asrwt>
<pdfrwt beam="2">  1        2 0.50581187E-01 0.19045206E+03</pdfrwt>
<pdfrwt beam="1">  1       -2 0.12205467E-01 0.19045206E+03</pdfrwt>
<totfact> 0.46544334E+03</totfact>
</mgrwt>
</event>
<event>
 7    1  0.5107591E-006  0.1564102E+03  0.7546771E-02  0.1201014E+00
         -2   -1    0    0    0  501 -0.00000000000E+00  0.00000000000E+00  0.26866719676E+02  0.26866719676E+02  0.00000000000E+00 0.  1.
          2   -1    0    0  501    0  0.00000000000E+00 -0.00000000000E+00 -0.78841545569E+03  0.78841545569E+03  0.00000000000E+00 0. -1.
         23    2    1    2    0    0 -0.35823586210E+02  0.86929032895E+02 -0.41401699040E+03  0.43417528199E+03  0.90874204600E+02 0.  0.
          5    1    1    2  502    0 -0.17735665991E+02  0.14433926133E+02 -0.15675748086E+03  0.15848624507E+03  0.47000000000E+01 0.  1.
         -5    1    1    2    0  502  0.53559252201E+02 -0.10136295903E+03 -0.19077426475E+03  0.22262064830E+03  0.47000000000E+01 0.  1.
        -11    1    3    3    0    0  0.15800180401E+02 -0.90362627101E+01 -0.10361366569E+03  0.10520024459E+03  0.00000000000E+00 0. -1.
         11    1    3    3    0    0 -0.51623766611E+02  0.95965295605E+02 -0.31040332472E+03  0.32897503740E+03  0.00000000000E+00 0.  1.
<mgrwt>
<rscale>  0 0.14956064E+03</rscale>
<asrwt>0</asrwt>
<pdfrwt beam="2">  1        2 0.12129469E+00 0.15641020E+03</pdfrwt>
<pdfrwt beam="1">  1       -2 0.41333413E-02 0.15641020E+03</pdfrwt>
<totfact> 0.91613871E+03</totfact>
</mgrwt>
</event>
<event>
 7    1  0.5107591E-006  0.1269664E+03  0.7546771E-02  0.1247170E+00
         -1   -1    0    0    0  501 -0.00000000000E+00  0.00000000000E+00  0.25903119220E+02  0.25903119220E+02  0.00000000000E+00 0.  1.
          1   -1    0    0  501    0  0.00000000000E+00 -0.00000000000E+00 -0.46839754357E+03  0.46839754357E+03  0.00000000000E+00 0. -1.
         23    2    1    2    0    0 -0.17191287133E+02  0.14246188515E+02 -0.18721294625E+03  0.20918823394E+03  0.90623041963E+02 0.  0.
          5    1    1    2  502    0 -0.43672638552E+02 -0.29439324641E+02 -0.60133126160E+02  0.80075314892E+02  0.47000000000E+01 0.  1.
         -5    1    1    2    0  502  0.60863925685E+02  0.15193136126E+02 -0.19514835194E+03  0.20503711396E+03  0.47000000000E+01 0.  1.
        -11    1    3    3    0    0 -0.37738764902E+02 -0.11793198512E+02 -0.33155104082E+02  0.51599949943E+02  0.00000000000E+00 0.  1.
         11    1    3    3    0    0  0.20547477768E+02  0.26039387028E+02 -0.15405784217E+03  0.15758828399E+03  0.00000000000E+00 0. -1.
<mgrwt>
<rscale>  0 0.11756425E+03</rscale>
<asrwt>0</asrwt>
<pdfrwt beam="2">  1        1 0.72061156E-01 0.12696639E+03</pdfrwt>
<pdfrwt beam="1">  1       -1 0.39850955E-02 0.12696639E+03</pdfrwt>
<totfact> 0.11503668E+04</totfact>
</mgrwt>
</event>
<event>
 7    1  0.5107591E-006  0.5597317E+03  0.7546771E-02  0.9992662E-01
         -2   -1    0    0    0  501 -0.00000000000E+00  0.00000000000E+00  0.90636588320E+02  0.90636588320E+02  0.00000000000E+00 0.  1.
          2   -1    0    0  501    0  0.00000000000E+00 -0.00000000000E+00 -0.86416432796E+03  0.86416432796E+03  0.00000000000E+00 0. -1.
         23    2    1    2    0    0 -0.32036364771E+02 -0.15823935665E+03 -0.39192080442E+03  0.43375877616E+03  0.92080053749E+02 0.  0.
          5    1    1    2  502    0  0.31103521661E+02 -0.14735054194E+02 -0.34169763617E+03  0.34345875364E+03  0.47000000000E+01 0. -1.
         -5    1    1    2    0  502  0.93284311020E+00  0.17297441085E+03 -0.39909299042E+02  0.17758338648E+03  0.47000000000E+01 0.  1.
        -11    1    3    3    0    0  0.21041216602E+02 -0.81555345014E+02 -0.12256978626E+03  0.14871906266E+03  0.00000000000E+00 0.  1.
         11    1    3    3    0    0 -0.53077581373E+02 -0.76684011638E+02 -0.26935101816E+03  0.28503971350E+03  0.00000000000E+00 0. -1.
<mgrwt>
<rscale>  0 0.55973174E+03</rscale>
<asrwt>0</asrwt>
<pdfrwt beam="2">  1        2 0.13294836E+00 0.55973174E+03</pdfrwt>
<pdfrwt beam="1">  1       -2 0.13944091E-01 0.55973174E+03</pdfrwt>
<totfact> 0.12361900E+03</totfact>
</mgrwt>
</event>
<event>
 7    1  0.5107591E-006  0.1558933E+03  0.7546771E-02  0.1201490E+00
          2   -1    0    0  501    0  0.00000000000E+00  0.00000000000E+00  0.46518559539E+03  0.46518559539E+03  0.00000000000E+00 0.  1.
         -2   -1    0    0    0  501 -0.00000000000E+00 -0.00000000000E+00 -0.45466189744E+02  0.45466189744E+02  0.00000000000E+00 0. -1.
         23    2    1    2    0    0  0.64804947814E+02  0.66938190508E+02  0.23532694395E+03  0.26919101826E+03  0.91676775448E+02 0.  0.
          5    1    1    2  502    0  0.93577356693E+00  0.34477672839E+02  0.45455645811E+02  0.57252871829E+02  0.47000000000E+01 0. -1.
         -5    1    1    2    0  502 -0.65740721381E+02 -0.10141586335E+03  0.13893681589E+03  0.18420789504E+03  0.47000000000E+01 0. -1.
        -11    1    3    3    0    0  0.56853498117E+02  0.23473591658E+02  0.20876093800E+03  0.21763377263E+03  0.00000000000E+00 0.  1.
         11    1    3    3    0    0  0.79514496965E+01  0.43464598850E+02  0.26566005946E+02  0.51557245634E+02  0.00000000000E+00 0. -1.
<mgrwt>
<rscale>  0 0.14917552E+03</rscale>
<asrwt>0</asrwt>
<pdfrwt beam="1">  1        2 0.71567012E-01 0.15589330E+03</pdfrwt>
<pdfrwt beam="2">  1       -2 0.69947987E-02 0.15589330E+03</pdfrwt>
<totfact> 0.75957011E+03</totfact>
</mgrwt>
</event>
<event>
 7    1  0.5107591E-006  0.1659053E+03  0.7546771E-02  0.1189620E+00
          2   -1    0    0  501    0  0.00000000000E+00  0.00000000000E+00  0.55047569942E+02  0.55047569942E+02  0.00000000000E+00 0. -1.
         -2   -1    0    0    0  501 -0.00000000000E+00 -0.00000000000E+00 -0.43179709304E+03  0.43179709304E+03  0.00000000000E+00 0.  1.
         23    2    1    2    0    0  0.10906490810E+03 -0.19420506685E+01 -0.14664734174E+03  0.20316952916E+03  0.88732682820E+02 0.  0.
          5    1    1    2  502    0  0.98207288092E+01 -0.13626205076E+02  0.63152829508E+01  0.18549743337E+02  0.47000000000E+01 0. -1.
         -5    1    1    2    0  502 -0.11888563691E+03  0.15568255744E+02 -0.23641746431E+03  0.26512539049E+03  0.47000000000E+01 0. -1.
        -11    1    3    3    0    0  0.65980491287E+02  0.26594947837E+02 -0.13117771735E+03  0.14922570158E+03  0.00000000000E+00 0.  1.
         11    1    3    3    0    0  0.43084416812E+02 -0.28536998506E+02 -0.15469624386E+02  0.53943827584E+02  0.00000000000E+00 0. -1.
<mgrwt>
<rscale>  0 0.15918519E+03</rscale>
<asrwt>0</asrwt>
<pdfrwt beam="1">  1        2 0.84688572E-02 0.16590530E+03</pdfrwt>
<pdfrwt beam="2">  1       -2 0.66430320E-01 0.16590530E+03</pdfrwt>
<totfact> 0.16488756E+03</totfact>
</mgrwt>
</event>
<event>
 7    1  0.5107591E-006  0.1715117E+03  0.7546771E-02  0.1182973E+00
         -2   -1    0    0    0  501 -0.00000000000E+00  0.00000000000E+00  0.10479369398E+03  0.10479369398E+03  0.00000000000E+00 0.  1.
          2   -1    0    0  501    0  0.00000000000E+00 -0.00000000000E+00 -0.25394617154E+03  0.25394617154E+03  0.00000000000E+00 0. -1.
         23    2    1    2    0    0  0.20312799592E+02 -0.11566418120E+03 -0.31817842130E+02  0.15093303285E+03  0.89317370589E+02 0.  0.
          5    1    1    2  502    0 -0.20752667291E+02 -0.12799429040E+02  0.10090498417E+02  0.26803110673E+02  0.47000000000E+01 0.  1.
         -5    1    1    2    0  502  0.43986769852E+00  0.12846361024E+03 -0.12742513384E+03  0.18100372199E+03  0.47000000000E+01 0.  1.
        -11    1    3    3    0    0  0.24482781278E+02 -0.53702403517E+02  0.27447391083E+02  0.65090045321E+02  0.00000000000E+00 0.  1.
         11    1    3    3    0    0 -0.41699816854E+01 -0.61961777682E+02 -0.59265233213E+02  0.85842987533E+02  0.00000000000E+00 0. -1.
<mgrwt>
<rscale>  0 0.16517664E+03</rscale>
<asrwt>0</asrwt>
<pdfrwt beam="2">  1        2 0.39068642E-01 0.17151170E+03</pdfrwt>
<pdfrwt beam="1">  1       -2 0.16122107E-01 0.17151170E+03</pdfrwt>
<totfact> 0.38750615E+03</totfact>
</mgrwt>
</event>
<event>
 7    1  0.5107591E-006  0.1333311E+03  0.7546771E-02  0.1236156E+00
          1   -1    0    0  501    0  0.00000000000E+00  0.00000000000E+00  0.11878402880E+03  0.11878402880E+03  0.00000000000E+00 0. -1.
         -1   -1    0    0    0  501 -0.00000000000E+00 -0.00000000000E+00 -0.11733944179E+03  0.11733944179E+03  0.00000000000E+00 0.  1.
         23    2    1    2    0    0  0.90170405993E+01 -0.45510304144E+02  0.16004079643E+02  0.10199976704E+03  0.89416593014E+02 0.  0.
          5    1    1    2  502    0 -0.54887252045E+02  0.57139628505E+02 -0.28878102424E+02  0.84460537427E+02  0.47000000000E+01 0.  1.
         -5    1    1    2    0  502  0.45870211446E+02 -0.11629324361E+02  0.14318609784E+02  0.49663166123E+02  0.47000000000E+01 0.  1.
        -11    1    3    3    0    0 -0.89807219331E+01 -0.10713145017E+02 -0.34998907675E+02  0.37687509616E+02  0.00000000000E+00 0.  1.
         11    1    3    3    0    0  0.17997762532E+02 -0.34797159126E+02  0.51002987318E+02  0.64312257423E+02  0.00000000000E+00 0. -1.
<mgrwt>
<rscale>  0 0.12430691E+03</rscale>
<asrwt>0</asrwt>
<pdfrwt beam="1">  1        1 0.18274466E-01 0.13333113E+03</pdfrwt>
<pdfrwt beam="2">  1       -1 0.18052222E-01 0.13333113E+03</pdfrwt>
<totfact> 0.64923375E+03</totfact>
</mgrwt>
</event>
<event>
 7    1  0.5107591E-006  0.1285048E+03  0.7546771E-02  0.1243722E+00
          2   -1    0    0  501    0  0.00000000000E+00  0.00000000000E+00  0.42162711316E+03  0.42162711316E+03  0.00000000000E+00 0. -1.
         -2   -1    0    0    0  501 -0.00000000000E+00 -0.00000000000E+00 -0.56963016865E+02  0.56963016865E+02  0.00000000000E+00 0.  1.
         23    2    1    2    0    0 -0.24796744750E+02  0.16536864658E+02  0.33236505339E+03  0.34608834691E+03  0.91772919261E+02 0.  0.
          5    1    1    2  502    0  0.11197459058E+02  0.47008897481E+02 -0.16303643485E+02  0.51216387247E+02  0.47000000000E+01 0. -1.
         -5    1    1    2    0  502  0.13599285692E+02 -0.63545762139E+02  0.48602686392E+02  0.81285395870E+02  0.47000000000E+01 0. -1.
        -11    1    3    3    0    0 -0.55315578961E+02  0.28321138525E+02  0.18582446524E+03  0.19594037881E+03  0.00000000000E+00 0.  1.
         11    1    3    3    0    0  0.30518834211E+02 -0.11784273867E+02  0.14654058815E+03  0.15014796811E+03  0.00000000000E+00 0. -1.
<mgrwt>
<rscale>  0 0.11962224E+03</rscale>
<asrwt>0</asrwt>
<pdfrwt beam="1">  1        2 0.64865708E-01 0.12850484E+03</pdfrwt>
<pdfrwt beam="2">  1       -2 0.87635413E-02 0.12850484E+03</pdfrwt>
<totfact> 0.58968795E+03</totfact>
</mgrwt>
</event>
<event>
 7    1  0.5107591E-006  0.1678653E+03  0.7546771E-02  0.1186757E+00
          1   -1    0    0  501    0  0.00000000000E+00  0.00000000000E+00  0.85703239797E+03  0.85703239797E+03  0.00000000000E+00 0.  1.
         -1   -1    0    0    0  501 -0.00000000000E+00 -0.00000000000E+00 -0.30656648620E+02  0.30656648620E+02  0.00000000000E+00 0. -1.
         23    2    1    2    0    0  0.11138026202E+03  0.12200107159E+02  0.50241562144E+03  0.52282068809E+03  0.91463707806E+02 0.  0.
          5    1    1    2  502    0 -0.57495839386E+02 -0.44872933259E+02  0.27607005524E+03  0.28558031635E+03  0.47000000000E+01 0.  1.
         -5    1    1    2    0  502 -0.53884422633E+02  0.32672826101E+02  0.47890072673E+02  0.79288042153E+02  0.47000000000E+01 0.  1.
        -11    1    3    3    0    0  0.10041124272E+02 -0.29946046315E+02  0.16524687365E+03  0.16823828078E+03  0.00000000000E+00 0.  1.
         11    1    3    3    0    0  0.10133913775E+03  0.42146153474E+02  0.33716874778E+03  0.35458240731E+03  0.00000000000E+00 0. -1.
<mgrwt>
<rscale>  0 0.16173013E+03</rscale>
<asrwt>0</asrwt>
<pdfrwt beam="1">  1        1 0.13185112E+00 0.16786529E+03</pdfrwt>
<pdfrwt beam="2">  1       -1 0.47164081E-02 0.16786529E+03</pdfrwt>
<totfact> 0.39108614E+03</totfact>
</mgrwt>
</event>
<event>
 7    1  0.5107591E-006  0.1277812E+03  0.7546771E-02  0.1245463E+00
          2   -1    0    0  501    0  0.00000000000E+00  0.00000000000E+00  0.16560288427E+03  0.16560288427E+03  0.00000000000E+00 0. -1.
         -2   -1    0    0    0  501 -0.00000000000E+00 -0.00000000000E+00 -0.10903617746E+03  0.10903617746E+03  0.00000000000E+00 0.  1.
         23    2    1    2    0    0  0.15175187570E+02 -0.21779886563E+02  0.10181297768E+03  0.13908366953E+03  0.90960073270E+02 0.  0.
          5    1    1    2  502    0 -0.67321499163E+02  0.96147589893E+01 -0.48943272988E+01  0.68342316904E+02  0.47000000000E+01 0.  1.
         -5    1    1    2    0  502  0.52146311594E+02  0.12165127574E+02 -0.40351943570E+02  0.67213075302E+02  0.47000000000E+01 0.  1.
        -11    1    3    3    0    0  0.31503469019E+02  0.25836522462E+02  0.26875231937E+02  0.48808529427E+02  0.00000000000E+00 0.  1.
         11    1    3    3    0    0 -0.16328281449E+02 -0.47616409025E+02  0.74937745742E+02  0.90275140101E+02  0.00000000000E+00 0. -1.
<mgrwt>
<rscale>  0 0.11857689E+03</rscale>
<asrwt>0</asrwt>
<pdfrwt beam="1">  1        2 0.25477367E-01 0.12778122E+03</pdfrwt>
<pdfrwt beam="2">  1       -2 0.16774796E-01 0.12778122E+03</pdfrwt>
<totfact> 0.56693441E+03</totfact>
</mgrwt>
</event>
<event>
 7    1  0.5107591E-006  0.2090808E+03  0.7546771E-02  0.1144478E+00
          1   -1    0    0  501    0  0.00000000000E+00  0.00000000000E+00  0.62637525477E+03  0.62637525477E+03  0.00000000000E+00 0. -1.
         -1   -1    0    0    0  501 -0.00000000000E+00 -0.00000000000E+00 -0.76759878705E+02  0.76759878705E+02  0.00000000000E+00 0.  1.
         23    2    1    2    0    0 -0.10401893987E+03  0.13142171127E+03  0.39847675278E+03  0.44514737515E+03  0.10621137911E+03 0.  0.
          5    1    1    2  502    0  0.82271274537E+02 -0.98736872328E+02  0.32096694777E+02  0.13255119911E+03  0.47000000000E+01 0. -1.
         -5    1    1    2    0  502  0.21747665334E+02 -0.32684838939E+02  0.11904192851E+03  0.12543655921E+03  0.47000000000E+01 0. -1.
        -11    1    3    3    0    0 -0.10561171550E+03  0.14446626298E+03  0.39105209685E+03  0.43005357578E+03  0.00000000000E+00 0. -1.
         11    1    3    3    0    0  0.15927756333E+01 -0.13044551713E+02  0.74246559256E+01  0.15093799364E+02  0.00000000000E+00 0.  1.
<mgrwt>
<rscale>  0 0.20636439E+03</rscale>
<asrwt>0</asrwt>
<pdfrwt beam="1">  1        1 0.96365421E-01 0.20908085E+03</pdfrwt>
<pdfrwt beam="2">  1       -1 0.11809212E-01 0.20908085E+03</pdfrwt>
<totfact> 0.15502688E+03</totfact>
</mgrwt>
</event>
<event>
 7    1  0.5107591E-006  0.1264464E+03  0.7546771E-02  0.1249197E+00
          2   -1    0    0  501    0  0.00000000000E+00  0.00000000000E+00  0.71450396133E+03  0.71450396133E+03  0.00000000000E+00 0. -1.
         -2   -1    0    0    0  501 -0.00000000000E+00 -0.00000000000E+00 -0.16874447618E+02  0.16874447618E+02  0.00000000000E+00 0.  1.
         23    2    1    2    0    0  0.17378206384E+02 -0.87036289154E+01  0.34626026926E+03  0.35794964364E+03  0.88622898294E+02 0.  0.
          5    1    1    2  502    0 -0.41017215657E+02 -0.39294191763E+02  0.89492929216E+02  0.10610146025E+03  0.47000000000E+01 0.  1.
         -5    1    1    2    0  502  0.23639009273E+02  0.47997820679E+02  0.26187631524E+03  0.26732730506E+03  0.47000000000E+01 0.  1.
        -11    1    3    3    0    0 -0.30777063162E+02  0.13345259461E+02  0.85101416709E+02  0.91474448306E+02  0.00000000000E+00 0.  1.
         11    1    3    3    0    0  0.48155269546E+02 -0.22048888376E+02  0.26115885255E+03  0.26647519534E+03  0.00000000000E+00 0. -1.
<mgrwt>
<rscale>  0 0.11637684E+03</rscale>
<asrwt>0</asrwt>
<pdfrwt beam="1">  1        2 0.10992366E+00 0.12644642E+03</pdfrwt>
<pdfrwt beam="2">  1       -2 0.25960694E-02 0.12644642E+03</pdfrwt>
<totfact> 0.20218339E+04</totfact>
</mgrwt>
</event>
<event>
 7    1  0.5107591E-006  0.1339584E+03  0.7546771E-02  0.1234778E+00
          1   -1    0    0  501    0  0.00000000000E+00  0.00000000000E+00  0.36292184287E+02  0.36292184287E+02  0.00000000000E+00 0. -1.
         -1   -1    0    0    0  501 -0.00000000000E+00 -0.00000000000E+00 -0.46799698977E+03  0.46799698977E+03  0.00000000000E+00 0.  1.
         23    2    1    2    0    0  0.41521360202E+02  0.24408694603E+02 -0.86028232139E+02  0.13356402015E+03  0.90103734817E+02 0.  0.
          5    1    1    2  502    0  0.13933217079E+02 -0.54125657876E+02 -0.24932363539E+03  0.25555446884E+03  0.47000000000E+01 0. -1.
         -5    1    1    2    0  502 -0.55454577281E+02  0.29716963273E+02 -0.96352937959E+02  0.11517068508E+03  0.47000000000E+01 0. -1.
        -11    1    3    3    0    0  0.47428881590E+02  0.43769798566E+02 -0.24907654626E+02  0.69178647966E+02  0.00000000000E+00 0. -1.
         11    1    3    3    0    0 -0.59075213878E+01 -0.19361103963E+02 -0.61120577512E+02  0.64385372182E+02  0.00000000000E+00 0.  1.
<mgrwt>
<rscale>  0 0.12518639E+03</rscale>
<asrwt>0</asrwt>
<pdfrwt beam="1">  1        1 0.55834129E-02 0.13395838E+03</pdfrwt>
<pdfrwt beam="2">  1       -1 0.71999538E-01 0.13395838E+03</pdfrwt>
<totfact> 0.27893833E+03</totfact>
</mgrwt>
</event>
<event>
 7    1  0.5107591E-006  0.1753584E+03  0.7546771E-02  0.1178165E+00
          2   -1    0    0  501    0  0.00000000000E+00  0.00000000000E+00  0.19481258881E+03  0.19481258881E+03  0.00000000000E+00 0. -1.
         -2   -1    0    0    0  501 -0.00000000000E+00 -0.00000000000E+00 -0.14412054006E+03  0.14412054006E+03  0.00000000000E+00 0.  1.
         23    2    1    2    0    0  0.74264382785E+02 -0.98034930417E+02  0.55547387026E+02  0.16350756758E+03  0.92320996091E+02 0.  0.
          5    1    1    2  502    0 -0.97125864922E+02  0.97214354388E+02  0.22639456603E+02  0.13935099329E+03  0.47000000000E+01 0.  1.
         -5    1    1    2    0  502  0.22861482137E+02  0.82057602943E+00 -0.27494794884E+02  0.36074567998E+02  0.47000000000E+01 0.  1.
        -11    1    3    3    0    0  0.61762644830E+02 -0.89743734660E+01  0.11875519329E+02  0.63531028913E+02  0.00000000000E+00 0.  1.
         11    1    3    3    0    0  0.12501737956E+02 -0.89060556951E+02  0.43671867697E+02  0.99976538670E+02  0.00000000000E+00 0. -1.
<mgrwt>
<rscale>  0 0.16969613E+03</rscale>
<asrwt>0</asrwt>
<pdfrwt beam="1">  1        2 0.29971168E-01 0.17535836E+03</pdfrwt>
<pdfrwt beam="2">  1       -2 0.22172391E-01 0.17535836E+03</pdfrwt>
<totfact> 0.30155781E+03</totfact>
</mgrwt>
</event>
<event>
 7    1  0.5107591E-006  0.1386673E+03  0.7546771E-02  0.1226715E+00
         -1   -1    0    0    0  501 -0.00000000000E+00  0.00000000000E+00  0.22522839001E+03  0.22522839001E+03  0.00000000000E+00 0.  1.
          1   -1    0    0  501    0  0.00000000000E+00 -0.00000000000E+00 -0.69017388070E+02  0.69017388070E+02  0.00000000000E+00 0. -1.
         23    2    1    2    0    0  0.58597583260E+02 -0.13062540796E+02  0.50744254459E+02  0.12002791379E+03  0.90705093523E+02 0.  0.
          5    1    1    2  502    0 -0.87339517273E+02 -0.76321759410E+01  0.33688765489E+02  0.94039695381E+02  0.47000000000E+01 0. -1.
         -5    1    1    2    0  502  0.28741934013E+02  0.20694716737E+02  0.71777981996E+02  0.80178168918E+02  0.47000000000E+01 0. -1.
        -11    1    3    3    0    0  0.72837916560E+02 -0.34054812756E+02  0.49932137487E+02  0.94648352943E+02  0.00000000000E+00 0.  1.
         11    1    3    3    0    0 -0.14240333300E+02  0.20992271960E+02  0.81211697182E+00  0.25379560842E+02  0.00000000000E+00 0. -1.
<mgrwt>
<rscale>  0 0.13050033E+03</rscale>
<asrwt>0</asrwt>
<pdfrwt beam="2">  1        1 0.10618060E-01 0.13866733E+03</pdfrwt>
<pdfrwt beam="1">  1       -1 0.34650521E-01 0.13866733E+03</pdfrwt>
<totfact> 0.45079175E+03</totfact>
</mgrwt>
</event>
<event>
 7    1  0.5107591E-006  0.1284114E+03  0.7546771E-02  0.1242008E+00
          1   -1    0    0  501    0  0.00000000000E+00  0.00000000000E+00  0.19264046857E+03  0.19264046857E+03  0.00000000000E+00 0. -1.
         -1   -1    0    0    0  501 -0.00000000000E+00 -0.00000000000E+00 -0.67998430572E+02  0.67998430572E+02  0.00000000000E+00 0.  1.
         23    2    1    2    0    0 -0.12595131523E+02  0.26511554321E+02  0.47168330736E+02  0.11066665555E+03  0.95711845535E+02 0.  0.
          5    1    1    2  502    0  0.52986252441E+02  0.12389196429E+02  0.49839669054E+00  0.54620266707E+02  0.47000000000E+01 0. -1.
         -5    1    1    2    0  502 -0.40391120918E+02 -0.38900750750E+02  0.76975310568E+02  0.95351976880E+02  0.47000000000E+01 0. -1.
        -11    1    3    3    0    0 -0.85267417010E+01 -0.35232679850E+02  0.28260647402E+02  0.45964238763E+02  0.00000000000E+00 0. -1.
         11    1    3    3    0    0 -0.40683898221E+01  0.61744234171E+02  0.18907683334E+02  0.64702416788E+02  0.00000000000E+00 0.  1.
<mgrwt>
<rscale>  0 0.12066282E+03</rscale>
<asrwt>0</asrwt>
<pdfrwt beam="1">  1        1 0.29636995E-01 0.12841144E+03</pdfrwt>
<pdfrwt beam="2">  1       -1 0.10461297E-01 0.12841144E+03</pdfrwt>
<totfact> 0.82350423E+03</totfact>
</mgrwt>
</event>
<event>
 7    1  0.5107591E-006  0.1407307E+03  0.7546771E-02  0.1223541E+00
          2   -1    0    0  501    0  0.00000000000E+00  0.00000000000E+00  0.33923661176E+03  0.33923661176E+03  0.00000000000E+00 0. -1.
         -2   -1    0    0    0  501 -0.00000000000E+00 -0.00000000000E+00 -0.51558624468E+02  0.51558624468E+02  0.00000000000E+00 0.  1.
         23    2    1    2    0    0  0.62770618224E+02 -0.15475957031E+02  0.18775923866E+03  0.21820067518E+03  0.90434214709E+02 0.  0.
          5    1    1    2  502    0 -0.61528000956E+02 -0.46401978504E+02  0.67583463864E+02  0.10260825064E+03  0.47000000000E+01 0. -1.
         -5    1    1    2    0  502 -0.12426172681E+01  0.61877935536E+02  0.32335284774E+02  0.69986310413E+02  0.47000000000E+01 0. -1.
        -11    1    3    3    0    0  0.82166601129E+02 -0.96335672925E+01  0.17673232652E+03  0.19513705747E+03  0.00000000000E+00 0. -1.
         11    1    3    3    0    0 -0.19395982905E+02 -0.58423897390E+01  0.11026912134E+02  0.23063617711E+02  0.00000000000E+00 0.  1.
<mgrwt>
<rscale>  0 0.13267379E+03</rscale>
<asrwt>0</asrwt>
<pdfrwt beam="1">  1        2 0.52190247E-01 0.14073069E+03</pdfrwt>
<pdfrwt beam="2">  1       -2 0.79320963E-02 0.14073069E+03</pdfrwt>
<totfact> 0.87259028E+03</totfact>
</mgrwt>
</event>
<event>
 7    1  0.5107591E-006  0.1454372E+03  0.7546771E-02  0.1216587E+00
          2   -1    0    0  501    0  0.00000000000E+00  0.00000000000E+00  0.93967939504E+02  0.93967939504E+02  0.00000000000E+00 0. -1.
         -2   -1    0    0    0  501 -0.00000000000E+00 -0.00000000000E+00 -0.18385674781E+03  0.18385674781E+03  0.00000000000E+00 0.  1.
         23    2    1    2    0    0  0.43533659492E+02  0.60900326992E+02 -0.51378868942E+02  0.12737542011E+03  0.89334652500E+02 0.  0.
          5    1    1    2  502    0  0.37302606140E+01 -0.21610147644E+01 -0.68776454920E+02  0.69071525106E+02  0.47000000000E+01 0. -1.
         -5    1    1    2    0  502 -0.47263920106E+02 -0.58739312228E+02  0.30266515559E+02  0.81377742097E+02  0.47000000000E+01 0. -1.
        -11    1    3    3    0    0  0.43839662540E+02  0.25287405444E+02  0.14361319469E+02  0.52608139889E+02  0.00000000000E+00 0. -1.
         11    1    3    3    0    0 -0.30600304746E+00  0.35612921548E+02 -0.65740188411E+02  0.74767280219E+02  0.00000000000E+00 0.  1.
<mgrwt>
<rscale>  0 0.13760614E+03</rscale>
<asrwt>0</asrwt>
<pdfrwt beam="1">  1        2 0.14456606E-01 0.14543716E+03</pdfrwt>
<pdfrwt beam="2">  1       -2 0.28285653E-01 0.14543716E+03</pdfrwt>
<totfact> 0.44473693E+03</totfact>
</mgrwt>
</event>
<event>
 7    1  0.5107591E-006  0.1368872E+03  0.7546771E-02  0.1229327E+00
          2   -1    0    0  501    0  0.00000000000E+00  0.00000000000E+00  0.66276024200E+03  0.66276024200E+03  0.00000000000E+00 0. -1.
         -2   -1    0    0    0  501 -0.00000000000E+00 -0.00000000000E+00 -0.23322642556E+02  0.23322642556E+02  0.00000000000E+00 0.  1.
         23    2    1    2    0    0 -0.29781797100E+02 -0.47184003150E+02  0.34772218355E+03  0.36384694152E+03  0.91436285629E+02 0.  0.
          5    1    1    2  502    0 -0.70764786384E+01 -0.35045042442E+02  0.14967266701E+03  0.15395528182E+03  0.47000000000E+01 0. -1.
         -5    1    1    2    0  502  0.36858275738E+02  0.82229045592E+02  0.14204274889E+03  0.16828066122E+03  0.47000000000E+01 0. -1.
        -11    1    3    3    0    0  0.14369272581E+02 -0.58829022864E+02  0.22110164698E+03  0.22924499607E+03  0.00000000000E+00 0.  1.
         11    1    3    3    0    0 -0.44151069680E+02  0.11645019714E+02  0.12662053657E+03  0.13460194545E+03  0.00000000000E+00 0. -1.
<mgrwt>
<rscale>  0 0.12874668E+03</rscale>
<asrwt>0</asrwt>
<pdfrwt beam="1">  1        2 0.10196310E+00 0.13688725E+03</pdfrwt>
<pdfrwt beam="2">  1       -2 0.35880994E-02 0.13688725E+03</pdfrwt>
<totfact> 0.13816150E+04</totfact>
</mgrwt>
</event>
<event>
 7    1  0.5107591E-006  0.1262176E+03  0.7546771E-02  0.1248436E+00
          2   -1    0    0  501    0  0.00000000000E+00  0.00000000000E+00  0.12041987234E+03  0.12041987234E+03  0.00000000000E+00 0. -1.
         -2   -1    0    0    0  501 -0.00000000000E+00 -0.00000000000E+00 -0.10245276675E+03  0.10245276675E+03  0.00000000000E+00 0.  1.
         23    2    1    2    0    0  0.15613575050E+02  0.78936381141E+01  0.26577620290E+02  0.96361643825E+02  0.90956600926E+02 0.  0.
          5    1    1    2  502    0 -0.68351888115E+02  0.56323368802E+01  0.84507909535E+01  0.69261892086E+02  0.47000000000E+01 0. -1.
         -5    1    1    2    0  502  0.52738313065E+02 -0.13525974994E+02 -0.17061305652E+02  0.57249103181E+02  0.47000000000E+01 0. -1.
        -11    1    3    3    0    0  0.27762376778E+02 -0.24042596812E+02  0.44564462923E+02  0.57747617972E+02  0.00000000000E+00 0. -1.
         11    1    3    3    0    0 -0.12148801728E+02  0.31936234926E+02 -0.17986842633E+02  0.38614025853E+02  0.00000000000E+00 0.  1.
<mgrwt>
<rscale>  0 0.11682098E+03</rscale>
<asrwt>0</asrwt>
<pdfrwt beam="1">  1        2 0.18526134E-01 0.12621763E+03</pdfrwt>
<pdfrwt beam="2">  1       -2 0.15761964E-01 0.12621763E+03</pdfrwt>
<totfact> 0.89610190E+03</totfact>
</mgrwt>
</event>
<event>
 7    1  0.5107591E-006  0.1671546E+03  0.7546771E-02  0.1187219E+00
         -1   -1    0    0    0  501 -0.00000000000E+00  0.00000000000E+00  0.41130735818E+02  0.41130735818E+02  0.00000000000E+00 0.  1.
          1   -1    0    0  501    0  0.00000000000E+00 -0.00000000000E+00 -0.60435858639E+03  0.60435858639E+03  0.00000000000E+00 0. -1.
         23    2    1    2    0    0  0.14893168622E+02 -0.10996609223E+03 -0.30760135129E+03  0.34006247076E+03  0.93324941963E+02 0.  0.
          5    1    1    2  502    0 -0.15661422532E+02 -0.48659244555E+01 -0.14468109893E+03  0.14568345055E+03  0.47000000000E+01 0.  1.
         -5    1    1    2    0  502  0.76825391036E+00  0.11483201669E+03 -0.11094540035E+03  0.15974340089E+03  0.47000000000E+01 0.  1.
        -11    1    3    3    0    0  0.25448792597E+02 -0.84223193948E+02 -0.29786081971E+03  0.31058373325E+03  0.00000000000E+00 0. -1.
         11    1    3    3    0    0 -0.10555623975E+02 -0.25742898283E+02 -0.97405315787E+01  0.29478737506E+02  0.00000000000E+00 0.  1.
<mgrwt>
<rscale>  0 0.16131615E+03</rscale>
<asrwt>0</asrwt>
<pdfrwt beam="2">  1        1 0.92978242E-01 0.16715458E+03</pdfrwt>
<pdfrwt beam="1">  1       -1 0.63278057E-02 0.16715458E+03</pdfrwt>
<totfact> 0.42003884E+03</totfact>
</mgrwt>
</event>
<event>
 7    1  0.5107591E-006  0.1692994E+03  0.7546771E-02  0.1185434E+00
         -2   -1    0    0    0  501 -0.00000000000E+00  0.00000000000E+00  0.13958407608E+03  0.13958407608E+03  0.00000000000E+00 0.  1.
          2   -1    0    0  501    0  0.00000000000E+00 -0.00000000000E+00 -0.22328807333E+03  0.22328807333E+03  0.00000000000E+00 0. -1.
         23    2    1    2    0    0  0.59659939230E+02  0.97378175830E+02 -0.12158477640E+03  0.18938659889E+03  0.89680591603E+02 0.  0.
          5    1    1    2  502    0 -0.12990287873E+02 -0.93476439214E+02 -0.22297260986E+02  0.97086817409E+02  0.47000000000E+01 0. -1.
         -5    1    1    2    0  502 -0.46669651356E+02 -0.39017366167E+01  0.60178040140E+02  0.76398733114E+02  0.47000000000E+01 0. -1.
        -11    1    3    3    0    0  0.17742811898E+02  0.65473123863E+01  0.12073848085E+02  0.22437746792E+02  0.00000000000E+00 0.  1.
         11    1    3    3    0    0  0.41917127332E+02  0.90830863444E+02 -0.13365862448E+03  0.16694885210E+03  0.00000000000E+00 0. -1.
<mgrwt>
<rscale>  0 0.16292464E+03</rscale>
<asrwt>0</asrwt>
<pdfrwt beam="2">  1        2 0.34352011E-01 0.16929939E+03</pdfrwt>
<pdfrwt beam="1">  1       -2 0.21474473E-01 0.16929939E+03</pdfrwt>
<totfact> 0.27436385E+03</totfact>
</mgrwt>
</event>
<event>
 7    1  0.5107591E-006  0.1368351E+03  0.7546771E-02  0.1229452E+00
         -1   -1    0    0    0  501 -0.00000000000E+00  0.00000000000E+00  0.50102067754E+03  0.50102067754E+03  0.00000000000E+00 0.  1.
          1   -1    0    0  501    0  0.00000000000E+00 -0.00000000000E+00 -0.32238299894E+02  0.32238299894E+02  0.00000000000E+00 0. -1.
         23    2    1    2    0    0 -0.30107889164E+02 -0.46837268969E+02  0.13306003161E+03  0.17072162217E+03  0.91327353571E+02 0.  0.
          5    1    1    2  502    0  0.76964319017E+02  0.17851531584E+02  0.22982712986E+03  0.24307361683E+03  0.47000000000E+01 0.  1.
         -5    1    1    2    0  502 -0.46856429852E+02  0.28985737385E+02  0.10589521618E+03  0.11946373843E+03  0.47000000000E+01 0.  1.
        -11    1    3    3    0    0 -0.10879276360E+02 -0.55592038808E+02  0.13786965033E+03  0.14905325865E+03  0.00000000000E+00 0.  1.
         11    1    3    3    0    0 -0.19228612804E+02  0.87547698392E+01 -0.48096187208E+01  0.21668363518E+02  0.00000000000E+00 0. -1.
<mgrwt>
<rscale>  0 0.12866358E+03</rscale>
<asrwt>0</asrwt>
<pdfrwt beam="2">  1        1 0.49597388E-02 0.13683508E+03</pdfrwt>
<pdfrwt beam="1">  1       -1 0.77080098E-01 0.13683508E+03</pdfrwt>
<totfact> 0.28627546E+03</totfact>
</mgrwt>
</event>
<event>
 7    1  0.5107591E-006  0.1385673E+03  0.7546771E-02  0.1227214E+00
          2   -1    0    0  501    0  0.00000000000E+00  0.00000000000E+00  0.20723368030E+03  0.20723368030E+03  0.00000000000E+00 0. -1.
         -2   -1    0    0    0  501 -0.00000000000E+00 -0.00000000000E+00 -0.17408670084E+03  0.17408670084E+03  0.00000000000E+00 0.  1.
         23    2    1    2    0    0  0.17372286157E+02 -0.57210553677E+02  0.16032021684E+03  0.19324082019E+03  0.89803111759E+02 0.  0.
          5    1    1    2  502    0  0.19516848409E+02  0.40475159331E+01 -0.12120987137E+03  0.12292767253E+03  0.47000000000E+01 0.  1.
         -5    1    1    2    0  502 -0.36889134565E+02  0.53163037744E+02 -0.59633660120E+01  0.65151888425E+02  0.47000000000E+01 0.  1.
        -11    1    3    3    0    0  0.26910202871E+02 -0.25980433140E+02  0.90474000855E+01  0.38483728679E+02  0.00000000000E+00 0.  1.
         11    1    3    3    0    0 -0.95379167148E+01 -0.31230120536E+02  0.15127281676E+03  0.15475709151E+03  0.00000000000E+00 0. -1.
<mgrwt>
<rscale>  0 0.13016284E+03</rscale>
<asrwt>0</asrwt>
<pdfrwt beam="1">  1        2 0.31882105E-01 0.13856727E+03</pdfrwt>
<pdfrwt beam="2">  1       -2 0.26782569E-01 0.13856727E+03</pdfrwt>
<totfact> 0.20081210E+03</totfact>
</mgrwt>
</event>
<event>
 7    1  0.5107591E-006  0.1227855E+03  0.7546771E-02  0.1246782E+00
          4   -1    0    0  501    0  0.00000000000E+00  0.00000000000E+00  0.26199074770E+02  0.26199074770E+02  0.00000000000E+00 0. -1.
         -4   -1    0    0    0  501 -0.00000000000E+00 -0.00000000000E+00 -0.72398250380E+03  0.72398250380E+03  0.00000000000E+00 0.  1.
         23    2    1    2    0    0  0.61197454678E+01 -0.47027956553E+02 -0.11691884517E+03  0.15648135802E+03  0.92559813479E+02 0.  0.
          5    1    1    2  502    0  0.23778020619E+02  0.27713804890E+02 -0.52533529920E+02  0.64150689879E+02  0.47000000000E+01 0. -1.
         -5    1    1    2    0  502 -0.29897766087E+02  0.19314151664E+02 -0.52833105394E+03  0.52954953067E+03  0.47000000000E+01 0.  1.
        -11    1    3    3    0    0 -0.24653110246E+02 -0.91733457577E+01 -0.10219085652E+03  0.10552202270E+03  0.00000000000E+00 0.  1.
         11    1    3    3    0    0  0.30772855714E+02 -0.37854610796E+02 -0.14727988644E+02  0.50959335325E+02  0.00000000000E+00 0. -1.
<mgrwt>
<rscale>  0 0.11779334E+03</rscale>
<asrwt>0</asrwt>
<pdfrwt beam="1">  1        4 0.40306268E-02 0.12278553E+03</pdfrwt>
<pdfrwt beam="2">  1       -4 0.11138193E+00 0.12278553E+03</pdfrwt>
<totfact> 0.36618736E+02</totfact>
</mgrwt>
</event>
<event>
 7    1  0.5107591E-006  0.1610370E+03  0.7546771E-02  0.1193766E+00
          3   -1    0    0  501    0  0.00000000000E+00  0.00000000000E+00  0.54577227094E+03  0.54577227094E+03  0.00000000000E+00 0. -1.
         -3   -1    0    0    0  501 -0.00000000000E+00 -0.00000000000E+00 -0.41872022325E+02  0.41872022325E+02  0.00000000000E+00 0.  1.
         23    2    1    2    0    0  0.11988064498E+00 -0.10152167995E+03  0.21128988264E+03  0.25364765235E+03  0.96886795625E+02 0.  0.
          5    1    1    2  502    0 -0.34027868569E+02  0.65498621064E+01  0.14013732740E+02  0.37673216457E+02  0.47000000000E+01 0. -1.
         -5    1    1    2    0  502  0.33907987924E+02  0.94971817847E+02  0.27859663324E+03  0.29632342446E+03  0.47000000000E+01 0. -1.
        -11    1    3    3    0    0  0.30912565869E+02 -0.10199152553E+02  0.10611315801E+03  0.11099374642E+03  0.00000000000E+00 0. -1.
         11    1    3    3    0    0 -0.30792685224E+02 -0.91322527400E+02  0.10517672463E+03  0.14265390593E+03  0.00000000000E+00 0.  1.
<mgrwt>
<rscale>  0 0.15559130E+03</rscale>
<asrwt>0</asrwt>
<pdfrwt beam="1">  1        3 0.83964959E-01 0.16103705E+03</pdfrwt>
<pdfrwt beam="2">  1       -3 0.64418500E-02 0.16103705E+03</pdfrwt>
<totfact> 0.48422585E+02</totfact>
</mgrwt>
</event>
<event>
 7    1  0.5107591E-006  0.1829650E+03  0.7546771E-02  0.1170288E+00
         -1   -1    0    0    0  501 -0.00000000000E+00  0.00000000000E+00  0.18982958154E+03  0.18982958154E+03  0.00000000000E+00 0.  1.
          1   -1    0    0  501    0  0.00000000000E+00 -0.00000000000E+00 -0.17471530511E+03  0.17471530511E+03  0.00000000000E+00 0. -1.
         23    2    1    2    0    0 -0.58842339027E+02 -0.11995231466E+03 -0.51395958336E+02  0.16986620605E+03  0.91443998000E+02 0.  0.
          5    1    1    2  502    0 -0.11257878571E+02 -0.11876385337E+02  0.39312628268E+02  0.42841114597E+02  0.47000000000E+01 0. -1.
         -5    1    1    2    0  502  0.70100217598E+02  0.13182869999E+03  0.27197606500E+02  0.15183756600E+03  0.47000000000E+01 0. -1.
        -11    1    3    3    0    0 -0.20681656511E+02 -0.81499831508E+02  0.13683731499E+02  0.85189189218E+02  0.00000000000E+00 0.  1.
         11    1    3    3    0    0 -0.38160682515E+02 -0.38452483150E+02 -0.65079689834E+02  0.84677016831E+02  0.00000000000E+00 0. -1.
<mgrwt>
<rscale>  0 0.17745592E+03</rscale>
<asrwt>0</asrwt>
<pdfrwt beam="2">  1        1 0.26879278E-01 0.18296496E+03</pdfrwt>
<pdfrwt beam="1">  1       -1 0.29204551E-01 0.18296496E+03</pdfrwt>
<totfact> 0.18408228E+03</totfact>
</mgrwt>
</event>
<event>
 7    1  0.5107591E-006  0.1517966E+03  0.7546771E-02  0.1207132E+00
          2   -1    0    0  501    0  0.00000000000E+00  0.00000000000E+00  0.72743185635E+03  0.72743185635E+03  0.00000000000E+00 0. -1.
         -2   -1    0    0    0  501 -0.00000000000E+00 -0.00000000000E+00 -0.26930728997E+02  0.26930728997E+02  0.00000000000E+00 0.  1.
         23    2    1    2    0    0 -0.32189730643E+02 -0.79887166700E+02  0.26480099577E+03  0.29297683385E+03  0.91091819883E+02 0.  0.
          5    1    1    2  502    0 -0.37572769437E+02 -0.51388922238E+01  0.16047060332E+03  0.16495764834E+03  0.47000000000E+01 0.  1.
         -5    1    1    2    0  502  0.69762500080E+02  0.85026058923E+02  0.27522952827E+03  0.29642810316E+03  0.47000000000E+01 0.  1.
        -11    1    3    3    0    0 -0.18008710293E+02 -0.69582907500E+02  0.26587072559E+03  0.27541484598E+03  0.00000000000E+00 0.  1.
         11    1    3    3    0    0 -0.14181020350E+02 -0.10304259199E+02 -0.10697298228E+01  0.17561987863E+02  0.00000000000E+00 0. -1.
<mgrwt>
<rscale>  0 0.14470675E+03</rscale>
<asrwt>0</asrwt>
<pdfrwt beam="1">  1        2 0.11191258E+00 0.15179660E+03</pdfrwt>
<pdfrwt beam="2">  1       -2 0.41431896E-02 0.15179660E+03</pdfrwt>
<totfact> 0.10057811E+04</totfact>
</mgrwt>
</event>
<event>
 7    1  0.5107591E-006  0.1925625E+03  0.7546771E-02  0.1160922E+00
         -2   -1    0    0    0  501 -0.00000000000E+00  0.00000000000E+00  0.87668546858E+02  0.87668546858E+02  0.00000000000E+00 0.  1.
          2   -1    0    0  501    0  0.00000000000E+00 -0.00000000000E+00 -0.39218166475E+03  0.39218166475E+03  0.00000000000E+00 0. -1.
         23    2    1    2    0    0 -0.80623330850E+02  0.12225323076E+03 -0.18677748096E+03  0.25414690043E+03  0.90878191550E+02 0.  0.
          5    1    1    2  502    0  0.14847092020E+02 -0.97109205114E+02 -0.11992316455E+03  0.15509445269E+03  0.47000000000E+01 0. -1.
         -5    1    1    2    0  502  0.65776238830E+02 -0.25144025645E+02  0.21875276080E+01  0.70608858490E+02  0.47000000000E+01 0. -1.
        -11    1    3    3    0    0 -0.10594180996E+02  0.77024015169E+02 -0.13565171489E+03  0.15635320060E+03  0.00000000000E+00 0. -1.
         11    1    3    3    0    0 -0.70029149855E+02  0.45229215590E+02 -0.51125766065E+02  0.97793699838E+02  0.00000000000E+00 0.  1.
<mgrwt>
<rscale>  0 0.18729755E+03</rscale>
<asrwt>0</asrwt>
<pdfrwt beam="2">  1        2 0.60335640E-01 0.19256247E+03</pdfrwt>
<pdfrwt beam="1">  1       -2 0.13487469E-01 0.19256247E+03</pdfrwt>
<totfact> 0.32765256E+03</totfact>
</mgrwt>
</event>
<event>
 7    1  0.5107591E-006  0.1287979E+03  0.7546771E-02  0.1243063E+00
          1   -1    0    0  501    0  0.00000000000E+00  0.00000000000E+00  0.20066136699E+03  0.20066136699E+03  0.00000000000E+00 0. -1.
         -1   -1    0    0    0  501 -0.00000000000E+00 -0.00000000000E+00 -0.63589547545E+02  0.63589547545E+02  0.00000000000E+00 0.  1.
         23    2    1    2    0    0  0.29391158930E+02 -0.10043350340E+02  0.58128974474E+02  0.11318514847E+03  0.92017341035E+02 0.  0.
          5    1    1    2  502    0 -0.37408076832E+02 -0.43097192804E+02  0.22570206328E+01  0.57305465551E+02  0.47000000000E+01 0.  1.
         -5    1    1    2    0  502  0.80169179020E+01  0.53140543144E+02  0.76685824334E+02  0.93760300512E+02  0.47000000000E+01 0.  1.
        -11    1    3    3    0    0 -0.25859853425E+02 -0.21773182146E+02  0.24833892241E+01  0.33896470347E+02  0.00000000000E+00 0.  1.
         11    1    3    3    0    0  0.55251012356E+02  0.11729831806E+02  0.55645585249E+02  0.79288678122E+02  0.00000000000E+00 0. -1.
<mgrwt>
<rscale>  0 0.12002077E+03</rscale>
<asrwt>0</asrwt>
<pdfrwt beam="1">  1        1 0.30870979E-01 0.12879788E+03</pdfrwt>
<pdfrwt beam="2">  1       -1 0.97830074E-02 0.12879788E+03</pdfrwt>
<totfact> 0.86730855E+03</totfact>
</mgrwt>
</event>
<event>
 7    1  0.5107591E-006  0.1278553E+03  0.7546771E-02  0.1245149E+00
         -1   -1    0    0    0  501 -0.00000000000E+00  0.00000000000E+00  0.85820413399E+02  0.85820413399E+02  0.00000000000E+00 0.  1.
          1   -1    0    0  501    0  0.00000000000E+00 -0.00000000000E+00 -0.14495303153E+03  0.14495303153E+03  0.00000000000E+00 0. -1.
         23    2    1    2    0    0  0.26876157549E+02 -0.11406777471E+01 -0.23558892278E+02  0.98061512135E+02  0.91309417732E+02 0.  0.
          5    1    1    2  502    0  0.52038977489E+01  0.36825077743E+02  0.32282201740E+02  0.49471177990E+02  0.47000000000E+01 0.  1.
         -5    1    1    2    0  502 -0.32080055297E+02 -0.35684399996E+02 -0.67855927592E+02  0.83240754804E+02  0.47000000000E+01 0.  1.
        -11    1    3    3    0    0  0.25124671067E+02  0.10441735265E+02 -0.56711355307E+02  0.62900371639E+02  0.00000000000E+00 0. -1.
         11    1    3    3    0    0  0.17514864817E+01 -0.11582413012E+02  0.33152463029E+02  0.35161140496E+02  0.00000000000E+00 0.  1.
<mgrwt>
<rscale>  0 0.11876438E+03</rscale>
<asrwt>0</asrwt>
<pdfrwt beam="2">  1        1 0.22300466E-01 0.12785526E+03</pdfrwt>
<pdfrwt beam="1">  1       -1 0.13203141E-01 0.12785526E+03</pdfrwt>
<totfact> 0.82131960E+03</totfact>
</mgrwt>
</event>
<event>
 7    1  0.5107591E-006  0.2639627E+03  0.7546771E-02  0.1106886E+00
          2   -1    0    0  501    0  0.00000000000E+00  0.00000000000E+00  0.11738026677E+04  0.11738026677E+04  0.00000000000E+00 0.  1.
         -2   -1    0    0    0  501 -0.00000000000E+00 -0.00000000000E+00 -0.62601180816E+02  0.62601180816E+02  0.00000000000E+00 0. -1.
         23    2    1    2    0    0  0.13692361498E+03 -0.18788993375E+03  0.34583237535E+03  0.42679519567E+03  0.92213901680E+02 0.  0.
          5    1    1    2  502    0 -0.60885197505E+02  0.17635490975E+03  0.55840726617E+03  0.58876890745E+03  0.47000000000E+01 0. -1.
         -5    1    1    2    0  502 -0.76038417475E+02  0.11535024005E+02  0.20696184539E+03  0.22083974542E+03  0.47000000000E+01 0. -1.
        -11    1    3    3    0    0  0.97546644866E+02 -0.65078612461E+02  0.20232896813E+03  0.23385376856E+03  0.00000000000E+00 0.  1.
         11    1    3    3    0    0  0.39376970114E+02 -0.12281132129E+03  0.14350340722E+03  0.19294142711E+03  0.00000000000E+00 0. -1.
<mgrwt>
<rscale>  0 0.26042872E+03</rscale>
<asrwt>0</asrwt>
<pdfrwt beam="1">  1        2 0.18058501E+00 0.26396268E+03</pdfrwt>
<pdfrwt beam="2">  1       -2 0.96309518E-02 0.26396268E+03</pdfrwt>
<totfact> 0.14587899E+03</totfact>
</mgrwt>
</event>
<event>
 7    1  0.5107591E-006  0.1740694E+03  0.7546771E-02  0.1178373E+00
         -2   -1    0    0    0  501 -0.00000000000E+00  0.00000000000E+00  0.24878718399E+02  0.24878718399E+02  0.00000000000E+00 0.  1.
          2   -1    0    0  501    0  0.00000000000E+00 -0.00000000000E+00 -0.11030135021E+04  0.11030135021E+04  0.00000000000E+00 0. -1.
         23    2    1    2    0    0 -0.38016622520E+02 -0.12848289270E+03 -0.47265121667E+03  0.49788388964E+03  0.80846011917E+02 0.  0.
          5    1    1    2  502    0 -0.31593188670E+02  0.64555734535E+02 -0.35530843480E+03  0.36253516556E+03  0.47000000000E+01 0. -1.
         -5    1    1    2    0  502  0.69609811190E+02  0.63927158164E+02 -0.25017513227E+03  0.26747316533E+03  0.47000000000E+01 0.  1.
        -11    1    3    3    0    0 -0.38769478112E+02 -0.20328970772E+02 -0.87570801761E+02  0.97902935639E+02  0.00000000000E+00 0. -1.
         11    1    3    3    0    0  0.75285559217E+00 -0.10815392193E+03 -0.38508041491E+03  0.39998095400E+03  0.00000000000E+00 0.  1.
<mgrwt>
<rscale>  0 0.16949761E+03</rscale>
<asrwt>0</asrwt>
<pdfrwt beam="2">  1        2 0.16969441E+00 0.17406937E+03</pdfrwt>
<pdfrwt beam="1">  1       -2 0.38274945E-02 0.17406937E+03</pdfrwt>
<totfact> 0.65733295E+03</totfact>
</mgrwt>
</event>
<event>
 7    1  0.5107591E-006  0.1418697E+03  0.7546771E-02  0.1220897E+00
         -2   -1    0    0    0  501 -0.00000000000E+00  0.00000000000E+00  0.34816071129E+03  0.34816071129E+03  0.00000000000E+00 0.  1.
          2   -1    0    0  501    0  0.00000000000E+00 -0.00000000000E+00 -0.61013254379E+02  0.61013254379E+02  0.00000000000E+00 0. -1.
         23    2    1    2    0    0 -0.29735611892E+02 -0.60216165883E+02  0.35084519835E+02  0.11992883463E+03  0.92961328498E+02 0.  0.
          5    1    1    2  502    0  0.25612479309E+02  0.90526835581E+02  0.23657181276E+03  0.25463585696E+03  0.47000000000E+01 0.  1.
         -5    1    1    2    0  502  0.41231325834E+01 -0.30310669698E+02  0.15491124322E+02  0.34609274084E+02  0.47000000000E+01 0.  1.
        -11    1    3    3    0    0 -0.37325487042E+02 -0.68292898499E+02  0.56256865172E+02  0.96030968168E+02  0.00000000000E+00 0.  1.
         11    1    3    3    0    0  0.75898751495E+01  0.80767326161E+01 -0.21172345336E+02  0.23897866465E+02  0.00000000000E+00 0. -1.
<mgrwt>
<rscale>  0 0.13452138E+03</rscale>
<asrwt>0</asrwt>
<pdfrwt beam="2">  1        2 0.93866547E-02 0.14186973E+03</pdfrwt>
<pdfrwt beam="1">  1       -2 0.53563185E-01 0.14186973E+03</pdfrwt>
<totfact> 0.22405856E+03</totfact>
</mgrwt>
</event>
<event>
 7    1  0.5107591E-006  0.1531475E+03  0.7546771E-02  0.1206245E+00
         -3   -1    0    0    0  501 -0.00000000000E+00  0.00000000000E+00  0.16052422563E+03  0.16052422563E+03  0.00000000000E+00 0.  1.
          3   -1    0    0  501    0  0.00000000000E+00 -0.00000000000E+00 -0.13029293184E+03  0.13029293184E+03  0.00000000000E+00 0. -1.
         23    2    1    2    0    0  0.75104353460E+02  0.46776847745E+02 -0.27011957269E+02  0.12732117663E+03  0.87477418747E+02 0.  0.
          5    1    1    2  502    0 -0.69385978425E+02 -0.80634599865E+02  0.69017515683E+02  0.12689310528E+03  0.47000000000E+01 0.  1.
         -5    1    1    2    0  502 -0.57183750349E+01  0.33857752120E+02 -0.11774264626E+02  0.36602875558E+02  0.47000000000E+01 0.  1.
        -11    1    3    3    0    0  0.59965631962E+01  0.42024834211E+02  0.16470431324E+02  0.45533730010E+02  0.00000000000E+00 0.  1.
         11    1    3    3    0    0  0.69107790264E+02  0.47520135345E+01 -0.43482388593E+02  0.81787446625E+02  0.00000000000E+00 0. -1.
<mgrwt>
<rscale>  0 0.14539764E+03</rscale>
<asrwt>0</asrwt>
<pdfrwt beam="2">  1        3 0.20045066E-01 0.15314746E+03</pdfrwt>
<pdfrwt beam="1">  1       -3 0.24696035E-01 0.15314746E+03</pdfrwt>
<totfact> 0.80770599E+02</totfact>
</mgrwt>
</event>
<event>
 7    1  0.5107591E-006  0.1693112E+03  0.7546771E-02  0.1185280E+00
          2   -1    0    0  501    0  0.00000000000E+00  0.00000000000E+00  0.46524526497E+03  0.46524526497E+03  0.00000000000E+00 0. -1.
         -2   -1    0    0    0  501 -0.00000000000E+00 -0.00000000000E+00 -0.60138824730E+02  0.60138824730E+02  0.00000000000E+00 0.  1.
         23    2    1    2    0    0  0.89330719527E+02 -0.71138392086E+02  0.27735530293E+03  0.31328355214E+03  0.90443195982E+02 0.  0.
          5    1    1    2  502    0  0.19095468525E+02 -0.18827901807E+02  0.12238766390E+02  0.29849693590E+02  0.47000000000E+01 0. -1.
         -5    1    1    2    0  502 -0.10842618805E+03  0.89966293893E+02  0.11551237093E+03  0.18225084398E+03  0.47000000000E+01 0. -1.
        -11    1    3    3    0    0  0.98728050818E+02 -0.34395577285E+02  0.17167308174E+03  0.20100231528E+03  0.00000000000E+00 0.  1.
         11    1    3    3    0    0 -0.93973312908E+01 -0.36742814801E+02  0.10568222119E+03  0.11228123686E+03  0.00000000000E+00 0. -1.
<mgrwt>
<rscale>  0 0.16306436E+03</rscale>
<asrwt>0</asrwt>
<pdfrwt beam="1">  1        2 0.71576192E-01 0.16931121E+03</pdfrwt>
<pdfrwt beam="2">  1       -2 0.92521272E-02 0.16931121E+03</pdfrwt>
<totfact> 0.49419872E+03</totfact>
</mgrwt>
</event>
<event>
 7    1  0.5107591E-006  0.1529331E+03  0.7546771E-02  0.1213516E+00
         -1   -1    0    0    0  501 -0.00000000000E+00  0.00000000000E+00  0.16169450809E+03  0.16169450809E+03  0.00000000000E+00 0.  1.
          1   -1    0    0  501    0  0.00000000000E+00 -0.00000000000E+00 -0.17559479035E+03  0.17559479035E+03  0.00000000000E+00 0. -1.
         23    2    1    2    0    0  0.55520134516E+01 -0.57899757330E+02 -0.11256758802E+03  0.15528995379E+03  0.89779179792E+02 0.  0.
          5    1    1    2  502    0 -0.52570283151E+02  0.53563840592E+02  0.30557652847E+01  0.75260530101E+02  0.47000000000E+01 0. -1.
         -5    1    1    2    0  502  0.47018269700E+02  0.43359167378E+01  0.95611540468E+02  0.10673881454E+03  0.47000000000E+01 0.  1.
        -11    1    3    3    0    0  0.38022555835E+02 -0.17313991252E+02 -0.14363318381E+02  0.44179112261E+02  0.00000000000E+00 0.  1.
         11    1    3    3    0    0 -0.32470542383E+02 -0.40585766078E+02 -0.98204269634E+02  0.11111084153E+03  0.00000000000E+00 0. -1.
<mgrwt>
<rscale>  0 0.13986078E+03</rscale>
<asrwt>0</asrwt>
<pdfrwt beam="2">  1        1 0.27014583E-01 0.15293307E+03</pdfrwt>
<pdfrwt beam="1">  1       -1 0.24876078E-01 0.15293307E+03</pdfrwt>
<totfact> 0.23748142E+03</totfact>
</mgrwt>
</event>
<event>
 7    1  0.5107591E-006  0.1366423E+03  0.7546771E-02  0.1230459E+00
         -2   -1    0    0    0  501 -0.00000000000E+00  0.00000000000E+00  0.85348757955E+02  0.85348757955E+02  0.00000000000E+00 0.  1.
          2   -1    0    0  501    0  0.00000000000E+00 -0.00000000000E+00 -0.17332951566E+03  0.17332951566E+03  0.00000000000E+00 0. -1.
         23    2    1    2    0    0  0.54614322559E+02 -0.44149082844E+01 -0.52125489275E+02  0.11740998233E+03  0.89809919684E+02 0.  0.
          5    1    1    2  502    0 -0.42692687421E+02 -0.24605278777E+02 -0.75632077548E+02  0.90390190049E+02  0.47000000000E+01 0. -1.
         -5    1    1    2    0  502 -0.11921635138E+02  0.29020187061E+02  0.39776809123E+02  0.50878101237E+02  0.47000000000E+01 0.  1.
        -11    1    3    3    0    0  0.23209848082E+02 -0.45125709980E+02 -0.39920311933E+02  0.64565145814E+02  0.00000000000E+00 0. -1.
         11    1    3    3    0    0  0.31404474477E+02  0.40710801696E+02 -0.12205177343E+02  0.52844836511E+02  0.00000000000E+00 0.  1.
<mgrwt>
<rscale>  0 0.12799641E+03</rscale>
<asrwt>0</asrwt>
<pdfrwt beam="2">  1        2 0.26666079E-01 0.13664234E+03</pdfrwt>
<pdfrwt beam="1">  1       -2 0.13130578E-01 0.13664234E+03</pdfrwt>
<totfact> 0.80791547E+03</totfact>
</mgrwt>
</event>
<event>
 7    1  0.5107591E-006  0.1560468E+03  0.7546771E-02  0.1199920E+00
          2   -1    0    0  501    0  0.00000000000E+00  0.00000000000E+00  0.37425537600E+03  0.37425537600E+03  0.00000000000E+00 0. -1.
         -2   -1    0    0    0  501 -0.00000000000E+00 -0.00000000000E+00 -0.82486646437E+02  0.82486646437E+02  0.00000000000E+00 0.  1.
         23    2    1    2    0    0  0.71608957189E+02  0.59987624643E+02  0.26649042969E+03  0.29866099886E+03  0.97236234315E+02 0.  0.
          5    1    1    2  502    0 -0.21289066825E+02  0.87398918215E+01 -0.42877286074E+02  0.48889280384E+02  0.47000000000E+01 0.  1.
         -5    1    1    2    0  502 -0.50319890364E+02 -0.68727516465E+02  0.68155585946E+02  0.10919174319E+03  0.47000000000E+01 0.  1.
        -11    1    3    3    0    0  0.84262626991E+02  0.11935727692E+02  0.17191107854E+03  0.19182301955E+03  0.00000000000E+00 0.  1.
         11    1    3    3    0    0 -0.12653669802E+02  0.48051896951E+02  0.94579351147E+02  0.10683797931E+03  0.00000000000E+00 0. -1.
<mgrwt>
<rscale>  0 0.15045069E+03</rscale>
<asrwt>0</asrwt>
<pdfrwt beam="1">  1        2 0.57577749E-01 0.15604684E+03</pdfrwt>
<pdfrwt beam="2">  1       -2 0.12690253E-01 0.15604684E+03</pdfrwt>
<totfact> 0.37695564E+03</totfact>
</mgrwt>
</event>
<event>
 7    1  0.5107591E-006  0.1286640E+03  0.7546771E-02  0.1247448E+00
          2   -1    0    0  501    0  0.00000000000E+00  0.00000000000E+00  0.10437596226E+03  0.10437596226E+03  0.00000000000E+00 0. -1.
         -2   -1    0    0    0  501 -0.00000000000E+00 -0.00000000000E+00 -0.11803293401E+03  0.11803293401E+03  0.00000000000E+00 0.  1.
         23    2    1    2    0    0 -0.29503342077E+02  0.77397298529E+01  0.15390804946E+02  0.90506702147E+02  0.83810713186E+02 0.  0.
          5    1    1    2  502    0  0.38258067203E+02 -0.59402341993E+02  0.19507758943E+01  0.70839349707E+02  0.47000000000E+01 0. -1.
         -5    1    1    2    0  502 -0.87547251252E+01  0.51662612140E+02 -0.30998552592E+02  0.61062844415E+02  0.47000000000E+01 0. -1.
        -11    1    3    3    0    0 -0.41149557924E+02  0.36374460550E+02  0.21529228890E+02  0.58990636496E+02  0.00000000000E+00 0.  1.
         11    1    3    3    0    0  0.11646215846E+02 -0.28634730697E+02 -0.61384239436E+01  0.31516065651E+02  0.00000000000E+00 0. -1.
<mgrwt>
<rscale>  0 0.11740049E+03</rscale>
<asrwt>0</asrwt>
<pdfrwt beam="1">  1        2 0.16057840E-01 0.12866396E+03</pdfrwt>
<pdfrwt beam="2">  1       -2 0.18158913E-01 0.12866396E+03</pdfrwt>
<totfact> 0.83695844E+03</totfact>
</mgrwt>
</event>
<event>
 7    1  0.5107591E-006  0.1746241E+03  0.7546771E-02  0.1179114E+00
         -1   -1    0    0    0  501 -0.00000000000E+00  0.00000000000E+00  0.31180968650E+03  0.31180968650E+03  0.00000000000E+00 0.  1.
          1   -1    0    0  501    0  0.00000000000E+00 -0.00000000000E+00 -0.87336591660E+02  0.87336591660E+02  0.00000000000E+00 0. -1.
         23    2    1    2    0    0  0.59298764856E+02 -0.10654631072E+03  0.13146805638E+03  0.20129907455E+03  0.91482280942E+02 0.  0.
          5    1    1    2  502    0 -0.72349843974E+02  0.55300058971E+02  0.49579590605E+00  0.91186250382E+02  0.47000000000E+01 0. -1.
         -5    1    1    2    0  502  0.13051079118E+02  0.51246251750E+02  0.92509242562E+02  0.10666095323E+03  0.47000000000E+01 0. -1.
        -11    1    3    3    0    0  0.17278079395E+02 -0.19805843501E+02  0.94471624511E+02  0.98059631358E+02  0.00000000000E+00 0.  1.
         11    1    3    3    0    0  0.42020685461E+02 -0.86740467220E+02  0.36996431865E+02  0.10323944319E+03  0.00000000000E+00 0. -1.
<mgrwt>
<rscale>  0 0.16879196E+03</rscale>
<asrwt>0</asrwt>
<pdfrwt beam="2">  1        1 0.13436399E-01 0.17462411E+03</pdfrwt>
<pdfrwt beam="1">  1       -1 0.47970720E-01 0.17462411E+03</pdfrwt>
<totfact> 0.18823288E+03</totfact>
</mgrwt>
</event>
<event>
 7    1  0.5107591E-006  0.1329841E+03  0.7546771E-02  0.1236272E+00
         -2   -1    0    0    0  501 -0.00000000000E+00  0.00000000000E+00  0.30237754957E+02  0.30237754957E+02  0.00000000000E+00 0.  1.
          2   -1    0    0  501    0  0.00000000000E+00 -0.00000000000E+00 -0.47225576514E+03  0.47225576514E+03  0.00000000000E+00 0. -1.
         23    2    1    2    0    0  0.43306578227E+02 -0.13588112705E+02 -0.24155731233E+03  0.26193323702E+03  0.90548268836E+02 0.  0.
          5    1    1    2  502    0 -0.65356412984E+02  0.99065814865E+01 -0.37777894865E+02  0.76281455252E+02  0.47000000000E+01 0.  1.
         -5    1    1    2    0  502  0.22049834757E+02  0.36815312180E+01 -0.16268280299E+03  0.16427882783E+03  0.47000000000E+01 0.  1.
        -11    1    3    3    0    0  0.61729241429E+02 -0.34165742142E+02 -0.19958847182E+03  0.21169165139E+03  0.00000000000E+00 0.  1.
         11    1    3    3    0    0 -0.18422663202E+02  0.20577629438E+02 -0.41968840507E+02  0.50241585626E+02  0.00000000000E+00 0. -1.
<mgrwt>
<rscale>  0 0.12423337E+03</rscale>
<asrwt>0</asrwt>
<pdfrwt beam="2">  1        2 0.72654732E-01 0.13298405E+03</pdfrwt>
<pdfrwt beam="1">  1       -2 0.46519623E-02 0.13298405E+03</pdfrwt>
<totfact> 0.13708520E+04</totfact>
</mgrwt>
</event>
<event>
 7    1  0.5107591E-006  0.1902185E+03  0.7546771E-02  0.1163222E+00
         -2   -1    0    0    0  501 -0.00000000000E+00  0.00000000000E+00  0.10468165866E+03  0.10468165866E+03  0.00000000000E+00 0.  1.
          2   -1    0    0  501    0  0.00000000000E+00 -0.00000000000E+00 -0.30956325592E+03  0.30956325592E+03  0.00000000000E+00 0. -1.
         23    2    1    2    0    0  0.11042058006E+03 -0.91473764162E+02 -0.88087268785E+02  0.19103199629E+03  0.90408531972E+02 0.  0.
          5    1    1    2  502    0 -0.13708966178E+03  0.79189832341E+02 -0.10962525988E+03  0.19262500491E+03  0.47000000000E+01 0.  1.
         -5    1    1    2    0  502  0.26669081722E+02  0.12283931821E+02 -0.71690686005E+01  0.30587913389E+02  0.47000000000E+01 0.  1.
        -11    1    3    3    0    0  0.99999308626E+02 -0.89125168077E+02 -0.37180377638E+02  0.13901632203E+03  0.00000000000E+00 0.  1.
         11    1    3    3    0    0  0.10421271430E+02 -0.23485960847E+01 -0.50906891146E+02  0.52015674253E+02  0.00000000000E+00 0. -1.
<mgrwt>
<rscale>  0 0.18481570E+03</rscale>
<asrwt>0</asrwt>
<pdfrwt beam="2">  1        2 0.47625115E-01 0.19021854E+03</pdfrwt>
<pdfrwt beam="1">  1       -2 0.16104871E-01 0.19021854E+03</pdfrwt>
<totfact> 0.31549607E+03</totfact>
</mgrwt>
</event>
<event>
 7    1  0.5107591E-006  0.1384631E+03  0.7546771E-02  0.1228613E+00
          1   -1    0    0  501    0  0.00000000000E+00  0.00000000000E+00  0.18012243731E+03  0.18012243731E+03  0.00000000000E+00 0. -1.
         -1   -1    0    0    0  501 -0.00000000000E+00 -0.00000000000E+00 -0.14700266876E+03  0.14700266876E+03  0.00000000000E+00 0.  1.
         23    2    1    2    0    0  0.59345431078E+02 -0.50802945818E+01  0.12322965891E+03  0.16192271579E+03  0.86520098659E+02 0.  0.
          5    1    1    2  502    0 -0.74574338859E+02  0.18751035358E+01 -0.11399183591E+03  0.13631242307E+03  0.47000000000E+01 0.  1.
         -5    1    1    2    0  502  0.15228907781E+02  0.32051910461E+01  0.23881945547E+02  0.28889967202E+02  0.47000000000E+01 0.  1.
        -11    1    3    3    0    0  0.17319713722E+02 -0.85642521699E+01 -0.10297939252E+02  0.21894438825E+02  0.00000000000E+00 0.  1.
         11    1    3    3    0    0  0.42025717356E+02  0.34839575881E+01  0.13352759816E+03  0.14002827697E+03  0.00000000000E+00 0. -1.
<mgrwt>
<rscale>  0 0.12922286E+03</rscale>
<asrwt>0</asrwt>
<pdfrwt beam="1">  1        1 0.27711144E-01 0.13846313E+03</pdfrwt>
<pdfrwt beam="2">  1       -1 0.22615795E-01 0.13846313E+03</pdfrwt>
<totfact> 0.26771361E+03</totfact>
</mgrwt>
</event>
<event>
 7    1  0.5107591E-006  0.2256189E+03  0.7546771E-02  0.1129762E+00
          2   -1    0    0  501    0  0.00000000000E+00  0.00000000000E+00  0.12675609888E+03  0.12675609888E+03  0.00000000000E+00 0.  1.
         -2   -1    0    0    0  501 -0.00000000000E+00 -0.00000000000E+00 -0.10039727562E+03  0.10039727562E+03  0.00000000000E+00 0. -1.
         23    2    1    2    0    0 -0.27038038087E+01  0.29336611257E+02  0.40677580534E+01  0.96810025443E+02  0.92128644056E+02 0.  0.
          5    1    1    2  502    0 -0.32786998770E+01 -0.78053164090E+02  0.20947115566E+02  0.81018010021E+02  0.47000000000E+01 0.  1.
         -5    1    1    2    0  502  0.59825036857E+01  0.48716552833E+02  0.13439496488E+01  0.49325339035E+02  0.47000000000E+01 0.  1.
        -11    1    3    3    0    0 -0.27338727898E+02  0.53738991132E+02  0.11417008734E+02  0.61364756167E+02  0.00000000000E+00 0.  1.
         11    1    3    3    0    0  0.24634924089E+02 -0.24402379876E+02 -0.73492506806E+01  0.35445269276E+02  0.00000000000E+00 0. -1.
<mgrwt>
<rscale>  0 0.22561886E+03</rscale>
<asrwt>0</asrwt>
<pdfrwt beam="1">  1        2 0.19500938E-01 0.22561886E+03</pdfrwt>
<pdfrwt beam="2">  1       -2 0.15445735E-01 0.22561886E+03</pdfrwt>
<totfact> 0.91153222E+03</totfact>
</mgrwt>
</event>
<event>
 7    1  0.5107591E-006  0.1296489E+03  0.7546771E-02  0.1241882E+00
          1   -1    0    0  501    0  0.00000000000E+00  0.00000000000E+00  0.25287266285E+03  0.25287266285E+03  0.00000000000E+00 0. -1.
         -1   -1    0    0    0  501 -0.00000000000E+00 -0.00000000000E+00 -0.52178894039E+02  0.52178894039E+02  0.00000000000E+00 0.  1.
         23    2    1    2    0    0  0.32697713623E+02  0.10721988956E+02  0.10898159810E+03  0.14624359953E+03  0.91247466575E+02 0.  0.
          5    1    1    2  502    0 -0.16626356514E+02 -0.35382302802E+02 -0.19308837468E+02  0.43855037190E+02  0.47000000000E+01 0.  1.
         -5    1    1    2    0  502 -0.16071357109E+02  0.24660313847E+02  0.11102100817E+03  0.11495292016E+03  0.47000000000E+01 0.  1.
        -11    1    3    3    0    0 -0.19287546358E+02 -0.26975186401E+02  0.40932391478E+02  0.52679510229E+02  0.00000000000E+00 0. -1.
         11    1    3    3    0    0  0.51985259981E+02  0.37697175357E+02  0.68049206626E+02  0.93564089306E+02  0.00000000000E+00 0.  1.
<mgrwt>
<rscale>  0 0.12073979E+03</rscale>
<asrwt>0</asrwt>
<pdfrwt beam="1">  1        1 0.38903486E-01 0.12964893E+03</pdfrwt>
<pdfrwt beam="2">  1       -1 0.80275223E-02 0.12964893E+03</pdfrwt>
<totfact> 0.87946951E+03</totfact>
</mgrwt>
</event>
<event>
 7    1  0.5107591E-006  0.1432364E+03  0.7546771E-02  0.1216178E+00
          2   -1    0    0  501    0  0.00000000000E+00  0.00000000000E+00  0.23916323435E+03  0.23916323435E+03  0.00000000000E+00 0.  1.
         -2   -1    0    0    0  501 -0.00000000000E+00 -0.00000000000E+00 -0.16885812180E+03  0.16885812180E+03  0.00000000000E+00 0. -1.
         23    2    1    2    0    0  0.10459812344E+02  0.69145125951E+02  0.18659325899E+03  0.22352314315E+03  0.10126744347E+03 0.  0.
          5    1    1    2  502    0 -0.40936069402E+02 -0.89116819396E+02 -0.10961721332E+03  0.14715839335E+03  0.47000000000E+01 0.  1.
         -5    1    1    2    0  502  0.30476257057E+02  0.19971693445E+02 -0.66709331166E+01  0.37339819656E+02  0.47000000000E+01 0.  1.
        -11    1    3    3    0    0 -0.30970077983E+02  0.25878700130E+01  0.14256330240E+02  0.34191896020E+02  0.00000000000E+00 0. -1.
         11    1    3    3    0    0  0.41429890328E+02  0.66557255938E+02  0.17233692875E+03  0.18933124713E+03  0.00000000000E+00 0.  1.
<mgrwt>
<rscale>  0 0.13790360E+03</rscale>
<asrwt>0</asrwt>
<pdfrwt beam="1">  1        2 0.36794344E-01 0.14323637E+03</pdfrwt>
<pdfrwt beam="2">  1       -2 0.25978172E-01 0.14323637E+03</pdfrwt>
<totfact> 0.18189448E+03</totfact>
</mgrwt>
</event>
<event>
 7    1  0.5107591E-006  0.2356699E+03  0.7546771E-02  0.1122712E+00
         -2   -1    0    0    0  501 -0.00000000000E+00  0.00000000000E+00  0.12525019239E+02  0.12525019239E+02  0.00000000000E+00 0.  1.
          2   -1    0    0  501    0  0.00000000000E+00 -0.00000000000E+00 -0.11085868845E+04  0.11085868845E+04  0.00000000000E+00 0. -1.
         23    2    1    2    0    0 -0.43689714192E+02  0.54576026019E+02 -0.34970596977E+03  0.36113897080E+03  0.56918865033E+02 0.  0.
          5    1    1    2  502    0 -0.25200117812E+02  0.22584219247E+02 -0.29066943069E+03  0.29267029374E+03  0.47000000000E+01 0. -1.
         -5    1    1    2    0  502  0.68889832004E+02 -0.77160245267E+02 -0.45568646475E+03  0.46730263915E+03  0.47000000000E+01 0. -1.
        -11    1    3    3    0    0 -0.54351462981E+02  0.41331892025E+02 -0.31707760766E+03  0.32434644457E+03  0.00000000000E+00 0.  1.
         11    1    3    3    0    0  0.10661748789E+02  0.13244133994E+02 -0.32628362117E+02  0.36792526237E+02  0.00000000000E+00 0. -1.
<mgrwt>
<rscale>  0 0.23566987E+03</rscale>
<asrwt>0</asrwt>
<pdfrwt beam="2">  1        2 0.17055181E+00 0.23566987E+03</pdfrwt>
<pdfrwt beam="1">  1       -2 0.19269262E-02 0.23566987E+03</pdfrwt>
<totfact> 0.18266320E+04</totfact>
</mgrwt>
</event>
<event>
 7    1  0.5107591E-006  0.4973325E+03  0.7546771E-02  0.1061707E+00
         -1   -1    0    0    0  501 -0.00000000000E+00  0.00000000000E+00  0.23881096511E+03  0.23881096511E+03  0.00000000000E+00 0.  1.
          1   -1    0    0  501    0  0.00000000000E+00 -0.00000000000E+00 -0.47169983963E+03  0.47169983963E+03  0.00000000000E+00 0. -1.
         23    2    1    2    0    0 -0.54135020878E+02  0.54459917268E+02 -0.16724025117E+03  0.20886416676E+03  0.98784894950E+02 0.  0.
          5    1    1    2  502    0 -0.12802627918E+03  0.16531064337E+03 -0.53610861988E+02  0.21590403307E+03  0.47000000000E+01 0. -1.
         -5    1    1    2    0  502  0.18216130006E+03 -0.21977056064E+03 -0.12037761364E+02  0.28574260491E+03  0.47000000000E+01 0.  1.
        -11    1    3    3    0    0 -0.31799167765E+02  0.71406322371E+02 -0.16264456625E+03  0.18045305450E+03  0.00000000000E+00 0. -1.
         11    1    3    3    0    0 -0.22335853113E+02 -0.16946405102E+02 -0.45956849155E+01  0.28411112263E+02  0.00000000000E+00 0.  1.
<mgrwt>
<rscale>  0 0.35222205E+03</rscale>
<asrwt>0</asrwt>
<pdfrwt beam="2">  1        1 0.72569205E-01 0.49733249E+03</pdfrwt>
<pdfrwt beam="1">  1       -1 0.36740149E-01 0.49733249E+03</pdfrwt>
<totfact> 0.34825803E+02</totfact>
</mgrwt>
</event>
<event>
 7    1  0.5107591E-006  0.1690592E+03  0.7546771E-02  0.1185772E+00
         -2   -1    0    0    0  501 -0.00000000000E+00  0.00000000000E+00  0.39911654821E+02  0.39911654821E+02  0.00000000000E+00 0.  1.
          2   -1    0    0  501    0  0.00000000000E+00 -0.00000000000E+00 -0.67659244706E+03  0.67659244706E+03  0.00000000000E+00 0. -1.
         23    2    1    2    0    0 -0.54164311698E+02  0.10011041863E+03 -0.40207789458E+03  0.42733370951E+03  0.89395734784E+02 0.  0.
          5    1    1    2  502    0  0.76791076295E+02 -0.10036999439E+03 -0.12742037398E+03  0.17952450217E+03  0.47000000000E+01 0. -1.
         -5    1    1    2    0  502 -0.22626764596E+02  0.25957576778E+00 -0.10718252369E+03  0.10964589021E+03  0.47000000000E+01 0. -1.
        -11    1    3    3    0    0 -0.70209234777E+02  0.72527182481E+02 -0.21454966350E+03  0.23710986263E+03  0.00000000000E+00 0. -1.
         11    1    3    3    0    0  0.16044923079E+02  0.27583236145E+02 -0.18752823107E+03  0.19022384688E+03  0.00000000000E+00 0.  1.
<mgrwt>
<rscale>  0 0.16261869E+03</rscale>
<asrwt>0</asrwt>
<pdfrwt beam="2">  1        2 0.10409113E+00 0.16905915E+03</pdfrwt>
<pdfrwt beam="1">  1       -2 0.61402554E-02 0.16905915E+03</pdfrwt>
<totfact> 0.60935606E+03</totfact>
</mgrwt>
</event>
<event>
 7    1  0.5107591E-006  0.1164169E+03  0.7546771E-02  0.1257053E+00
         -2   -1    0    0    0  501 -0.00000000000E+00  0.00000000000E+00  0.98000222387E+02  0.98000222387E+02  0.00000000000E+00 0.  1.
          2   -1    0    0  501    0  0.00000000000E+00 -0.00000000000E+00 -0.20534206905E+03  0.20534206905E+03  0.00000000000E+00 0. -1.
         23    2    1    2    0    0  0.36097027902E+02 -0.79576225978E+01 -0.14947540011E+03  0.17953545558E+03  0.92324240539E+02 0.  0.
          5    1    1    2  502    0 -0.24815095671E+02 -0.43469929740E+02 -0.80556353488E+01  0.50915685457E+02  0.47000000000E+01 0. -1.
         -5    1    1    2    0  502 -0.11281932231E+02  0.51427552338E+02  0.50189188798E+02  0.72891150399E+02  0.47000000000E+01 0.  1.
        -11    1    3    3    0    0 -0.15842133564E+02  0.18767195324E+02 -0.69793866266E+01  0.25532188583E+02  0.00000000000E+00 0.  1.
         11    1    3    3    0    0  0.51939161466E+02 -0.26724817922E+02 -0.14249601348E+03  0.15400326699E+03  0.00000000000E+00 0. -1.
<mgrwt>
<rscale>  0 0.11192112E+03</rscale>
<asrwt>0</asrwt>
<pdfrwt beam="2">  1        2 0.31591088E-01 0.11641691E+03</pdfrwt>
<pdfrwt beam="1">  1       -2 0.15076957E-01 0.11641691E+03</pdfrwt>
<totfact> 0.53146105E+03</totfact>
</mgrwt>
</event>
<event>
 7    1  0.5107591E-006  0.2148985E+03  0.7546771E-02  0.1171824E+00
          2   -1    0    0  501    0  0.00000000000E+00  0.00000000000E+00  0.69067098230E+02  0.69067098230E+02  0.00000000000E+00 0. -1.
         -2   -1    0    0    0  501 -0.00000000000E+00 -0.00000000000E+00 -0.85221516123E+03  0.85221516123E+03  0.00000000000E+00 0.  1.
         23    2    1    2    0    0  0.24651249023E+02  0.13611563070E+01  0.12352499948E+02  0.97266171442E+02  0.93266215893E+02 0.  0.
          5    1    1    2  502    0  0.16624100763E+02 -0.41741481446E+02 -0.74726847614E+03  0.74863273869E+03  0.47000000000E+01 0. -1.
         -5    1    1    2    0  502 -0.41275349786E+02  0.40380325139E+02 -0.48232086803E+02  0.75383349326E+02  0.47000000000E+01 0.  1.
        -11    1    3    3    0    0  0.15628496164E+01  0.46021620954E+02  0.86583023650E+01  0.46855077569E+02  0.00000000000E+00 0.  1.
         11    1    3    3    0    0  0.23088399406E+02 -0.44660464647E+02  0.36941975832E+01  0.50411093873E+02  0.00000000000E+00 0. -1.
<mgrwt>
<rscale>  0 0.17590688E+03</rscale>
<asrwt>0</asrwt>
<pdfrwt beam="1">  1        2 0.10625708E-01 0.21489851E+03</pdfrwt>
<pdfrwt beam="2">  1       -2 0.13111002E+00 0.21489851E+03</pdfrwt>
<totfact> 0.26509681E+02</totfact>
</mgrwt>
</event>
<event>
 7    1  0.5107591E-006  0.1322247E+03  0.7546771E-02  0.1235380E+00
          1   -1    0    0  501    0  0.00000000000E+00  0.00000000000E+00  0.56450162751E+02  0.56450162751E+02  0.00000000000E+00 0. -1.
         -1   -1    0    0    0  501 -0.00000000000E+00 -0.00000000000E+00 -0.27042399036E+03  0.27042399036E+03  0.00000000000E+00 0.  1.
         23    2    1    2    0    0  0.39994645620E+02 -0.16005246706E+02 -0.50035946420E+02  0.11625837462E+03  0.95690512254E+02 0.  0.
          5    1    1    2  502    0 -0.80998032314E+02 -0.10006063505E+02 -0.11840055376E+03  0.14388044925E+03  0.47000000000E+01 0.  1.
         -5    1    1    2    0  502  0.41003386694E+02  0.26011310210E+02 -0.45537327430E+02  0.66735329239E+02  0.47000000000E+01 0.  1.
        -11    1    3    3    0    0 -0.30032418580E+02 -0.60482096957E+01 -0.29683139037E+02  0.42656954291E+02  0.00000000000E+00 0.  1.
         11    1    3    3    0    0  0.70027064200E+02 -0.99570370101E+01 -0.20352807383E+02  0.73601420332E+02  0.00000000000E+00 0. -1.
<mgrwt>
<rscale>  0 0.12480150E+03</rscale>
<asrwt>0</asrwt>
<pdfrwt beam="1">  1        1 0.86846406E-02 0.13222472E+03</pdfrwt>
<pdfrwt beam="2">  1       -1 0.41603690E-01 0.13222472E+03</pdfrwt>
<totfact> 0.42721070E+03</totfact>
</mgrwt>
</event>
<event>
 7    1  0.5107591E-006  0.1451042E+03  0.7546771E-02  0.1216374E+00
          2   -1    0    0  501    0  0.00000000000E+00  0.00000000000E+00  0.48087733441E+03  0.48087733441E+03  0.00000000000E+00 0. -1.
         -2   -1    0    0    0  501 -0.00000000000E+00 -0.00000000000E+00 -0.38653222008E+02  0.38653222008E+02  0.00000000000E+00 0.  1.
         23    2    1    2    0    0  0.71869429267E+02 -0.16274551769E+02  0.26808872859E+03  0.29286263140E+03  0.92015643085E+02 0.  0.
          5    1    1    2  502    0 -0.40300032705E+02 -0.42640843937E+01  0.18316553277E+03  0.18765387672E+03  0.47000000000E+01 0.  1.
         -5    1    1    2    0  502 -0.31569396562E+02  0.20538636163E+02 -0.90301489627E+01  0.39014048303E+02  0.47000000000E+01 0.  1.
        -11    1    3    3    0    0  0.48299273767E+02  0.22684486071E+02  0.61988252055E+02  0.81792109324E+02  0.00000000000E+00 0.  1.
         11    1    3    3    0    0  0.23570155499E+02 -0.38959037840E+02  0.20610047654E+03  0.21107052207E+03  0.00000000000E+00 0. -1.
<mgrwt>
<rscale>  0 0.13776054E+03</rscale>
<asrwt>0</asrwt>
<pdfrwt beam="1">  1        2 0.73981124E-01 0.14510416E+03</pdfrwt>
<pdfrwt beam="2">  1       -2 0.59466499E-02 0.14510416E+03</pdfrwt>
<totfact> 0.93429918E+03</totfact>
</mgrwt>
</event>
<event>
 7    1  0.5107591E-006  0.1800058E+03  0.7546771E-02  0.1173143E+00
          2   -1    0    0  501    0  0.00000000000E+00  0.00000000000E+00  0.33312046876E+03  0.33312046876E+03  0.00000000000E+00 0. -1.
         -2   -1    0    0    0  501 -0.00000000000E+00 -0.00000000000E+00 -0.86824611015E+02  0.86824611015E+02  0.00000000000E+00 0.  1.
         23    2    1    2    0    0  0.88415966182E+02 -0.94658712169E+02  0.13025182649E+03  0.20577618390E+03  0.92739660820E+02 0.  0.
          5    1    1    2  502    0  0.24328285339E+02 -0.73061694910E+01  0.62092538732E+01  0.26568598266E+02  0.47000000000E+01 0. -1.
         -5    1    1    2    0  502 -0.11274425152E+03  0.10196488166E+03  0.10983477738E+03  0.18760029762E+03  0.47000000000E+01 0. -1.
        -11    1    3    3    0    0  0.69062936307E+02 -0.72514432477E+01  0.63588550824E+02  0.94158251877E+02  0.00000000000E+00 0. -1.
         11    1    3    3    0    0  0.19353029875E+02 -0.87407268921E+02  0.66663275667E+02  0.11161793202E+03  0.00000000000E+00 0.  1.
<mgrwt>
<rscale>  0 0.17459136E+03</rscale>
<asrwt>0</asrwt>
<pdfrwt beam="1">  1        2 0.51249302E-01 0.18000583E+03</pdfrwt>
<pdfrwt beam="2">  1       -2 0.13357633E-01 0.18000583E+03</pdfrwt>
<totfact> 0.39555813E+03</totfact>
</mgrwt>
</event>
<event>
 7    1  0.5107591E-006  0.1441985E+03  0.7546771E-02  0.1224875E+00
         -1   -1    0    0    0  501 -0.00000000000E+00  0.00000000000E+00  0.80314167230E+02  0.80314167230E+02  0.00000000000E+00 0.  1.
          1   -1    0    0  501    0  0.00000000000E+00 -0.00000000000E+00 -0.31767481453E+03  0.31767481453E+03  0.00000000000E+00 0. -1.
         23    2    1    2    0    0 -0.43945154880E+02  0.80600560667E+01 -0.23296949657E+03  0.25372363873E+03  0.90026426011E+02 0.  0.
          5    1    1    2  502    0 -0.38914898430E+02  0.42345232209E+00 -0.37746093802E+02  0.54418804002E+02  0.47000000000E+01 0. -1.
         -5    1    1    2    0  502  0.82860053309E+02 -0.84835083888E+01  0.33354943064E+02  0.89846539031E+02  0.47000000000E+01 0.  1.
        -11    1    3    3    0    0 -0.65371713247E+02  0.23624565645E+02 -0.13015390431E+03  0.14755209183E+03  0.00000000000E+00 0. -1.
         11    1    3    3    0    0  0.21426558367E+02 -0.15564509578E+02 -0.10281559225E+03  0.10617154691E+03  0.00000000000E+00 0.  1.
<mgrwt>
<rscale>  0 0.13175453E+03</rscale>
<asrwt>0</asrwt>
<pdfrwt beam="2">  1        1 0.48873048E-01 0.14419850E+03</pdfrwt>
<pdfrwt beam="1">  1       -1 0.12356026E-01 0.14419850E+03</pdfrwt>
<totfact> 0.34553357E+03</totfact>
</mgrwt>
</event>
<event>
 7    1  0.5107591E-006  0.1659691E+03  0.7546771E-02  0.1190312E+00
         -2   -1    0    0    0  501 -0.00000000000E+00  0.00000000000E+00  0.36944443176E+03  0.36944443176E+03  0.00000000000E+00 0. -1.
          2   -1    0    0  501    0  0.00000000000E+00 -0.00000000000E+00 -0.66633572990E+02  0.66633572990E+02  0.00000000000E+00 0.  1.
         23    2    1    2    0    0  0.10918317528E+03  0.44911845727E+00  0.85405531468E+02  0.16256234292E+03  0.84919038252E+02 0.  0.
          5    1    1    2  502    0 -0.66131548714E+02 -0.15117786762E+02  0.21740499372E+03  0.22779146276E+03  0.47000000000E+01 0.  1.
         -5    1    1    2    0  502 -0.43051626571E+02  0.14668668305E+02  0.33357913712E-03  0.45724199067E+02  0.47000000000E+01 0.  1.
        -11    1    3    3    0    0  0.17498216159E+02 -0.36545106068E+01 -0.17264802365E+02  0.24851889610E+02  0.00000000000E+00 0.  1.
         11    1    3    3    0    0  0.91684959126E+02  0.41036290641E+01  0.10267033383E+03  0.13771045331E+03  0.00000000000E+00 0. -1.
<mgrwt>
<rscale>  0 0.15857752E+03</rscale>
<asrwt>0</asrwt>
<pdfrwt beam="2">  1        2 0.10251319E-01 0.16596910E+03</pdfrwt>
<pdfrwt beam="1">  1       -2 0.56837604E-01 0.16596910E+03</pdfrwt>
<totfact> 0.17964360E+03</totfact>
</mgrwt>
</event>
<event>
 7    1  0.5107591E-006  0.1300514E+03  0.7546771E-02  0.1241122E+00
          4   -1    0    0  501    0  0.00000000000E+00  0.00000000000E+00  0.58567813380E+02  0.58567813380E+02  0.00000000000E+00 0. -1.
         -4   -1    0    0    0  501 -0.00000000000E+00 -0.00000000000E+00 -0.24228209481E+03  0.24228209481E+03  0.00000000000E+00 0.  1.
         23    2    1    2    0    0  0.26184862477E+02  0.24519381617E+02 -0.37170148039E+02  0.10491994859E+03  0.91322114573E+02 0.  0.
          5    1    1    2  502    0  0.49340152754E+02  0.26021062708E+01 -0.58157872806E+02  0.76456849270E+02  0.47000000000E+01 0. -1.
         -5    1    1    2    0  502 -0.75525015231E+02 -0.27121487887E+02 -0.88386260588E+02  0.11947311033E+03  0.47000000000E+01 0. -1.
        -11    1    3    3    0    0  0.21717003402E+02 -0.30559563994E+01 -0.63101774967E+02  0.66804199795E+02  0.00000000000E+00 0.  1.
         11    1    3    3    0    0  0.44678590747E+01  0.27575338016E+02  0.25931626928E+02  0.38115748799E+02  0.00000000000E+00 0. -1.
<mgrwt>
<rscale>  0 0.12120492E+03</rscale>
<asrwt>0</asrwt>
<pdfrwt beam="1">  1        4 0.90104329E-02 0.13005140E+03</pdfrwt>
<pdfrwt beam="2">  1       -4 0.37274168E-01 0.13005140E+03</pdfrwt>
<totfact> 0.10348423E+03</totfact>
</mgrwt>
</event>
<event>
 7    1  0.5107591E-006  0.3781363E+03  0.7546771E-02  0.1052587E+00
         -2   -1    0    0    0  501 -0.00000000000E+00  0.00000000000E+00  0.92306240525E+02  0.92306240525E+02  0.00000000000E+00 0.  1.
          2   -1    0    0  501    0  0.00000000000E+00 -0.00000000000E+00 -0.15681571573E+04  0.15681571573E+04  0.00000000000E+00 0. -1.
         23    2    1    2    0    0 -0.32130477618E+03  0.15532062573E+03 -0.89142568355E+03  0.96437439013E+03  0.89537473015E+02 0.  0.
          5    1    1    2  502    0  0.17142783793E+02 -0.44810188706E+02 -0.12616960090E+03  0.13506548870E+03  0.47000000000E+01 0. -1.
         -5    1    1    2    0  502  0.30416199239E+03 -0.11051043702E+03 -0.45825563233E+03  0.56102351900E+03  0.47000000000E+01 0. -1.
        -11    1    3    3    0    0 -0.23935505506E+03  0.15312855403E+03 -0.64947070900E+03  0.70890859657E+03  0.00000000000E+00 0. -1.
         11    1    3    3    0    0 -0.81949721122E+02  0.21920716995E+01 -0.24195497456E+03  0.25546579357E+03  0.00000000000E+00 0.  1.
<mgrwt>
<rscale>  0 0.37556046E+03</rscale>
<asrwt>0</asrwt>
<pdfrwt beam="2">  1        2 0.24125493E+00 0.37813629E+03</pdfrwt>
<pdfrwt beam="1">  1       -2 0.14200961E-01 0.37813629E+03</pdfrwt>
<totfact> 0.46607741E+02</totfact>
</mgrwt>
</event>
<event>
 7    1  0.5107591E-006  0.1482342E+03  0.7546771E-02  0.1212701E+00
          2   -1    0    0  501    0  0.00000000000E+00  0.00000000000E+00  0.19538039089E+02  0.19538039089E+02  0.00000000000E+00 0. -1.
         -2   -1    0    0    0  501 -0.00000000000E+00 -0.00000000000E+00 -0.97341637086E+03  0.97341637086E+03  0.00000000000E+00 0.  1.
         23    2    1    2    0    0 -0.17104575390E+02  0.77828587999E+02 -0.31026366638E+03  0.33249001019E+03  0.89085400534E+02 0.  0.
          5    1    1    2  502    0  0.76908362246E+01 -0.85963473291E+02 -0.64113536150E+03  0.64693547551E+03  0.47000000000E+01 0. -1.
         -5    1    1    2    0  502  0.94137391653E+01  0.81348852921E+01 -0.24793038907E+01  0.13528924258E+02  0.47000000000E+01 0. -1.
        -11    1    3    3    0    0 -0.36771431572E+02  0.18966613934E+02 -0.49849844846E+02  0.64783313092E+02  0.00000000000E+00 0. -1.
         11    1    3    3    0    0  0.19666856182E+02  0.58861974065E+02 -0.26041382154E+03  0.26770669709E+03  0.00000000000E+00 0.  1.
<mgrwt>
<rscale>  0 0.14046737E+03</rscale>
<asrwt>0</asrwt>
<pdfrwt beam="1">  1        2 0.30058521E-02 0.14823423E+03</pdfrwt>
<pdfrwt beam="2">  1       -2 0.14975637E+00 0.14823423E+03</pdfrwt>
<totfact> 0.96813707E+02</totfact>
</mgrwt>
</event>
<event>
 7    1  0.5107591E-006  0.1955105E+03  0.7546771E-02  0.1157502E+00
          1   -1    0    0  501    0  0.00000000000E+00  0.00000000000E+00  0.81844246213E+03  0.81844246213E+03  0.00000000000E+00 0. -1.
         -1   -1    0    0    0  501 -0.00000000000E+00 -0.00000000000E+00 -0.46553546006E+02  0.46553546006E+02  0.00000000000E+00 0.  1.
         23    2    1    2    0    0 -0.14329015766E+03  0.45468312387E+02  0.49414154948E+03  0.52533744878E+03  0.95938143891E+02 0.  0.
          5    1    1    2  502    0  0.97386622850E+02 -0.67739385311E+02  0.10176171449E+03  0.15636596551E+03  0.47000000000E+01 0.  1.
         -5    1    1    2    0  502  0.45903534807E+02  0.22271072924E+02  0.17598565214E+03  0.18329259384E+03  0.47000000000E+01 0.  1.
        -11    1    3    3    0    0 -0.79794249973E+02  0.56031198073E+02  0.18041960499E+03  0.20508010959E+03  0.00000000000E+00 0.  1.
         11    1    3    3    0    0 -0.63495907685E+02 -0.10562885686E+02  0.31372194450E+03  0.32025733919E+03  0.00000000000E+00 0. -1.
<mgrwt>
<rscale>  0 0.19106756E+03</rscale>
<asrwt>0</asrwt>
<pdfrwt beam="1">  1        1 0.12591421E+00 0.19551045E+03</pdfrwt>
<pdfrwt beam="2">  1       -1 0.71620846E-02 0.19551045E+03</pdfrwt>
<totfact> 0.22548683E+03</totfact>
</mgrwt>
</event>
<event>
 7    1  0.5107591E-006  0.1364843E+03  0.7546771E-02  0.1230361E+00
          1   -1    0    0  501    0  0.00000000000E+00  0.00000000000E+00  0.43452249349E+03  0.43452249349E+03  0.00000000000E+00 0. -1.
         -1   -1    0    0    0  501 -0.00000000000E+00 -0.00000000000E+00 -0.35533258672E+02  0.35533258672E+02  0.00000000000E+00 0.  1.
         23    2    1    2    0    0  0.50469519129E+02  0.21332923152E+02  0.22742919760E+03  0.25082797074E+03  0.90489585125E+02 0.  0.
          5    1    1    2  502    0 -0.40934109226E+02 -0.10286832069E+02 -0.43144776029E+01  0.42686355304E+02  0.47000000000E+01 0. -1.
         -5    1    1    2    0  502 -0.95354099028E+01 -0.11046091083E+02  0.17587451482E+03  0.17654142612E+03  0.47000000000E+01 0. -1.
        -11    1    3    3    0    0 -0.12662412525E+01  0.29790401267E+02  0.17188506457E+03  0.17445213326E+03  0.00000000000E+00 0. -1.
         11    1    3    3    0    0  0.51735760382E+02 -0.84574781149E+01  0.55544133023E+02  0.76375837486E+02  0.00000000000E+00 0.  1.
<mgrwt>
<rscale>  0 0.12806160E+03</rscale>
<asrwt>0</asrwt>
<pdfrwt beam="1">  1        1 0.66849611E-01 0.13648434E+03</pdfrwt>
<pdfrwt beam="2">  1       -1 0.54666555E-02 0.13648434E+03</pdfrwt>
<totfact> 0.79861777E+03</totfact>
</mgrwt>
</event>
<event>
 7    1  0.5107591E-006  0.1263176E+03  0.7546771E-02  0.1247805E+00
          2   -1    0    0  501    0  0.00000000000E+00  0.00000000000E+00  0.39017255432E+03  0.39017255432E+03  0.00000000000E+00 0. -1.
         -2   -1    0    0    0  501 -0.00000000000E+00 -0.00000000000E+00 -0.31067609178E+02  0.31067609178E+02  0.00000000000E+00 0.  1.
         23    2    1    2    0    0 -0.18034597592E+02 -0.20793441483E+01  0.16375754266E+03  0.18861011892E+03  0.91802362701E+02 0.  0.
          5    1    1    2  502    0  0.23191052377E+02 -0.57602778435E+02  0.12818559420E+03  0.14251154884E+03  0.47000000000E+01 0. -1.
         -5    1    1    2    0  502 -0.51564547856E+01  0.59682122584E+02  0.67161808289E+02  0.90118495741E+02  0.47000000000E+01 0. -1.
        -11    1    3    3    0    0 -0.12016650660E+02  0.31513724995E+02  0.16682462937E+02  0.37627374686E+02  0.00000000000E+00 0.  1.
         11    1    3    3    0    0 -0.60179469318E+01 -0.33593069144E+02  0.14707507972E+03  0.15098274423E+03  0.00000000000E+00 0. -1.
<mgrwt>
<rscale>  0 0.11719087E+03</rscale>
<asrwt>0</asrwt>
<pdfrwt beam="1">  1        2 0.60026543E-01 0.12631758E+03</pdfrwt>
<pdfrwt beam="2">  1       -2 0.47796325E-02 0.12631758E+03</pdfrwt>
<totfact> 0.16093866E+04</totfact>
</mgrwt>
</event>
<event>
 7    1  0.5107591E-006  0.2334111E+03  0.7546771E-02  0.1127747E+00
          1   -1    0    0  501    0  0.00000000000E+00  0.00000000000E+00  0.30141451316E+03  0.30141451316E+03  0.00000000000E+00 0. -1.
         -1   -1    0    0    0  501 -0.00000000000E+00 -0.00000000000E+00 -0.18778175754E+03  0.18778175754E+03  0.00000000000E+00 0.  1.
         23    2    1    2    0    0  0.18612022789E+03  0.64925473988E+02  0.13764567681E+03  0.25455320855E+03  0.83635801161E+02 0.  0.
          5    1    1    2  502    0  0.13089930172E+02  0.11965557787E+02  0.51971664061E+01  0.19068859004E+02  0.47000000000E+01 0. -1.
         -5    1    1    2    0  502 -0.19921015806E+03 -0.76891031775E+02 -0.29210087593E+02  0.21557420314E+03  0.47000000000E+01 0. -1.
        -11    1    3    3    0    0  0.36507118838E+02  0.16136504320E+02  0.75418669543E+02  0.85329550644E+02  0.00000000000E+00 0. -1.
         11    1    3    3    0    0  0.14961310905E+03  0.48788969668E+02  0.62227007269E+02  0.16922365791E+03  0.00000000000E+00 0.  1.
<mgrwt>
<rscale>  0 0.22843348E+03</rscale>
<asrwt>0</asrwt>
<pdfrwt beam="1">  1        1 0.46371463E-01 0.23341111E+03</pdfrwt>
<pdfrwt beam="2">  1       -1 0.28889501E-01 0.23341111E+03</pdfrwt>
<totfact> 0.94988092E+02</totfact>
</mgrwt>
</event>
<event>
 7    1  0.5107591E-006  0.1998228E+03  0.7546771E-02  0.1153917E+00
          2   -1    0    0  501    0  0.00000000000E+00  0.00000000000E+00  0.14981677996E+03  0.14981677996E+03  0.00000000000E+00 0. -1.
         -2   -1    0    0    0  501 -0.00000000000E+00 -0.00000000000E+00 -0.25219484078E+03  0.25219484078E+03  0.00000000000E+00 0.  1.
         23    2    1    2    0    0  0.13608327740E+03 -0.78790642295E+02 -0.10270878224E+02  0.18198236936E+03  0.91024546796E+02 0.  0.
          5    1    1    2  502    0 -0.12383466879E+03  0.10944948747E+03 -0.67497753724E+02  0.17858402017E+03  0.47000000000E+01 0. -1.
         -5    1    1    2    0  502 -0.12248608610E+02 -0.30658845176E+02 -0.24609428878E+02  0.41445231211E+02  0.47000000000E+01 0. -1.
        -11    1    3    3    0    0  0.11921967520E+03 -0.26301008109E+02  0.11674284797E+02  0.12264323425E+03  0.00000000000E+00 0.  1.
         11    1    3    3    0    0  0.16863602201E+02 -0.52489634186E+02 -0.21945163021E+02  0.59339135115E+02  0.00000000000E+00 0. -1.
<mgrwt>
<rscale>  0 0.19512722E+03</rscale>
<asrwt>0</asrwt>
<pdfrwt beam="1">  1        2 0.23048736E-01 0.19982277E+03</pdfrwt>
<pdfrwt beam="2">  1       -2 0.38799206E-01 0.19982277E+03</pdfrwt>
<totfact> 0.14757441E+03</totfact>
</mgrwt>
</event>
<event>
 7    1  0.5107591E-006  0.1726933E+03  0.7546771E-02  0.1180038E+00
          1   -1    0    0  501    0  0.00000000000E+00  0.00000000000E+00  0.86149276623E+02  0.86149276623E+02  0.00000000000E+00 0. -1.
         -1   -1    0    0    0  501 -0.00000000000E+00 -0.00000000000E+00 -0.33041999863E+03  0.33041999863E+03  0.00000000000E+00 0.  1.
         23    2    1    2    0    0 -0.10235937548E+03  0.61004208371E+02 -0.64522606552E+02  0.16730563222E+03  0.98127736285E+02 0.  0.
          5    1    1    2  502    0  0.11946151707E+03 -0.17871262250E+02 -0.10001799147E+03  0.15689526663E+03  0.47000000000E+01 0.  1.
         -5    1    1    2    0  502 -0.17102141587E+02 -0.43132946121E+02 -0.79730123988E+02  0.92368376401E+02  0.47000000000E+01 0.  1.
        -11    1    3    3    0    0 -0.47265859643E+02 -0.42381999576E+01  0.15855851174E+02  0.50034306661E+02  0.00000000000E+00 0. -1.
         11    1    3    3    0    0 -0.55093515837E+02  0.65242408328E+02 -0.80378457726E+02  0.11727132556E+03  0.00000000000E+00 0.  1.
<mgrwt>
<rscale>  0 0.16791620E+03</rscale>
<asrwt>0</asrwt>
<pdfrwt beam="1">  1        1 0.13253735E-01 0.17269331E+03</pdfrwt>
<pdfrwt beam="2">  1       -1 0.50833845E-01 0.17269331E+03</pdfrwt>
<totfact> 0.17227150E+03</totfact>
</mgrwt>
</event>
<event>
 7    1  0.5107591E-006  0.1539890E+03  0.7546771E-02  0.1204265E+00
         -3   -1    0    0    0  501 -0.00000000000E+00  0.00000000000E+00  0.13607546417E+03  0.13607546417E+03  0.00000000000E+00 0. -1.
          3   -1    0    0  501    0  0.00000000000E+00 -0.00000000000E+00 -0.14735860560E+03  0.14735860560E+03  0.00000000000E+00 0.  1.
         23    2    1    2    0    0 -0.87027908034E+02  0.22642378789E+02 -0.19603956135E+02  0.12922046879E+03  0.90703254435E+02 0.  0.
          5    1    1    2  502    0 -0.24498588322E+01  0.38864327900E+02 -0.16795525088E+02  0.42668694079E+02  0.47000000000E+01 0.  1.
         -5    1    1    2    0  502  0.89477766866E+02 -0.61506706689E+02  0.25116339789E+02  0.11154490690E+03  0.47000000000E+01 0.  1.
        -11    1    3    3    0    0 -0.63718301678E+02  0.51322135422E+02 -0.35250107784E+02  0.89087337213E+02  0.00000000000E+00 0.  1.
         11    1    3    3    0    0 -0.23309606356E+02 -0.28679756633E+02  0.15646151649E+02  0.40133131580E+02  0.00000000000E+00 0. -1.
<mgrwt>
<rscale>  0 0.14695554E+03</rscale>
<asrwt>0</asrwt>
<pdfrwt beam="2">  1        3 0.22670555E-01 0.15398896E+03</pdfrwt>
<pdfrwt beam="1">  1       -3 0.20934687E-01 0.15398896E+03</pdfrwt>
<totfact> 0.87319732E+02</totfact>
</mgrwt>
</event>
<event>
 7    1  0.5107591E-006  0.2045057E+03  0.7546771E-02  0.1149843E+00
         -1   -1    0    0    0  501 -0.00000000000E+00  0.00000000000E+00  0.31523479790E+03  0.31523479790E+03  0.00000000000E+00 0.  1.
          1   -1    0    0  501    0  0.00000000000E+00 -0.00000000000E+00 -0.18885797382E+03  0.18885797382E+03  0.00000000000E+00 0. -1.
         23    2    1    2    0    0 -0.14512345521E+03 -0.71676230549E+02 -0.89300156536E+02  0.20687375714E+03  0.92865139624E+02 0.  0.
          5    1    1    2  502    0  0.22829634542E+02 -0.34761699333E+02  0.36478767150E+02  0.55518991405E+02  0.47000000000E+01 0.  1.
         -5    1    1    2    0  502  0.12229382067E+03  0.10643792988E+03  0.17919821347E+03  0.24170002318E+03  0.47000000000E+01 0.  1.
        -11    1    3    3    0    0 -0.15496712231E+03 -0.75244100702E+02 -0.72123101282E+02  0.18675712952E+03  0.00000000000E+00 0.  1.
         11    1    3    3    0    0  0.98436671036E+01  0.35678701527E+01 -0.17177055254E+02  0.20116627617E+02  0.00000000000E+00 0. -1.
<mgrwt>
<rscale>  0 0.19987623E+03</rscale>
<asrwt>0</asrwt>
<pdfrwt beam="2">  1        1 0.29055073E-01 0.20450570E+03</pdfrwt>
<pdfrwt beam="1">  1       -1 0.48497661E-01 0.20450570E+03</pdfrwt>
<totfact> 0.68707874E+02</totfact>
</mgrwt>
</event>
<event>
 7    1  0.5107591E-006  0.1373466E+03  0.7546771E-02  0.1228675E+00
          2   -1    0    0  501    0  0.00000000000E+00  0.00000000000E+00  0.88977678178E+02  0.88977678178E+02  0.00000000000E+00 0. -1.
         -2   -1    0    0    0  501 -0.00000000000E+00 -0.00000000000E+00 -0.24595339855E+03  0.24595339855E+03  0.00000000000E+00 0.  1.
         23    2    1    2    0    0  0.51752316985E+02 -0.23681736481E+02  0.21610659670E+02  0.10963751432E+03  0.91182437880E+02 0.  0.
          5    1    1    2  502    0 -0.39820123602E+02 -0.14895566427E+02 -0.17960450603E+03  0.18462770303E+03  0.47000000000E+01 0.  1.
         -5    1    1    2    0  502 -0.11932193383E+02  0.38577302909E+02  0.10181259813E+01  0.40665859381E+02  0.47000000000E+01 0.  1.
        -11    1    3    3    0    0  0.55289507043E+00  0.17949773732E+02  0.37661876460E+02  0.41724297579E+02  0.00000000000E+00 0. -1.
         11    1    3    3    0    0  0.51199421915E+02 -0.41631510213E+02 -0.16051216790E+02  0.67913216737E+02  0.00000000000E+00 0.  1.
<mgrwt>
<rscale>  0 0.12918201E+03</rscale>
<asrwt>0</asrwt>
<pdfrwt beam="1">  1        2 0.13688873E-01 0.13734662E+03</pdfrwt>
<pdfrwt beam="2">  1       -2 0.37838985E-01 0.13734662E+03</pdfrwt>
<totfact> 0.27782496E+03</totfact>
</mgrwt>
</event>
<event>
 7    1  0.5107591E-006  0.2052777E+03  0.7546771E-02  0.1149354E+00
         -3   -1    0    0    0  501 -0.00000000000E+00  0.00000000000E+00  0.13804092946E+03  0.13804092946E+03  0.00000000000E+00 0.  1.
          3   -1    0    0  501    0  0.00000000000E+00 -0.00000000000E+00 -0.32111469574E+03  0.32111469574E+03  0.00000000000E+00 0. -1.
         23    2    1    2    0    0  0.14415179020E+03 -0.75691682120E+02 -0.17160744955E+03  0.25355790867E+03  0.91288153381E+02 0.  0.
          5    1    1    2  502    0 -0.11203542144E+03 -0.14130821325E+01 -0.37067002171E+02  0.11811005507E+03  0.47000000000E+01 0. -1.
         -5    1    1    2    0  502 -0.32116368758E+02  0.77104764253E+02  0.25600685448E+02  0.87487661462E+02  0.47000000000E+01 0. -1.
        -11    1    3    3    0    0  0.12298717635E+03 -0.75313813245E+02 -0.91714075589E+02  0.17090783385E+03  0.00000000000E+00 0. -1.
         11    1    3    3    0    0  0.21164613855E+02 -0.37786887588E+00 -0.79893373960E+02  0.82650074816E+02  0.00000000000E+00 0.  1.
<mgrwt>
<rscale>  0 0.20045645E+03</rscale>
<asrwt>0</asrwt>
<pdfrwt beam="2">  1        3 0.49402261E-01 0.20527773E+03</pdfrwt>
<pdfrwt beam="1">  1       -3 0.21237066E-01 0.20527773E+03</pdfrwt>
<totfact> 0.20219133E+02</totfact>
</mgrwt>
</event>
<event>
 7    1  0.5107591E-006  0.1422286E+03  0.7546771E-02  0.1220990E+00
         -1   -1    0    0    0  501 -0.00000000000E+00  0.00000000000E+00  0.13510424257E+04  0.13510424257E+04  0.00000000000E+00 0.  1.
          1   -1    0    0  501    0  0.00000000000E+00 -0.00000000000E+00 -0.15454423425E+02  0.15454423425E+02  0.00000000000E+00 0. -1.
         23    2    1    2    0    0  0.23368343529E+02  0.63698551497E+02  0.29294849795E+03  0.31420121211E+03  0.91104304494E+02 0.  0.
          5    1    1    2  502    0  0.43822280771E+02 -0.59899747326E+02  0.50718930873E+03  0.51261238466E+03  0.47000000000E+01 0. -1.
         -5    1    1    2    0  502 -0.67190624300E+02 -0.37988041713E+01  0.53545019559E+03  0.53968325235E+03  0.47000000000E+01 0. -1.
        -11    1    3    3    0    0  0.33788713294E+02  0.27897943833E+02  0.26230172651E+03  0.26593639868E+03  0.00000000000E+00 0.  1.
         11    1    3    3    0    0 -0.10420369765E+02  0.35800607664E+02  0.30646771445E+02  0.48264813427E+02  0.00000000000E+00 0. -1.
<mgrwt>
<rscale>  0 0.13445562E+03</rscale>
<asrwt>0</asrwt>
<pdfrwt beam="2">  1        1 0.23776047E-02 0.14222859E+03</pdfrwt>
<pdfrwt beam="1">  1       -1 0.20785259E+00 0.14222859E+03</pdfrwt>
<totfact> 0.69290746E+02</totfact>
</mgrwt>
</event>
<event>
 7    1  0.5107591E-006  0.1443805E+03  0.7546771E-02  0.1215099E+00
          2   -1    0    0  501    0  0.00000000000E+00  0.00000000000E+00  0.48799286029E+03  0.48799286029E+03  0.00000000000E+00 0. -1.
         -2   -1    0    0    0  501 -0.00000000000E+00 -0.00000000000E+00 -0.37029029581E+02  0.37029029581E+02  0.00000000000E+00 0.  1.
         23    2    1    2    0    0  0.20111034634E+02  0.69397251748E+02  0.23547233117E+03  0.26563356515E+03  0.99466275326E+02 0.  0.
          5    1    1    2  502    0 -0.35126679263E+02 -0.28578597624E+02  0.66450603471E+01  0.46009419310E+02  0.47000000000E+01 0. -1.
         -5    1    1    2    0  502  0.15015644629E+02 -0.40818654123E+02  0.20884643919E+03  0.21337890541E+03  0.47000000000E+01 0. -1.
        -11    1    3    3    0    0  0.86939430109E+01 -0.11448312369E+02 -0.20031345473E+01  0.14514167189E+02  0.00000000000E+00 0.  1.
         11    1    3    3    0    0  0.11417091623E+02  0.80845564116E+02  0.23747546571E+03  0.25111939797E+03  0.00000000000E+00 0. -1.
<mgrwt>
<rscale>  0 0.13869271E+03</rscale>
<asrwt>0</asrwt>
<pdfrwt beam="1">  1        2 0.75075820E-01 0.14438046E+03</pdfrwt>
<pdfrwt beam="2">  1       -2 0.56967741E-02 0.14438046E+03</pdfrwt>
<totfact> 0.98088100E+03</totfact>
</mgrwt>
</event>
<event>
 7    1  0.5107591E-006  0.1467932E+03  0.7546771E-02  0.1213809E+00
          1   -1    0    0  501    0  0.00000000000E+00  0.00000000000E+00  0.29854057983E+03  0.29854057983E+03  0.00000000000E+00 0. -1.
         -1   -1    0    0    0  501 -0.00000000000E+00 -0.00000000000E+00 -0.62272353151E+02  0.62272353151E+02  0.00000000000E+00 0.  1.
         23    2    1    2    0    0  0.48457928490E+02  0.59801253009E+02  0.14333073799E+03  0.18707285633E+03  0.92348212907E+02 0.  0.
          5    1    1    2  502    0 -0.13996329867E+01 -0.12144725818E+01 -0.29540812575E+02  0.29969710105E+02  0.47000000000E+01 0. -1.
         -5    1    1    2    0  502 -0.47058295504E+02 -0.58586780427E+02  0.12247830126E+03  0.14377036655E+03  0.47000000000E+01 0. -1.
        -11    1    3    3    0    0  0.34878696920E+02 -0.86736278686E+01  0.96593788392E+02  0.10306364672E+03  0.00000000000E+00 0. -1.
         11    1    3    3    0    0  0.13579231570E+02  0.68474880877E+02  0.46736949594E+02  0.84009209606E+02  0.00000000000E+00 0.  1.
<mgrwt>
<rscale>  0 0.13964406E+03</rscale>
<asrwt>0</asrwt>
<pdfrwt beam="1">  1        1 0.45929319E-01 0.14679318E+03</pdfrwt>
<pdfrwt beam="2">  1       -1 0.95803622E-02 0.14679318E+03</pdfrwt>
<totfact> 0.55230063E+03</totfact>
</mgrwt>
</event>
<event>
 7    1  0.5107591E-006  0.1392996E+03  0.7546771E-02  0.1225888E+00
         -2   -1    0    0    0  501 -0.00000000000E+00  0.00000000000E+00  0.62305040431E+02  0.62305040431E+02  0.00000000000E+00 0.  1.
          2   -1    0    0  501    0  0.00000000000E+00 -0.00000000000E+00 -0.24997444819E+03  0.24997444819E+03  0.00000000000E+00 0. -1.
         23    2    1    2    0    0 -0.38130927083E+02  0.48351787808E+02 -0.97334180616E+02  0.14625287324E+03  0.90133774085E+02 0.  0.
          5    1    1    2  502    0 -0.29723194038E+02 -0.15802806587E+02 -0.83692229523E+02  0.90330926279E+02  0.47000000000E+01 0. -1.
         -5    1    1    2    0  502  0.67854121121E+02 -0.32548981220E+02 -0.66429976232E+01  0.75695689104E+02  0.47000000000E+01 0. -1.
        -11    1    3    3    0    0  0.28606369378E+02  0.20423691398E+02 -0.44302144179E+02  0.56552024881E+02  0.00000000000E+00 0. -1.
         11    1    3    3    0    0 -0.66737296461E+02  0.27928096409E+02 -0.53032036437E+02  0.89700848360E+02  0.00000000000E+00 0.  1.
<mgrwt>
<rscale>  0 0.13106254E+03</rscale>
<asrwt>0</asrwt>
<pdfrwt beam="2">  1        2 0.38457607E-01 0.13929962E+03</pdfrwt>
<pdfrwt beam="1">  1       -2 0.95853910E-02 0.13929962E+03</pdfrwt>
<totfact> 0.89827035E+03</totfact>
</mgrwt>
</event>
<event>
 7    1  0.5107591E-006  0.1262984E+03  0.7546771E-02  0.1248204E+00
         -2   -1    0    0    0  501 -0.00000000000E+00  0.00000000000E+00  0.73991897328E+02  0.73991897328E+02  0.00000000000E+00 0.  1.
          2   -1    0    0  501    0  0.00000000000E+00 -0.00000000000E+00 -0.16818180476E+03  0.16818180476E+03  0.00000000000E+00 0. -1.
         23    2    1    2    0    0 -0.41324748521E+01 -0.17584103902E+02 -0.62538814056E+02  0.11196967845E+03  0.91103389454E+02 0.  0.
          5    1    1    2  502    0  0.24998135005E+02 -0.94818955052E+01 -0.72100890898E+02  0.77041816985E+02  0.47000000000E+01 0. -1.
         -5    1    1    2    0  502 -0.20865660153E+02  0.27065999407E+02  0.40449797517E+02  0.53162206658E+02  0.47000000000E+01 0. -1.
        -11    1    3    3    0    0 -0.39198948377E+02 -0.35793091098E+02 -0.31508027367E+02  0.61728913102E+02  0.00000000000E+00 0.  1.
         11    1    3    3    0    0  0.35066473525E+02  0.18208987196E+02 -0.31030786689E+02  0.50240765347E+02  0.00000000000E+00 0. -1.
<mgrwt>
<rscale>  0 0.11695676E+03</rscale>
<asrwt>0</asrwt>
<pdfrwt beam="2">  1        2 0.25874124E-01 0.12629844E+03</pdfrwt>
<pdfrwt beam="1">  1       -2 0.11383369E-01 0.12629844E+03</pdfrwt>
<totfact> 0.10427522E+04</totfact>
</mgrwt>
</event>
<event>
 7    1  0.5107591E-006  0.1484992E+03  0.7546771E-02  0.1210398E+00
          1   -1    0    0  501    0  0.00000000000E+00  0.00000000000E+00  0.63106153838E+02  0.63106153838E+02  0.00000000000E+00 0. -1.
         -1   -1    0    0    0  501 -0.00000000000E+00 -0.00000000000E+00 -0.29613100946E+03  0.29613100946E+03  0.00000000000E+00 0.  1.
         23    2    1    2    0    0  0.71164322593E+02 -0.36883610952E+02 -0.10961892183E+03  0.16615419078E+03  0.95739989157E+02 0.  0.
          5    1    1    2  502    0 -0.77411148633E+02 -0.19007855987E+02 -0.32767840454E+02  0.86311099459E+02  0.47000000000E+01 0. -1.
         -5    1    1    2    0  502  0.62468260403E+01  0.55891466939E+02 -0.90638093344E+02  0.10677187306E+03  0.47000000000E+01 0. -1.
        -11    1    3    3    0    0  0.20094149981E+02  0.32770805086E+02 -0.35992244399E+02  0.52660632225E+02  0.00000000000E+00 0. -1.
         11    1    3    3    0    0  0.51070172611E+02 -0.69654416037E+02 -0.73626677428E+02  0.11349355855E+03  0.00000000000E+00 0.  1.
<mgrwt>
<rscale>  0 0.14220078E+03</rscale>
<asrwt>0</asrwt>
<pdfrwt beam="1">  1        1 0.97086393E-02 0.14849919E+03</pdfrwt>
<pdfrwt beam="2">  1       -1 0.45558616E-01 0.14849919E+03</pdfrwt>
<totfact> 0.31533814E+03</totfact>
</mgrwt>
</event>
<event>
 7    1  0.5107591E-006  0.1508638E+03  0.7546771E-02  0.1208406E+00
         -2   -1    0    0    0  501 -0.00000000000E+00  0.00000000000E+00  0.12881846568E+03  0.12881846568E+03  0.00000000000E+00 0.  1.
          2   -1    0    0  501    0  0.00000000000E+00 -0.00000000000E+00 -0.25326907352E+03  0.25326907352E+03  0.00000000000E+00 0. -1.
         23    2    1    2    0    0 -0.50422953289E+02 -0.67704348799E+02 -0.18220617004E+03  0.22054626041E+03  0.91187781608E+02 0.  0.
          5    1    1    2  502    0 -0.12593961861E+02  0.81245476671E+02  0.14091851149E+02  0.83547026420E+02  0.47000000000E+01 0.  1.
         -5    1    1    2    0  502  0.63016915150E+02 -0.13541127872E+02  0.43663711051E+02  0.77994252364E+02  0.47000000000E+01 0.  1.
        -11    1    3    3    0    0 -0.69567448347E+02 -0.76298491650E+02 -0.15311131774E+03  0.18467313101E+03  0.00000000000E+00 0.  1.
         11    1    3    3    0    0  0.19144495057E+02  0.85941428507E+01 -0.29094852297E+02  0.35873129394E+02  0.00000000000E+00 0. -1.
<mgrwt>
<rscale>  0 0.14372263E+03</rscale>
<asrwt>0</asrwt>
<pdfrwt beam="2">  1        2 0.38964473E-01 0.15086378E+03</pdfrwt>
<pdfrwt beam="1">  1       -2 0.19818226E-01 0.15086378E+03</pdfrwt>
<totfact> 0.27345794E+03</totfact>
</mgrwt>
</event>
<event>
 7    1  0.5107591E-006  0.1295122E+03  0.7546771E-02  0.1240072E+00
          1   -1    0    0  501    0  0.00000000000E+00  0.00000000000E+00  0.64212990349E+02  0.64212990349E+02  0.00000000000E+00 0. -1.
         -1   -1    0    0    0  501 -0.00000000000E+00 -0.00000000000E+00 -0.29906233627E+03  0.29906233627E+03  0.00000000000E+00 0.  1.
         23    2    1    2    0    0 -0.33029297380E+02 -0.74468291847E+01 -0.76724245660E+01  0.10177434338E+03  0.95670063869E+02 0.  0.
          5    1    1    2  502    0 -0.52276404394E+01  0.57852910478E+02 -0.15391875261E+03  0.16458238023E+03  0.47000000000E+01 0. -1.
         -5    1    1    2    0  502  0.38256937819E+02 -0.50406081293E+02 -0.73258168738E+02  0.96918603010E+02  0.47000000000E+01 0. -1.
        -11    1    3    3    0    0 -0.17487421893E+02  0.24572989857E+02 -0.42409353738E+02  0.52040321285E+02  0.00000000000E+00 0.  1.
         11    1    3    3    0    0 -0.15541875486E+02 -0.32019819041E+02  0.34736929172E+02  0.49734022092E+02  0.00000000000E+00 0. -1.
<mgrwt>
<rscale>  0 0.12185215E+03</rscale>
<asrwt>0</asrwt>
<pdfrwt beam="1">  1        1 0.98789216E-02 0.12951220E+03</pdfrwt>
<pdfrwt beam="2">  1       -1 0.46009590E-01 0.12951220E+03</pdfrwt>
<totfact> 0.30055807E+03</totfact>
</mgrwt>
</event>
<event>
 7    1  0.5107591E-006  0.1674153E+03  0.7546771E-02  0.1193697E+00
          1   -1    0    0  501    0  0.00000000000E+00  0.00000000000E+00  0.35999980111E+03  0.35999980111E+03  0.00000000000E+00 0. -1.
         -1   -1    0    0    0  501 -0.00000000000E+00 -0.00000000000E+00 -0.60275336938E+02  0.60275336938E+02  0.00000000000E+00 0.  1.
         23    2    1    2    0    0 -0.79847343270E+02  0.30068445322E+02  0.10363681612E+03  0.16244135384E+03  0.91470728382E+02 0.  0.
          5    1    1    2  502    0  0.78096237071E+02  0.45263405391E+02  0.89367425582E+02  0.12710792606E+03  0.47000000000E+01 0. -1.
         -5    1    1    2    0  502  0.17511061990E+01 -0.75331850713E+02  0.10672022247E+03  0.13072585815E+03  0.47000000000E+01 0.  1.
        -11    1    3    3    0    0 -0.60695558957E+02  0.52488747452E+02  0.34626998742E+02  0.87395929700E+02  0.00000000000E+00 0.  1.
         11    1    3    3    0    0 -0.19151784313E+02 -0.22420302130E+02  0.69009817379E+02  0.75045424142E+02  0.00000000000E+00 0. -1.
<mgrwt>
<rscale>  0 0.15564993E+03</rscale>
<asrwt>0</asrwt>
<pdfrwt beam="1">  1        1 0.55384584E-01 0.16741534E+03</pdfrwt>
<pdfrwt beam="2">  1       -1 0.92731289E-02 0.16741534E+03</pdfrwt>
<totfact> 0.46275047E+03</totfact>
</mgrwt>
</event>
<event>
 7    1  0.5107591E-006  0.1404138E+03  0.7546771E-02  0.1223192E+00
          1   -1    0    0  501    0  0.00000000000E+00  0.00000000000E+00  0.22371175859E+02  0.22371175859E+02  0.00000000000E+00 0. -1.
         -1   -1    0    0    0  501 -0.00000000000E+00 -0.00000000000E+00 -0.78928415047E+03  0.78928415047E+03  0.00000000000E+00 0.  1.
         23    2    1    2    0    0  0.49633917919E+02  0.40351589621E+02 -0.22258588083E+03  0.24950941034E+03  0.92836926446E+02 0.  0.
          5    1    1    2  502    0  0.27711413265E+02  0.17873636922E+02 -0.64128537654E+02  0.72263051856E+02  0.47000000000E+01 0.  1.
         -5    1    1    2    0  502 -0.77345331184E+02 -0.58225226543E+02 -0.48019855613E+03  0.48988286413E+03  0.47000000000E+01 0.  1.
        -11    1    3    3    0    0  0.45202954130E+02  0.54146597639E+02 -0.22410295538E+03  0.23494104730E+03  0.00000000000E+00 0.  1.
         11    1    3    3    0    0  0.44309637895E+01 -0.13795008018E+02  0.15170745551E+01  0.14568363035E+02  0.00000000000E+00 0. -1.
<mgrwt>
<rscale>  0 0.13291612E+03</rscale>
<asrwt>0</asrwt>
<pdfrwt beam="1">  1        1 0.34417193E-02 0.14041384E+03</pdfrwt>
<pdfrwt beam="2">  1       -1 0.12142833E+00 0.14041384E+03</pdfrwt>
<totfact> 0.17585792E+03</totfact>
</mgrwt>
</event>
<event>
 7    1  0.5107591E-006  0.1550590E+03  0.7546771E-02  0.1202984E+00
         -2   -1    0    0    0  501 -0.00000000000E+00  0.00000000000E+00  0.20797972558E+03  0.20797972558E+03  0.00000000000E+00 0.  1.
          2   -1    0    0  501    0  0.00000000000E+00 -0.00000000000E+00 -0.10206336951E+03  0.10206336951E+03  0.00000000000E+00 0. -1.
         23    2    1    2    0    0 -0.78615675174E+02  0.47301839181E+02  0.12962869832E+02  0.12925687111E+03  0.90118890149E+02 0.  0.
          5    1    1    2  502    0  0.57450753659E+01 -0.74436465604E+02  0.61247109756E+02  0.96680358688E+02  0.47000000000E+01 0.  1.
         -5    1    1    2    0  502  0.72870599808E+02  0.27134626423E+02  0.31706376478E+02  0.84105865294E+02  0.47000000000E+01 0.  1.
        -11    1    3    3    0    0 -0.17040357796E+02  0.57987007270E+02 -0.12594847523E+02  0.61737322505E+02  0.00000000000E+00 0. -1.
         11    1    3    3    0    0 -0.61575317378E+02 -0.10685168089E+02  0.25557717355E+02  0.67519548604E+02  0.00000000000E+00 0.  1.
<mgrwt>
<rscale>  0 0.14797471E+03</rscale>
<asrwt>0</asrwt>
<pdfrwt beam="2">  1        2 0.15702057E-01 0.15505905E+03</pdfrwt>
<pdfrwt beam="1">  1       -2 0.31996881E-01 0.15505905E+03</pdfrwt>
<totfact> 0.32440753E+03</totfact>
</mgrwt>
</event>
<event>
 7    1  0.5107591E-006  0.1674955E+03  0.7546771E-02  0.1183469E+00
          2   -1    0    0  501    0  0.00000000000E+00  0.00000000000E+00  0.16178354530E+03  0.16178354530E+03  0.00000000000E+00 0. -1.
         -2   -1    0    0    0  501 -0.00000000000E+00 -0.00000000000E+00 -0.26168915581E+03  0.26168915581E+03  0.00000000000E+00 0.  1.
         23    2    1    2    0    0 -0.87353653146E+02 -0.69269205923E+02  0.81475464030E+02  0.17658439280E+03  0.11006776520E+03 0.  0.
          5    1    1    2  502    0  0.78255991393E+02  0.46124837220E+02 -0.19711365233E+03  0.21708842146E+03  0.47000000000E+01 0.  1.
         -5    1    1    2    0  502  0.90976617528E+01  0.23144368703E+02  0.15732577795E+02  0.29799886847E+02  0.47000000000E+01 0.  1.
        -11    1    3    3    0    0 -0.58619138214E+02 -0.16881370823E+01  0.84766165186E+02  0.10307451641E+03  0.00000000000E+00 0. -1.
         11    1    3    3    0    0 -0.28734514931E+02 -0.67581068840E+02 -0.32907011559E+01  0.73509876398E+02  0.00000000000E+00 0.  1.
<mgrwt>
<rscale>  0 0.16471952E+03</rscale>
<asrwt>0</asrwt>
<pdfrwt beam="1">  1        2 0.24889776E-01 0.16749550E+03</pdfrwt>
<pdfrwt beam="2">  1       -2 0.40259870E-01 0.16749550E+03</pdfrwt>
<totfact> 0.12559338E+03</totfact>
</mgrwt>
</event>
<event>
 7    1  0.5107591E-006  0.1365300E+03  0.7546771E-02  0.1230638E+00
         -1   -1    0    0    0  501 -0.00000000000E+00  0.00000000000E+00  0.61772826314E+02  0.61772826314E+02  0.00000000000E+00 0.  1.
          1   -1    0    0  501    0  0.00000000000E+00 -0.00000000000E+00 -0.23757557185E+03  0.23757557185E+03  0.00000000000E+00 0. -1.
         23    2    1    2    0    0  0.23354120781E+02 -0.49707670124E+02 -0.87637720208E+02  0.13682604541E+03  0.89580853276E+02 0.  0.
          5    1    1    2  502    0 -0.59210282815E+02  0.45712789862E+02 -0.99357426687E+02  0.12445683985E+03  0.47000000000E+01 0.  1.
         -5    1    1    2    0  502  0.35856162034E+02  0.39948802621E+01  0.11192401359E+02  0.38065512899E+02  0.47000000000E+01 0.  1.
        -11    1    3    3    0    0  0.76758913484E+01 -0.69348924219E+02 -0.34049204258E+02  0.77637239189E+02  0.00000000000E+00 0.  1.
         11    1    3    3    0    0  0.15678229433E+02  0.19641254094E+02 -0.53588515950E+02  0.59188806225E+02  0.00000000000E+00 0. -1.
<mgrwt>
<rscale>  0 0.12787838E+03</rscale>
<asrwt>0</asrwt>
<pdfrwt beam="2">  1        1 0.36550089E-01 0.13653001E+03</pdfrwt>
<pdfrwt beam="1">  1       -1 0.95035116E-02 0.13653001E+03</pdfrwt>
<totfact> 0.73845360E+03</totfact>
</mgrwt>
</event>
<event>
 7    1  0.5107591E-006  0.1546883E+03  0.7546771E-02  0.1202065E+00
         -2   -1    0    0    0  501 -0.00000000000E+00  0.00000000000E+00  0.27786380218E+03  0.27786380218E+03  0.00000000000E+00 0. -1.
          2   -1    0    0  501    0  0.00000000000E+00 -0.00000000000E+00 -0.77302706174E+02  0.77302706174E+02  0.00000000000E+00 0.  1.
         23    2    1    2    0    0 -0.75745764526E+02  0.50635543189E+02  0.56227362354E+02  0.14359925655E+03  0.95696662050E+02 0.  0.
          5    1    1    2  502    0  0.44612875946E+02  0.29428124645E+02  0.10296810339E+03  0.11610703483E+03  0.47000000000E+01 0.  1.
         -5    1    1    2    0  502  0.31132888580E+02 -0.80063667834E+02  0.41365630262E+02  0.95460216977E+02  0.47000000000E+01 0.  1.
        -11    1    3    3    0    0  0.33927573316E+01  0.44721255659E+02  0.44852336472E+02  0.63428964969E+02  0.00000000000E+00 0.  1.
         11    1    3    3    0    0 -0.79138521857E+02  0.59142875302E+01  0.11375025882E+02  0.80170291583E+02  0.00000000000E+00 0. -1.
<mgrwt>
<rscale>  0 0.14871209E+03</rscale>
<asrwt>0</asrwt>
<pdfrwt beam="2">  1        2 0.11892724E-01 0.15468832E+03</pdfrwt>
<pdfrwt beam="1">  1       -2 0.42748277E-01 0.15468832E+03</pdfrwt>
<totfact> 0.26246951E+03</totfact>
</mgrwt>
</event>
<event>
 7    1  0.5107591E-006  0.2141291E+03  0.7546771E-02  0.1141918E+00
         -2   -1    0    0    0  501 -0.00000000000E+00  0.00000000000E+00  0.84455390374E+02  0.84455390374E+02  0.00000000000E+00 0. -1.
          2   -1    0    0  501    0  0.00000000000E+00 -0.00000000000E+00 -0.52187162927E+03  0.52187162927E+03  0.00000000000E+00 0.  1.
         23    2    1    2    0    0  0.15890528338E+03  0.70556956780E+02 -0.14616672212E+03  0.24483349613E+03  0.91375910044E+02 0.  0.
          5    1    1    2  502    0 -0.15248489032E+03 -0.44344784815E+02 -0.15303265551E+03  0.22058827115E+03  0.47000000000E+01 0. -1.
         -5    1    1    2    0  502 -0.64203930620E+01 -0.26212171965E+02 -0.13821686127E+03  0.14090525237E+03  0.47000000000E+01 0. -1.
        -11    1    3    3    0    0  0.13452697977E+03  0.80821370660E+02 -0.85651121936E+02  0.17878958842E+03  0.00000000000E+00 0. -1.
         11    1    3    3    0    0  0.24378303613E+02 -0.10264413880E+02 -0.60515600185E+02  0.66043907706E+02  0.00000000000E+00 0.  1.
<mgrwt>
<rscale>  0 0.20955610E+03</rscale>
<asrwt>0</asrwt>
<pdfrwt beam="2">  1        2 0.80287943E-01 0.21412914E+03</pdfrwt>
<pdfrwt beam="1">  1       -2 0.12993137E-01 0.21412914E+03</pdfrwt>
<totfact> 0.25518040E+03</totfact>
</mgrwt>
</event>
<event>
 7    1  0.5107591E-006  0.1907535E+03  0.7546771E-02  0.1162902E+00
          2   -1    0    0  501    0  0.00000000000E+00  0.00000000000E+00  0.18392705384E+04  0.18392705384E+04  0.00000000000E+00 0. -1.
         -2   -1    0    0    0  501 -0.00000000000E+00 -0.00000000000E+00 -0.18025747303E+02  0.18025747303E+02  0.00000000000E+00 0.  1.
         23    2    1    2    0    0  0.68069856149E+02 -0.12699725359E+03  0.99592651994E+03  0.10102206345E+04  0.88962293074E+02 0.  0.
          5    1    1    2  502    0  0.73053803584E+01  0.59180351491E+00 -0.18267059908E-01  0.87068448514E+01  0.47000000000E+01 0.  1.
         -5    1    1    2    0  502 -0.75375236507E+02  0.12640545007E+03  0.82533653826E+03  0.83836880636E+03  0.47000000000E+01 0.  1.
        -11    1    3    3    0    0  0.39413490499E+02 -0.13404473582E+03  0.83570816355E+03  0.84730723415E+03  0.00000000000E+00 0.  1.
         11    1    3    3    0    0  0.28656365650E+02  0.70474822350E+01  0.16021835639E+03  0.16291340038E+03  0.00000000000E+00 0. -1.
<mgrwt>
<rscale>  0 0.18515884E+03</rscale>
<asrwt>0</asrwt>
<pdfrwt beam="1">  1        2 0.28296455E+00 0.19075353E+03</pdfrwt>
<pdfrwt beam="2">  1       -2 0.27731933E-02 0.19075353E+03</pdfrwt>
<totfact> 0.42867262E+03</totfact>
</mgrwt>
</event>
<event>
 7    1  0.5107591E-006  0.1487114E+03  0.7546771E-02  0.1206726E+00
         -1   -1    0    0    0  501 -0.00000000000E+00  0.00000000000E+00  0.98512757536E+03  0.98512757536E+03  0.00000000000E+00 0.  1.
          1   -1    0    0  501    0  0.00000000000E+00 -0.00000000000E+00 -0.68180840273E+02  0.68180840273E+02  0.00000000000E+00 0. -1.
         23    2    1    2    0    0  0.94007293118E+02 -0.31029685069E+02  0.10677319109E+02  0.13491888777E+03  0.91043333736E+02 0.  0.
          5    1    1    2  502    0 -0.84218191789E+02 -0.97003225986E+01  0.33589893879E+03  0.34646354377E+03  0.47000000000E+01 0. -1.
         -5    1    1    2    0  502 -0.97891013289E+01  0.40730007667E+02  0.57037047719E+03  0.57192598409E+03  0.47000000000E+01 0.  1.
        -11    1    3    3    0    0  0.86848680388E+02  0.13130562802E+02 -0.37433163661E+01  0.87915399004E+02  0.00000000000E+00 0.  1.
         11    1    3    3    0    0  0.71586127299E+01 -0.44160247871E+02  0.14420635475E+02  0.47003488761E+02  0.00000000000E+00 0. -1.
<mgrwt>
<rscale>  0 0.14502245E+03</rscale>
<asrwt>0</asrwt>
<pdfrwt beam="2">  1        1 0.10489361E-01 0.14871137E+03</pdfrwt>
<pdfrwt beam="1">  1       -1 0.15155808E+00 0.14871137E+03</pdfrwt>
<totfact> 0.22365192E+02</totfact>
</mgrwt>
</event>
<event>
 7    1  0.5107591E-006  0.1733375E+03  0.7546771E-02  0.1180647E+00
          2   -1    0    0  501    0  0.00000000000E+00  0.00000000000E+00  0.44765096059E+03  0.44765096059E+03  0.00000000000E+00 0. -1.
         -2   -1    0    0    0  501 -0.00000000000E+00 -0.00000000000E+00 -0.60165805050E+02  0.60165805050E+02  0.00000000000E+00 0.  1.
         23    2    1    2    0    0 -0.16406315296E+02  0.11897738097E+03  0.22142044508E+03  0.26776804506E+03  0.90818104415E+02 0.  0.
          5    1    1    2  502    0 -0.44512491665E+02 -0.50038454163E+02  0.25143410717E+02  0.71690235819E+02  0.47000000000E+01 0.  1.
         -5    1    1    2    0  502  0.60918806961E+02 -0.68938926809E+02  0.14092129974E+03  0.16835848477E+03  0.47000000000E+01 0.  1.
        -11    1    3    3    0    0  0.27460354794E+02  0.51823254985E+02  0.14732799359E+03  0.15857256553E+03  0.00000000000E+00 0. -1.
         11    1    3    3    0    0 -0.43866670089E+02  0.67154125987E+02  0.74092451487E+02  0.10919547953E+03  0.00000000000E+00 0.  1.
<mgrwt>
<rscale>  0 0.16734294E+03</rscale>
<asrwt>0</asrwt>
<pdfrwt beam="1">  1        2 0.68869376E-01 0.17333753E+03</pdfrwt>
<pdfrwt beam="2">  1       -2 0.92562780E-02 0.17333753E+03</pdfrwt>
<totfact> 0.51567926E+03</totfact>
</mgrwt>
</event>
<event>
 7    1  0.5107591E-006  0.1375480E+03  0.7546771E-02  0.1231682E+00
         -2   -1    0    0    0  501 -0.00000000000E+00  0.00000000000E+00  0.77966713969E+02  0.77966713969E+02  0.00000000000E+00 0.  1.
          2   -1    0    0  501    0  0.00000000000E+00 -0.00000000000E+00 -0.18199035010E+03  0.18199035010E+03  0.00000000000E+00 0. -1.
         23    2    1    2    0    0 -0.10187628750E+02  0.41792013762E+02 -0.47928992155E+02  0.11141057394E+03  0.90910766705E+02 0.  0.
          5    1    1    2  502    0  0.48349730669E+02  0.29120734186E+02 -0.27512200092E+02  0.62966060454E+02  0.47000000000E+01 0. -1.
         -5    1    1    2    0  502 -0.38162101919E+02 -0.70912747948E+02 -0.28582443882E+02  0.85580429671E+02  0.47000000000E+01 0.  1.
        -11    1    3    3    0    0 -0.40075401885E+02 -0.91033809294E+01 -0.14501942876E+02  0.43579992288E+02  0.00000000000E+00 0.  1.
         11    1    3    3    0    0  0.29887773135E+02  0.50895394692E+02 -0.33427049279E+02  0.67830581653E+02  0.00000000000E+00 0. -1.
<mgrwt>
<rscale>  0 0.12719268E+03</rscale>
<asrwt>0</asrwt>
<pdfrwt beam="2">  1        2 0.27998515E-01 0.13754799E+03</pdfrwt>
<pdfrwt beam="1">  1       -2 0.11994879E-01 0.13754799E+03</pdfrwt>
<totfact> 0.88602925E+03</totfact>
</mgrwt>
</event>
<event>
 7    1  0.5107591E-006  0.1597935E+03  0.7546771E-02  0.1196501E+00
          3   -1    0    0  501    0  0.00000000000E+00  0.00000000000E+00  0.88090780296E+02  0.88090780296E+02  0.00000000000E+00 0. -1.
         -3   -1    0    0    0  501 -0.00000000000E+00 -0.00000000000E+00 -0.25580452559E+03  0.25580452559E+03  0.00000000000E+00 0.  1.
         23    2    1    2    0    0 -0.83712931031E+02 -0.53863613058E+02 -0.45532740872E+02  0.14274322189E+03  0.91614700087E+02 0.  0.
          5    1    1    2  502    0  0.95796488073E+02  0.30104024435E+02 -0.13728640187E+03  0.17015541588E+03  0.47000000000E+01 0.  1.
         -5    1    1    2    0  502 -0.12083557042E+02  0.23759588624E+02  0.15105397445E+02  0.30996668117E+02  0.47000000000E+01 0.  1.
        -11    1    3    3    0    0 -0.46110674305E+02  0.32279782905E+01  0.17819876539E+02  0.49539500689E+02  0.00000000000E+00 0. -1.
         11    1    3    3    0    0 -0.37602256726E+02 -0.57091591349E+02 -0.63352617411E+02  0.93203721205E+02  0.00000000000E+00 0.  1.
<mgrwt>
<rscale>  0 0.15327906E+03</rscale>
<asrwt>0</asrwt>
<pdfrwt beam="1">  1        3 0.13552428E-01 0.15979350E+03</pdfrwt>
<pdfrwt beam="2">  1       -3 0.39354542E-01 0.15979350E+03</pdfrwt>
<totfact> 0.67102171E+02</totfact>
</mgrwt>
</event>
<event>
 7    1  0.5107591E-006  0.1412042E+03  0.7546771E-02  0.1217240E+00
          2   -1    0    0  501    0  0.00000000000E+00  0.00000000000E+00  0.98754212117E+03  0.98754212117E+03  0.00000000000E+00 0. -1.
         -2   -1    0    0    0  501 -0.00000000000E+00 -0.00000000000E+00 -0.18257870573E+02  0.18257870573E+02  0.00000000000E+00 0.  1.
         23    2    1    2    0    0  0.11445965851E+02  0.64660692919E+02  0.51377080710E+03  0.52890260736E+03  0.10707712404E+03 0.  0.
          5    1    1    2  502    0 -0.52873209051E+02 -0.78268807495E+02  0.35185436309E+03  0.36434209925E+03  0.47000000000E+01 0.  1.
         -5    1    1    2    0  502  0.41427243200E+02  0.13608114576E+02  0.10365908041E+03  0.11255528514E+03  0.47000000000E+01 0.  1.
        -11    1    3    3    0    0 -0.45228652205E+02  0.90345151601E+01  0.19761577989E+03  0.20292671068E+03  0.00000000000E+00 0. -1.
         11    1    3    3    0    0  0.56674618056E+02  0.55626177759E+02  0.31615502721E+03  0.32597589668E+03  0.00000000000E+00 0.  1.
<mgrwt>
<rscale>  0 0.13713254E+03</rscale>
<asrwt>0</asrwt>
<pdfrwt beam="1">  1        2 0.15192952E+00 0.14120417E+03</pdfrwt>
<pdfrwt beam="2">  1       -2 0.28089039E-02 0.14120417E+03</pdfrwt>
<totfact> 0.12032345E+04</totfact>
</mgrwt>
</event>
<event>
 7    1  0.5107591E-006  0.1895790E+03  0.7546771E-02  0.1186849E+00
          1   -1    0    0  501    0  0.00000000000E+00  0.00000000000E+00  0.39133914427E+03  0.39133914427E+03  0.00000000000E+00 0. -1.
         -1   -1    0    0    0  501 -0.00000000000E+00 -0.00000000000E+00 -0.18837066913E+03  0.18837066913E+03  0.00000000000E+00 0.  1.
         23    2    1    2    0    0  0.13619637914E+02 -0.39668608883E+02  0.33435781836E+03  0.34905128634E+03  0.91008553046E+02 0.  0.
          5    1    1    2  502    0 -0.62720825253E+02  0.83788242120E+02 -0.28937364751E+02  0.10869145558E+03  0.47000000000E+01 0. -1.
         -5    1    1    2    0  502  0.49101187338E+02 -0.44119633237E+02 -0.10245197846E+03  0.12196707148E+03  0.47000000000E+01 0.  1.
        -11    1    3    3    0    0 -0.30377713702E+02 -0.38285523962E+02  0.24006937082E+03  0.24499365225E+03  0.00000000000E+00 0.  1.
         11    1    3    3    0    0  0.43997351616E+02 -0.13830849202E+01  0.94288447537E+02  0.10405763409E+03  0.00000000000E+00 0. -1.
<mgrwt>
<rscale>  0 0.16164724E+03</rscale>
<asrwt>0</asrwt>
<pdfrwt beam="1">  1        1 0.60206022E-01 0.18957900E+03</pdfrwt>
<pdfrwt beam="2">  1       -1 0.28980103E-01 0.18957900E+03</pdfrwt>
<totfact> 0.67872644E+02</totfact>
</mgrwt>
</event>
<event>
 7    1  0.5107591E-006  0.1279697E+03  0.7546771E-02  0.1267139E+00
         -2   -1    0    0    0  501 -0.00000000000E+00  0.00000000000E+00  0.92816457033E+02  0.92816457033E+02  0.00000000000E+00 0. -1.
          2   -1    0    0  501    0  0.00000000000E+00 -0.00000000000E+00 -0.96844398360E+02  0.96844398360E+02  0.00000000000E+00 0.  1.
         23    2    1    2    0    0 -0.17335634404E+02  0.21226654789E+02 -0.53648462570E+01  0.61684211991E+02  0.55000593996E+02 0.  0.
          5    1    1    2  502    0  0.53100099067E+02  0.56843356836E+01  0.41391274468E+02  0.67729312673E+02  0.47000000000E+01 0. -1.
         -5    1    1    2    0  502 -0.35764464663E+02 -0.26910990473E+02 -0.40054369538E+02  0.60247330729E+02  0.47000000000E+01 0. -1.
        -11    1    3    3    0    0  0.15323255941E+02  0.43915351804E+01  0.13035607975E+02  0.20591620363E+02  0.00000000000E+00 0.  1.
         11    1    3    3    0    0 -0.32658890345E+02  0.16835119609E+02 -0.18400454232E+02  0.41092591629E+02  0.00000000000E+00 0. -1.
<mgrwt>
<rscale>  0 0.10652746E+03</rscale>
<asrwt>0</asrwt>
<pdfrwt beam="2">  1        2 0.14899138E-01 0.12796966E+03</pdfrwt>
<pdfrwt beam="1">  1       -2 0.14279455E-01 0.12796966E+03</pdfrwt>
<totfact> 0.13554427E+04</totfact>
</mgrwt>
</event>
<event>
 7    1  0.5107591E-006  0.1462670E+03  0.7546771E-02  0.1215230E+00
          1   -1    0    0  501    0  0.00000000000E+00  0.00000000000E+00  0.35051477685E+03  0.35051477685E+03  0.00000000000E+00 0. -1.
         -1   -1    0    0    0  501 -0.00000000000E+00 -0.00000000000E+00 -0.54581982936E+02  0.54581982936E+02  0.00000000000E+00 0.  1.
         23    2    1    2    0    0  0.77124699181E+02  0.19939863931E+02  0.19325380080E+03  0.22638746595E+03  0.86939265119E+02 0.  0.
          5    1    1    2  502    0 -0.79519552022E+02 -0.41668440523E+02  0.12034333649E+03  0.15021393653E+03  0.47000000000E+01 0. -1.
         -5    1    1    2    0  502  0.23948528406E+01  0.21728576592E+02 -0.17664343379E+02  0.28495357304E+02  0.47000000000E+01 0.  1.
        -11    1    3    3    0    0 -0.11276240788E+02 -0.17730848548E+02  0.25307340702E+02  0.32893739373E+02  0.00000000000E+00 0. -1.
         11    1    3    3    0    0  0.88400939970E+02  0.37670712479E+02  0.16794646010E+03  0.19349372658E+03  0.00000000000E+00 0.  1.
<mgrwt>
<rscale>  0 0.13859681E+03</rscale>
<asrwt>0</asrwt>
<pdfrwt beam="1">  1        1 0.53925349E-01 0.14626700E+03</pdfrwt>
<pdfrwt beam="2">  1       -1 0.83972284E-02 0.14626700E+03</pdfrwt>
<totfact> 0.55249994E+03</totfact>
</mgrwt>
</event>
<event>
 7    1  0.5107591E-006  0.1427728E+03  0.7546771E-02  0.1224810E+00
          2   -1    0    0  501    0  0.00000000000E+00  0.00000000000E+00  0.99338872738E+02  0.99338872738E+02  0.00000000000E+00 0. -1.
         -2   -1    0    0    0  501 -0.00000000000E+00 -0.00000000000E+00 -0.23545127188E+03  0.23545127188E+03  0.00000000000E+00 0.  1.
         23    2    1    2    0    0 -0.48677270061E+02  0.48870593124E+02  0.37278341892E+02  0.11018287644E+03  0.77413047953E+02 0.  0.
          5    1    1    2  502    0  0.50556266343E+02  0.19080613947E+02 -0.13702677408E+03  0.14737175004E+03  0.47000000000E+01 0.  1.
         -5    1    1    2    0  502 -0.18789962818E+01 -0.67951207072E+02 -0.36363966954E+02  0.77235518139E+02  0.47000000000E+01 0.  1.
        -11    1    3    3    0    0 -0.51772517409E+02  0.53680165808E+01 -0.11393578054E+01  0.52062532565E+02  0.00000000000E+00 0.  1.
         11    1    3    3    0    0  0.30952473476E+01  0.43502576544E+02  0.38417699697E+02  0.58120343875E+02  0.00000000000E+00 0. -1.
<mgrwt>
<rscale>  0 0.13179932E+03</rscale>
<asrwt>0</asrwt>
<pdfrwt beam="1">  1        2 0.15282903E-01 0.14277281E+03</pdfrwt>
<pdfrwt beam="2">  1       -2 0.36223273E-01 0.14277281E+03</pdfrwt>
<totfact> 0.26529553E+03</totfact>
</mgrwt>
</event>
<event>
 7    1  0.5107591E-006  0.1699891E+03  0.7546771E-02  0.1184740E+00
         -1   -1    0    0    0  501 -0.00000000000E+00  0.00000000000E+00  0.89288188144E+02  0.89288188144E+02  0.00000000000E+00 0.  1.
          1   -1    0    0  501    0  0.00000000000E+00 -0.00000000000E+00 -0.36325893190E+03  0.36325893190E+03  0.00000000000E+00 0. -1.
         23    2    1    2    0    0 -0.11424164235E+03 -0.14858520401E+02 -0.23761063615E+03  0.27871284950E+03  0.89163387045E+02 0.  0.
          5    1    1    2  502    0  0.22233487481E+02  0.33211401149E+02 -0.64277380845E+02  0.75835326993E+02  0.47000000000E+01 0.  1.
         -5    1    1    2    0  502  0.92008154865E+02 -0.18352880748E+02  0.27917273236E+02  0.97998943557E+02  0.47000000000E+01 0.  1.
        -11    1    3    3    0    0 -0.64687525282E+02  0.30003981506E+02 -0.78065647083E+02  0.10573060147E+03  0.00000000000E+00 0.  1.
         11    1    3    3    0    0 -0.49554117064E+02 -0.44862501907E+02 -0.15954498907E+03  0.17298224803E+03  0.00000000000E+00 0. -1.
<mgrwt>
<rscale>  0 0.16355514E+03</rscale>
<asrwt>0</asrwt>
<pdfrwt beam="2">  1        1 0.55885990E-01 0.16998911E+03</pdfrwt>
<pdfrwt beam="1">  1       -1 0.13736644E-01 0.16998911E+03</pdfrwt>
<totfact> 0.24938559E+03</totfact>
</mgrwt>
</event>
<event>
 7    1  0.5107591E-006  0.1528264E+03  0.7546771E-02  0.1214325E+00
          1   -1    0    0  501    0  0.00000000000E+00  0.00000000000E+00  0.23962684854E+03  0.23962684854E+03  0.00000000000E+00 0. -1.
         -1   -1    0    0    0  501 -0.00000000000E+00 -0.00000000000E+00 -0.69714761261E+02  0.69714761261E+02  0.00000000000E+00 0.  1.
         23    2    1    2    0    0 -0.46494195909E+02 -0.16314186081E+02  0.76673895814E+02  0.13031849539E+03  0.93145912534E+02 0.  0.
          5    1    1    2  502    0  0.26620605395E+02 -0.10961915685E+02  0.12744529316E+03  0.13074101490E+03  0.47000000000E+01 0. -1.
         -5    1    1    2    0  502  0.19873590514E+02  0.27276101766E+02 -0.34207101691E+02  0.48282099515E+02  0.47000000000E+01 0.  1.
        -11    1    3    3    0    0 -0.19185835068E+02 -0.47947764373E+02  0.71512486785E+02  0.88210657756E+02  0.00000000000E+00 0. -1.
         11    1    3    3    0    0 -0.27308360841E+02  0.31633578292E+02  0.51614090288E+01  0.42107837638E+02  0.00000000000E+00 0.  1.
<mgrwt>
<rscale>  0 0.13926240E+03</rscale>
<asrwt>0</asrwt>
<pdfrwt beam="1">  1        1 0.36865669E-01 0.15282642E+03</pdfrwt>
<pdfrwt beam="2">  1       -1 0.10725348E-01 0.15282642E+03</pdfrwt>
<totfact> 0.61170081E+03</totfact>
</mgrwt>
</event>
<event>
 7    1  0.5107591E-006  0.1356608E+03  0.7546771E-02  0.1232071E+00
          2   -1    0    0  501    0  0.00000000000E+00  0.00000000000E+00  0.96725379144E+02  0.96725379144E+02  0.00000000000E+00 0. -1.
         -2   -1    0    0    0  501 -0.00000000000E+00 -0.00000000000E+00 -0.14895836272E+03  0.14895836272E+03  0.00000000000E+00 0.  1.
         23    2    1    2    0    0  0.48250548681E+02 -0.21309352429E+02 -0.29811511144E+02  0.10818256735E+03  0.89624425988E+02 0.  0.
          5    1    1    2  502    0  0.34851372649E+02  0.10370512946E+02  0.21759398330E+02  0.42634811246E+02  0.47000000000E+01 0. -1.
         -5    1    1    2    0  502 -0.83101921330E+02  0.10938839483E+02 -0.44180870763E+02  0.94866363266E+02  0.47000000000E+01 0. -1.
        -11    1    3    3    0    0  0.61067864388E+02  0.16628026946E+02 -0.24141252829E+02  0.67739024418E+02  0.00000000000E+00 0.  1.
         11    1    3    3    0    0 -0.12817315706E+02 -0.37937379376E+02 -0.56702583150E+01  0.40443542936E+02  0.00000000000E+00 0. -1.
<mgrwt>
<rscale>  0 0.12693833E+03</rscale>
<asrwt>0</asrwt>
<pdfrwt beam="1">  1        2 0.14880828E-01 0.13566079E+03</pdfrwt>
<pdfrwt beam="2">  1       -2 0.22916671E-01 0.13566079E+03</pdfrwt>
<totfact> 0.61884203E+03</totfact>
</mgrwt>
</event>
<event>
 7    1  0.5107591E-006  0.1448206E+03  0.7546771E-02  0.1220179E+00
         -2   -1    0    0    0  501 -0.00000000000E+00  0.00000000000E+00  0.48385949606E+03  0.48385949606E+03  0.00000000000E+00 0.  1.
          2   -1    0    0  501    0  0.00000000000E+00 -0.00000000000E+00 -0.71582982093E+02  0.71582982093E+02  0.00000000000E+00 0. -1.
         23    2    1    2    0    0 -0.27836428906E+02  0.42997449973E+02 -0.91455307001E+01  0.10983105078E+03  0.96724203302E+02 0.  0.
          5    1    1    2  502    0 -0.27585959626E+02  0.18315815210E+02  0.28131020652E+02  0.43702386414E+02  0.47000000000E+01 0. -1.
         -5    1    1    2    0  502  0.55422388532E+02 -0.61313265183E+02  0.39329102402E+03  0.40190904096E+03  0.47000000000E+01 0.  1.
        -11    1    3    3    0    0 -0.16690097610E+02  0.69686001123E+02 -0.26150936210E+02  0.76279548867E+02  0.00000000000E+00 0. -1.
         11    1    3    3    0    0 -0.11146331296E+02 -0.26688551149E+02  0.17005405510E+02  0.33551501909E+02  0.00000000000E+00 0.  1.
<mgrwt>
<rscale>  0 0.13502877E+03</rscale>
<asrwt>0</asrwt>
<pdfrwt beam="2">  1        2 0.11012767E-01 0.14482059E+03</pdfrwt>
<pdfrwt beam="1">  1       -2 0.74439921E-01 0.14482059E+03</pdfrwt>
<totfact> 0.92983750E+02</totfact>
</mgrwt>
</event>
<event>
 7    1  0.5107591E-006  0.1451006E+03  0.7546771E-02  0.1216329E+00
         -1   -1    0    0    0  501 -0.00000000000E+00  0.00000000000E+00  0.20121525726E+03  0.20121525726E+03  0.00000000000E+00 0.  1.
          1   -1    0    0  501    0  0.00000000000E+00 -0.00000000000E+00 -0.92271975436E+02  0.92271975436E+02  0.00000000000E+00 0. -1.
         23    2    1    2    0    0 -0.60879317965E+02  0.41966205304E+02  0.11202639944E+02  0.11853743935E+03  0.91968318684E+02 0.  0.
          5    1    1    2  502    0  0.26590861835E+02  0.29700771531E+02 -0.96488350210E+01  0.41284376948E+02  0.47000000000E+01 0. -1.
         -5    1    1    2    0  502  0.34288456130E+02 -0.71666976836E+02  0.10738947690E+03  0.13366541640E+03  0.47000000000E+01 0. -1.
        -11    1    3    3    0    0 -0.16412021818E+02  0.63041483266E+02  0.20837360380E+02  0.68394288213E+02  0.00000000000E+00 0.  1.
         11    1    3    3    0    0 -0.44467296147E+02 -0.21075277961E+02 -0.96347204362E+01  0.50143151134E+02  0.00000000000E+00 0. -1.
<mgrwt>
<rscale>  0 0.13779354E+03</rscale>
<asrwt>0</asrwt>
<pdfrwt beam="2">  1        1 0.14195689E-01 0.14510064E+03</pdfrwt>
<pdfrwt beam="1">  1       -1 0.30956193E-01 0.14510064E+03</pdfrwt>
<totfact> 0.37410812E+03</totfact>
</mgrwt>
</event>
<event>
 7    1  0.5107591E-006  0.1382869E+03  0.7546771E-02  0.1226919E+00
         -2   -1    0    0    0  501 -0.00000000000E+00  0.00000000000E+00  0.35784539765E+03  0.35784539765E+03  0.00000000000E+00 0.  1.
          2   -1    0    0  501    0  0.00000000000E+00 -0.00000000000E+00 -0.42794596490E+02  0.42794596490E+02  0.00000000000E+00 0. -1.
         23    2    1    2    0    0 -0.51664224675E+02 -0.28797697676E+02  0.13953937607E+03  0.17719533745E+03  0.91806593650E+02 0.  0.
          5    1    1    2  502    0  0.75397209058E+02  0.26057871665E+01  0.44602603409E+02  0.87766801761E+02  0.47000000000E+01 0. -1.
         -5    1    1    2    0  502 -0.23732984383E+02  0.26191910510E+02  0.13090882168E+03  0.13567785493E+03  0.47000000000E+01 0. -1.
        -11    1    3    3    0    0 -0.68892881572E+02  0.66202059804E+01  0.79688103167E+02  0.10554738294E+03  0.00000000000E+00 0.  1.
         11    1    3    3    0    0  0.17228656897E+02 -0.35417903657E+02  0.59851272898E+02  0.71647954510E+02  0.00000000000E+00 0. -1.
<mgrwt>
<rscale>  0 0.13036225E+03</rscale>
<asrwt>0</asrwt>
<pdfrwt beam="2">  1        2 0.65837843E-02 0.13828685E+03</pdfrwt>
<pdfrwt beam="1">  1       -2 0.55053136E-01 0.13828685E+03</pdfrwt>
<totfact> 0.33076471E+03</totfact>
</mgrwt>
</event>
<event>
 7    1  0.5107591E-006  0.1348938E+03  0.7546771E-02  0.1233057E+00
         -4   -1    0    0    0  501 -0.00000000000E+00  0.00000000000E+00  0.80065662329E+02  0.80065662329E+02  0.00000000000E+00 0.  1.
          4   -1    0    0  501    0  0.00000000000E+00 -0.00000000000E+00 -0.19761590609E+03  0.19761590609E+03  0.00000000000E+00 0. -1.
         23    2    1    2    0    0  0.35877052056E+02  0.35839483579E+02 -0.95609089433E+02  0.14101500527E+03  0.90401893136E+02 0.  0.
          5    1    1    2  502    0  0.25892790301E+02  0.29498950500E+02  0.10602558187E+02  0.40928338719E+02  0.47000000000E+01 0. -1.
         -5    1    1    2    0  502 -0.61769842357E+02 -0.65338434079E+02 -0.32543712519E+02  0.95738224431E+02  0.47000000000E+01 0. -1.
        -11    1    3    3    0    0  0.66479251277E+02  0.21611345205E+02 -0.64067444098E+02  0.94821824942E+02  0.00000000000E+00 0.  1.
         11    1    3    3    0    0 -0.30602199221E+02  0.14228138374E+02 -0.31541645335E+02  0.46193180332E+02  0.00000000000E+00 0. -1.
<mgrwt>
<rscale>  0 0.12629623E+03</rscale>
<asrwt>0</asrwt>
<pdfrwt beam="2">  1        4 0.30402447E-01 0.13489379E+03</pdfrwt>
<pdfrwt beam="1">  1       -4 0.12317794E-01 0.13489379E+03</pdfrwt>
<totfact> 0.90859471E+02</totfact>
</mgrwt>
</event>
<event>
 7    1  0.5107591E-006  0.1763447E+03  0.7546771E-02  0.1177224E+00
         -1   -1    0    0    0  501 -0.00000000000E+00  0.00000000000E+00  0.54200708024E+02  0.54200708024E+02  0.00000000000E+00 0.  1.
          1   -1    0    0  501    0  0.00000000000E+00 -0.00000000000E+00 -0.58537586178E+03  0.58537586178E+03  0.00000000000E+00 0. -1.
         23    2    1    2    0    0 -0.12565873539E+01 -0.12438008223E+03 -0.36888773493E+03  0.39992124064E+03  0.91579767776E+02 0.  0.
          5    1    1    2  502    0  0.50335703891E+02  0.13939505760E+02 -0.30013458622E+02  0.60422600122E+02  0.47000000000E+01 0. -1.
         -5    1    1    2    0  502 -0.49079116537E+02  0.11044057647E+03 -0.13227396020E+03  0.17923272904E+03  0.47000000000E+01 0. -1.
        -11    1    3    3    0    0  0.24018773892E+02 -0.10718725868E+03 -0.19898649203E+03  0.22729195748E+03  0.00000000000E+00 0.  1.
         11    1    3    3    0    0 -0.25275361246E+02 -0.17192823557E+02 -0.16990124290E+03  0.17262928317E+03  0.00000000000E+00 0. -1.
<mgrwt>
<rscale>  0 0.17059962E+03</rscale>
<asrwt>0</asrwt>
<pdfrwt beam="2">  1        1 0.90057824E-01 0.17634475E+03</pdfrwt>
<pdfrwt beam="1">  1       -1 0.83385705E-02 0.17634475E+03</pdfrwt>
<totfact> 0.28976175E+03</totfact>
</mgrwt>
</event>
<event>
 7    1  0.5107591E-006  0.2348223E+03  0.7546771E-02  0.1124801E+00
         -1   -1    0    0    0  501 -0.00000000000E+00  0.00000000000E+00  0.90979278403E+02  0.90979278403E+02  0.00000000000E+00 0.  1.
          1   -1    0    0  501    0  0.00000000000E+00 -0.00000000000E+00 -0.10133121752E+04  0.10133121752E+04  0.00000000000E+00 0. -1.
         23    2    1    2    0    0 -0.89399638762E+02  0.18601916095E+03 -0.81554485146E+03  0.84632789677E+03  0.92531510637E+02 0.  0.
          5    1    1    2  502    0 -0.74459582281E+01  0.11337433078E+02 -0.23970174995E+01  0.14553878371E+02  0.47000000000E+01 0. -1.
         -5    1    1    2    0  502  0.96845596990E+02 -0.19735659403E+03 -0.10439102780E+03  0.24340967842E+03  0.47000000000E+01 0.  1.
        -11    1    3    3    0    0 -0.10329047285E+03  0.16056337072E+03 -0.76065651064E+03  0.78424986132E+03  0.00000000000E+00 0. -1.
         11    1    3    3    0    0  0.13890834083E+02  0.25455790235E+02 -0.54888340814E+02  0.62078035450E+02  0.00000000000E+00 0.  1.
<mgrwt>
<rscale>  0 0.23263131E+03</rscale>
<asrwt>0</asrwt>
<pdfrwt beam="2">  1        1 0.15589418E+00 0.23482229E+03</pdfrwt>
<pdfrwt beam="1">  1       -1 0.13996812E-01 0.23482229E+03</pdfrwt>
<totfact> 0.56500818E+02</totfact>
</mgrwt>
</event>
<event>
 7    1  0.5107591E-006  0.1306355E+03  0.7546771E-02  0.1239176E+00
         -1   -1    0    0    0  501 -0.00000000000E+00  0.00000000000E+00  0.43835575849E+02  0.43835575849E+02  0.00000000000E+00 0.  1.
          1   -1    0    0  501    0  0.00000000000E+00 -0.00000000000E+00 -0.36437778284E+03  0.36437778284E+03  0.00000000000E+00 0. -1.
         23    2    1    2    0    0 -0.22034217557E+02  0.30753207043E+02 -0.22455914255E+03  0.24610731030E+03  0.93331308733E+02 0.  0.
          5    1    1    2  502    0 -0.28027177887E+01 -0.43342388647E+02 -0.11830280318E+03  0.12611130449E+03  0.47000000000E+01 0. -1.
         -5    1    1    2    0  502  0.24836935346E+02  0.12589181604E+02  0.22319738743E+02  0.35994743900E+02  0.47000000000E+01 0. -1.
        -11    1    3    3    0    0  0.14265389054E+02  0.41749447118E+02 -0.46683781923E+02  0.64233115712E+02  0.00000000000E+00 0.  1.
         11    1    3    3    0    0 -0.36299606611E+02 -0.10996240074E+02 -0.17787536063E+03  0.18187419458E+03  0.00000000000E+00 0. -1.
<mgrwt>
<rscale>  0 0.12240841E+03</rscale>
<asrwt>0</asrwt>
<pdfrwt beam="2">  1        1 0.56058120E-01 0.13063546E+03</pdfrwt>
<pdfrwt beam="1">  1       -1 0.67439348E-02 0.13063546E+03</pdfrwt>
<totfact> 0.72708267E+03</totfact>
</mgrwt>
</event>
<event>
 7    1  0.5107591E-006  0.1358841E+03  0.7546771E-02  0.1239708E+00
         -2   -1    0    0    0  501 -0.00000000000E+00  0.00000000000E+00  0.76782650584E+03  0.76782650584E+03  0.00000000000E+00 0.  1.
          2   -1    0    0  501    0  0.00000000000E+00 -0.00000000000E+00 -0.21046166736E+02  0.21046166736E+02  0.00000000000E+00 0. -1.
         23    2    1    2    0    0 -0.38992515936E+02  0.36312431010E+02  0.12983212583E+03  0.15713728830E+03  0.70687605229E+02 0.  0.
          5    1    1    2  502    0  0.50608789276E+02  0.16995767151E+02  0.11575575093E+03  0.12756014082E+03  0.47000000000E+01 0.  1.
         -5    1    1    2    0  502 -0.11616273340E+02 -0.53308198160E+02  0.50119246235E+03  0.50417524345E+03  0.47000000000E+01 0.  1.
        -11    1    3    3    0    0 -0.11935052618E+02 -0.16663630752E+02  0.88583407940E+01  0.22329179843E+02  0.00000000000E+00 0. -1.
         11    1    3    3    0    0 -0.27057463318E+02  0.52976061761E+02  0.12097378503E+03  0.13480810846E+03  0.00000000000E+00 0.  1.
<mgrwt>
<rscale>  0 0.12207778E+03</rscale>
<asrwt>0</asrwt>
<pdfrwt beam="2">  1        2 0.32378724E-02 0.13588413E+03</pdfrwt>
<pdfrwt beam="1">  1       -2 0.11812713E+00 0.13588413E+03</pdfrwt>
<totfact> 0.15673866E+03</totfact>
</mgrwt>
</event>
<event>
 7    1  0.5107591E-006  0.2211007E+03  0.7546771E-02  0.1134901E+00
          3   -1    0    0  501    0  0.00000000000E+00  0.00000000000E+00  0.60772351510E+03  0.60772351510E+03  0.00000000000E+00 0. -1.
         -3   -1    0    0    0  501 -0.00000000000E+00 -0.00000000000E+00 -0.95005650561E+02  0.95005650561E+02  0.00000000000E+00 0.  1.
         23    2    1    2    0    0  0.26762243629E+00  0.18237375922E+03  0.40482289284E+03  0.45670709787E+03  0.10695578063E+03 0.  0.
          5    1    1    2  502    0 -0.41629426799E+02 -0.16104245656E+03  0.54644120616E+02  0.17514494542E+03  0.47000000000E+01 0. -1.
         -5    1    1    2    0  502  0.41361804363E+02 -0.21331302664E+02  0.53250851090E+02  0.70877122369E+02  0.47000000000E+01 0. -1.
        -11    1    3    3    0    0 -0.32567485089E+02  0.11716781281E+03  0.15840929123E+03  0.19970588622E+03  0.00000000000E+00 0.  1.
         11    1    3    3    0    0  0.32835107525E+02  0.65205946409E+02  0.24641360160E+03  0.25700121165E+03  0.00000000000E+00 0. -1.
<mgrwt>
<rscale>  0 0.21864061E+03</rscale>
<asrwt>0</asrwt>
<pdfrwt beam="1">  1        3 0.93495923E-01 0.22110073E+03</pdfrwt>
<pdfrwt beam="2">  1       -3 0.14616254E-01 0.22110073E+03</pdfrwt>
<totfact> 0.10100955E+02</totfact>
</mgrwt>
</event>
<event>
 7    1  0.5107591E-006  0.4539643E+03  0.7546771E-02  0.1027137E+00
         -1   -1    0    0    0  501 -0.00000000000E+00  0.00000000000E+00  0.93844447528E+02  0.93844447528E+02  0.00000000000E+00 0.  1.
          1   -1    0    0  501    0  0.00000000000E+00 -0.00000000000E+00 -0.22048768360E+04  0.22048768360E+04  0.00000000000E+00 0. -1.
         23    2    1    2    0    0 -0.84584960660E+02 -0.42814120101E+03 -0.12143526143E+04  0.12936749363E+04  0.92103558161E+02 0.  0.
          5    1    1    2  502    0  0.89665413456E+02  0.35315691300E+03 -0.62849480030E+03  0.72648984548E+03  0.47000000000E+01 0. -1.
         -5    1    1    2    0  502 -0.50804527955E+01  0.74984288012E+02 -0.26818497383E+03  0.27855650170E+03  0.47000000000E+01 0. -1.
        -11    1    3    3    0    0 -0.57041292508E+02 -0.38377437863E+03 -0.11268410640E+04  0.11917664478E+04  0.00000000000E+00 0. -1.
         11    1    3    3    0    0 -0.27543668153E+02 -0.44366822383E+02 -0.87511550363E+02  0.10190848851E+03  0.00000000000E+00 0.  1.
<mgrwt>
<rscale>  0 0.45196750E+03</rscale>
<asrwt>0</asrwt>
<pdfrwt beam="2">  1        1 0.33921183E+00 0.45396425E+03</pdfrwt>
<pdfrwt beam="1">  1       -1 0.14437607E-01 0.45396425E+03</pdfrwt>
<totfact> 0.81635023E+01</totfact>
</mgrwt>
</event>
<event>
 7    1  0.5107591E-006  0.1553025E+03  0.7546771E-02  0.1203234E+00
         -2   -1    0    0    0  501 -0.00000000000E+00  0.00000000000E+00  0.11316151903E+03  0.11316151903E+03  0.00000000000E+00 0.  1.
          2   -1    0    0  501    0  0.00000000000E+00 -0.00000000000E+00 -0.18102705762E+03  0.18102705762E+03  0.00000000000E+00 0. -1.
         23    2    1    2    0    0 -0.86489176503E+01  0.91771773604E+02 -0.53929898330E+02  0.13826212741E+03  0.87812981583E+02 0.  0.
          5    1    1    2  502    0 -0.62108438145E+01 -0.51972844659E+02 -0.68675507650E+02  0.86476392812E+02  0.47000000000E+01 0. -1.
         -5    1    1    2    0  502  0.14859761465E+02 -0.39798928945E+02  0.54739867394E+02  0.69450056431E+02  0.47000000000E+01 0. -1.
        -11    1    3    3    0    0  0.96473399658E+01  0.56069435597E+02 -0.74049728938E+02  0.93382092140E+02  0.00000000000E+00 0. -1.
         11    1    3    3    0    0 -0.18296257616E+02  0.35702338007E+02  0.20119830608E+02  0.44880035268E+02  0.00000000000E+00 0.  1.
<mgrwt>
<rscale>  0 0.14777463E+03</rscale>
<asrwt>0</asrwt>
<pdfrwt beam="2">  1        2 0.27850316E-01 0.15530246E+03</pdfrwt>
<pdfrwt beam="1">  1       -2 0.17409465E-01 0.15530246E+03</pdfrwt>
<totfact> 0.48936431E+03</totfact>
</mgrwt>
</event>
<event>
 7    1  0.5107591E-006  0.3068117E+03  0.7546771E-02  0.1083413E+00
          2   -1    0    0  501    0  0.00000000000E+00  0.00000000000E+00  0.52736505029E+03  0.52736505029E+03  0.00000000000E+00 0.  1.
         -2   -1    0    0    0  501 -0.00000000000E+00 -0.00000000000E+00 -0.17995627017E+03  0.17995627017E+03  0.00000000000E+00 0. -1.
         23    2    1    2    0    0 -0.26759656554E+03 -0.83081815221E+02  0.24740993816E+03  0.38462459698E+03  0.90630531258E+02 0.  0.
          5    1    1    2  502    0 -0.13259798017E+02  0.13809367708E+01  0.26042426616E+01  0.14373632445E+02  0.47000000000E+01 0.  1.
         -5    1    1    2    0  502  0.28085636356E+03  0.81700878450E+02  0.97394599311E+02  0.30832309103E+03  0.47000000000E+01 0.  1.
        -11    1    3    3    0    0 -0.20986004097E+03 -0.93889877383E+02  0.22520316866E+03  0.32182761386E+03  0.00000000000E+00 0.  1.
         11    1    3    3    0    0 -0.57736524572E+02  0.10808062162E+02  0.22206769494E+02  0.62796983118E+02  0.00000000000E+00 0. -1.
<mgrwt>
<rscale>  0 0.30368377E+03</rscale>
<asrwt>0</asrwt>
<pdfrwt beam="1">  1        2 0.81133084E-01 0.30681168E+03</pdfrwt>
<pdfrwt beam="2">  1       -2 0.27685580E-01 0.30681168E+03</pdfrwt>
<totfact> 0.69569335E+02</totfact>
</mgrwt>
</event>
<event>
 7    1  0.5107591E-006  0.1645172E+03  0.7546771E-02  0.1190699E+00
          1   -1    0    0  501    0  0.00000000000E+00  0.00000000000E+00  0.86610083356E+03  0.86610083356E+03  0.00000000000E+00 0. -1.
         -1   -1    0    0    0  501 -0.00000000000E+00 -0.00000000000E+00 -0.26972706134E+02  0.26972706134E+02  0.00000000000E+00 0.  1.
         23    2    1    2    0    0 -0.38024203367E+02 -0.99974254746E+02  0.40876753198E+03  0.43233917612E+03  0.91572792659E+02 0.  0.
          5    1    1    2  502    0  0.36594881091E+01  0.84500151931E+02  0.11360766909E+03  0.14171259650E+03  0.47000000000E+01 0. -1.
         -5    1    1    2    0  502  0.34364715258E+02  0.15474102815E+02  0.31675292636E+03  0.31902176708E+03  0.47000000000E+01 0. -1.
        -11    1    3    3    0    0 -0.33484129153E+02 -0.18811474948E+02  0.43031305383E+02  0.57678000467E+02  0.00000000000E+00 0.  1.
         11    1    3    3    0    0 -0.45400742137E+01 -0.81162779799E+02  0.36573622660E+03  0.37466117566E+03  0.00000000000E+00 0. -1.
<mgrwt>
<rscale>  0 0.15823903E+03</rscale>
<asrwt>0</asrwt>
<pdfrwt beam="1">  1        1 0.13324626E+00 0.16451721E+03</pdfrwt>
<pdfrwt beam="2">  1       -1 0.41496478E-02 0.16451721E+03</pdfrwt>
<totfact> 0.46464552E+03</totfact>
</mgrwt>
</event>
<event>
 6    1  0.5107591E-006  0.3152755E+03  0.7546771E-02  0.1077844E+00
          2   -1    0    0  501    0  0.00000000000E+00  0.00000000000E+00  0.68069691242E+03  0.68069691242E+03  0.00000000000E+00 0. -1.
         -2   -1    0    0    0  501 -0.00000000000E+00 -0.00000000000E+00 -0.36506200840E+02  0.36506200840E+02  0.00000000000E+00 0.  1.
          5    1    1    2  502    0 -0.71794130550E+02  0.11035625953E+02  0.28245969071E+03  0.29168775959E+03  0.47000000000E+01 0.  1.
         -5    1    1    2    0  502 -0.11997172054E+02  0.25589647300E+02 -0.19730927151E+01  0.28718378803E+02  0.47000000000E+01 0.  1.
        -11    1    1    2    0    0  0.57994984706E+02 -0.69889180354E+02  0.33172705369E+03  0.34393422907E+03  0.00000000000E+00 0.  1.
         11    1    1    2    0    0  0.25796317897E+02  0.33263907101E+02  0.31977059906E+02  0.52862745795E+02  0.00000000000E+00 0. -1.
<mgrwt>
<rscale>  0 0.31527549E+03</rscale>
<asrwt>0</asrwt>
<pdfrwt beam="1">  1        2 0.10472259E+00 0.31527549E+03</pdfrwt>
<pdfrwt beam="2">  1       -2 0.56163391E-02 0.31527549E+03</pdfrwt>
<totfact> 0.71216211E+03</totfact>
</mgrwt>
</event>
<event>
 7    1  0.5107591E-006  0.1385831E+03  0.7546771E-02  0.1226686E+00
          2   -1    0    0  501    0  0.00000000000E+00  0.00000000000E+00  0.10626830904E+03  0.10626830904E+03  0.00000000000E+00 0. -1.
         -2   -1    0    0    0  501 -0.00000000000E+00 -0.00000000000E+00 -0.18866639959E+03  0.18866639959E+03  0.00000000000E+00 0.  1.
         23    2    1    2    0    0  0.58999271804E+02  0.99443118275E+01  0.33722535582E+02  0.11413293088E+03  0.91155433711E+02 0.  0.
          5    1    1    2  502    0 -0.80920915721E+02 -0.13354901118E+01 -0.22475508222E+02  0.84126194522E+02  0.47000000000E+01 0.  1.
         -5    1    1    2    0  502  0.21921643917E+02 -0.86088217157E+01 -0.93645117913E+02  0.96675583228E+02  0.47000000000E+01 0.  1.
        -11    1    3    3    0    0 -0.15200170039E+02  0.23662824308E+02 -0.61503540364E+01  0.28788908944E+02  0.00000000000E+00 0.  1.
         11    1    3    3    0    0  0.74199441842E+02 -0.13718512480E+02  0.39872889618E+02  0.85344021940E+02  0.00000000000E+00 0. -1.
<mgrwt>
<rscale>  0 0.13051982E+03</rscale>
<asrwt>0</asrwt>
<pdfrwt beam="1">  1        2 0.16348971E-01 0.13858313E+03</pdfrwt>
<pdfrwt beam="2">  1       -2 0.29025600E-01 0.13858313E+03</pdfrwt>
<totfact> 0.36675054E+03</totfact>
</mgrwt>
</event>
<event>
 7    1  0.5107591E-006  0.1664463E+03  0.7546771E-02  0.1188751E+00
         -2   -1    0    0    0  501 -0.00000000000E+00  0.00000000000E+00  0.63448652027E+03  0.63448652027E+03  0.00000000000E+00 0.  1.
          2   -1    0    0  501    0  0.00000000000E+00 -0.00000000000E+00 -0.48151319948E+02  0.48151319948E+02  0.00000000000E+00 0. -1.
         23    2    1    2    0    0 -0.13314081935E+02  0.10910048533E+03  0.11471623485E+03  0.18250904890E+03  0.89830716991E+02 0.  0.
          5    1    1    2  502    0 -0.47041723443E+02 -0.73979226445E+02  0.33888784678E+03  0.35007558096E+03  0.47000000000E+01 0.  1.
         -5    1    1    2    0  502  0.60355805378E+02 -0.35121258888E+02  0.13273111870E+03  0.15005321036E+03  0.47000000000E+01 0.  1.
        -11    1    3    3    0    0 -0.45847622742E+02  0.69849080042E+02  0.41497038750E+02  0.93289349439E+02  0.00000000000E+00 0. -1.
         11    1    3    3    0    0  0.32533540806E+02  0.39251405291E+02  0.73219196097E+02  0.89219699460E+02  0.00000000000E+00 0.  1.
<mgrwt>
<rscale>  0 0.15995183E+03</rscale>
<asrwt>0</asrwt>
<pdfrwt beam="2">  1        2 0.74078959E-02 0.16644627E+03</pdfrwt>
<pdfrwt beam="1">  1       -2 0.97613304E-01 0.16644627E+03</pdfrwt>
<totfact> 0.83778427E+02</totfact>
</mgrwt>
</event>
<event>
 7    1  0.5107591E-006  0.1906403E+03  0.7546771E-02  0.1158612E+00
         -3   -1    0    0    0  501 -0.00000000000E+00  0.00000000000E+00  0.68708371030E+02  0.68708371030E+02  0.00000000000E+00 0.  1.
          3   -1    0    0  501    0  0.00000000000E+00 -0.00000000000E+00 -0.52440430041E+03  0.52440430041E+03  0.00000000000E+00 0. -1.
         23    2    1    2    0    0 -0.56824093690E+02  0.13225139144E+03 -0.25280815303E+03  0.31471155206E+03  0.12004995044E+03 0.  0.
          5    1    1    2  502    0 -0.22918836875E+02 -0.71839927686E+02 -0.35822663849E+02  0.83615797185E+02  0.47000000000E+01 0. -1.
         -5    1    1    2    0  502  0.79742930566E+02 -0.60411463751E+02 -0.16706511250E+03  0.19478532219E+03  0.47000000000E+01 0. -1.
        -11    1    3    3    0    0 -0.34793129313E+02  0.10520034976E+03 -0.75686825183E+02  0.13418707442E+03  0.00000000000E+00 0.  1.
         11    1    3    3    0    0 -0.22030964377E+02  0.27051041681E+02 -0.17712132785E+03  0.18052447764E+03  0.00000000000E+00 0. -1.
<mgrwt>
<rscale>  0 0.18983357E+03</rscale>
<asrwt>0</asrwt>
<pdfrwt beam="2">  1        3 0.80677585E-01 0.19064032E+03</pdfrwt>
<pdfrwt beam="1">  1       -3 0.10570519E-01 0.19064032E+03</pdfrwt>
<totfact> 0.23947515E+02</totfact>
</mgrwt>
</event>
<event>
 7    1  0.5107591E-006  0.1626646E+03  0.7546771E-02  0.1187457E+00
          1   -1    0    0  501    0  0.00000000000E+00  0.00000000000E+00  0.31715823160E+03  0.31715823160E+03  0.00000000000E+00 0. -1.
         -1   -1    0    0    0  501 -0.00000000000E+00 -0.00000000000E+00 -0.12388347593E+03  0.12388347593E+03  0.00000000000E+00 0.  1.
         23    2    1    2    0    0  0.11157742730E+03  0.34299633429E+02  0.22621205046E+03  0.27507592919E+03  0.10425395873E+03 0.  0.
          5    1    1    2  502    0 -0.77666540620E+02  0.26541385397E+01  0.31662958688E+02  0.84046230945E+02  0.47000000000E+01 0. -1.
         -5    1    1    2    0  502 -0.33910886677E+02 -0.36953771969E+02 -0.64600253472E+02  0.81919547402E+02  0.47000000000E+01 0.  1.
        -11    1    3    3    0    0  0.12856171716E+03  0.17018519695E+02  0.20648164598E+03  0.24382865963E+03  0.00000000000E+00 0. -1.
         11    1    3    3    0    0 -0.16984289859E+02  0.17281113734E+02  0.19730404472E+02  0.31247269553E+02  0.00000000000E+00 0.  1.
<mgrwt>
<rscale>  0 0.16110321E+03</rscale>
<asrwt>0</asrwt>
<pdfrwt beam="1">  1        1 0.48793574E-01 0.16266461E+03</pdfrwt>
<pdfrwt beam="2">  1       -1 0.19058996E-01 0.16266461E+03</pdfrwt>
<totfact> 0.17571105E+03</totfact>
</mgrwt>
</event>
<event>
 7    1  0.5107591E-006  0.2682636E+03  0.7546771E-02  0.1104470E+00
         -1   -1    0    0    0  501 -0.00000000000E+00  0.00000000000E+00  0.50733400940E+02  0.50733400940E+02  0.00000000000E+00 0.  1.
          1   -1    0    0  501    0  0.00000000000E+00 -0.00000000000E+00 -0.13747208166E+04  0.13747208166E+04  0.00000000000E+00 0. -1.
         23    2    1    2    0    0 -0.72199453138E+02  0.22610445529E+03 -0.75430937961E+03  0.79577301297E+03  0.89084579244E+02 0.  0.
          5    1    1    2  502    0  0.94918951256E+02 -0.10595755978E+03 -0.25474876034E+03  0.29181438052E+03  0.47000000000E+01 0.  1.
         -5    1    1    2    0  502 -0.22719498118E+02 -0.12014689552E+03 -0.31492927567E+03  0.33786682401E+03  0.47000000000E+01 0.  1.
        -11    1    3    3    0    0  0.40645630991E+01  0.68881732135E+02 -0.32535690088E+03  0.33259333524E+03  0.00000000000E+00 0.  1.
         11    1    3    3    0    0 -0.76264016237E+02  0.15722272316E+03 -0.42895247873E+03  0.46317967773E+03  0.00000000000E+00 0. -1.
<mgrwt>
<rscale>  0 0.26449902E+03</rscale>
<asrwt>0</asrwt>
<pdfrwt beam="2">  1        1 0.21149552E+00 0.26826359E+03</pdfrwt>
<pdfrwt beam="1">  1       -1 0.78051381E-02 0.26826359E+03</pdfrwt>
<totfact> 0.77753805E+02</totfact>
</mgrwt>
</event>
<event>
 7    1  0.5107591E-006  0.1377934E+03  0.7546771E-02  0.1227599E+00
          1   -1    0    0  501    0  0.00000000000E+00  0.00000000000E+00  0.25632277668E+03  0.25632277668E+03  0.00000000000E+00 0. -1.
         -1   -1    0    0    0  501 -0.00000000000E+00 -0.00000000000E+00 -0.59636717180E+02  0.59636717180E+02  0.00000000000E+00 0.  1.
         23    2    1    2    0    0 -0.30409239786E+02  0.49363755686E+02  0.98131043114E+02  0.14654842358E+03  0.92115343956E+02 0.  0.
          5    1    1    2  502    0  0.41849029801E+02 -0.48084919723E+02 -0.59260847532E+01  0.64192750997E+02  0.47000000000E+01 0.  1.
         -5    1    1    2    0  502 -0.11439790015E+02 -0.12788359631E+01  0.10448110114E+03  0.10521831928E+03  0.47000000000E+01 0.  1.
        -11    1    3    3    0    0 -0.30432916745E+02  0.26607374361E+02 -0.51854923903E+01  0.40755418331E+02  0.00000000000E+00 0.  1.
         11    1    3    3    0    0  0.23676959530E-01  0.22756381325E+02  0.10331653550E+03  0.10579300525E+03  0.00000000000E+00 0. -1.
<mgrwt>
<rscale>  0 0.12990359E+03</rscale>
<asrwt>0</asrwt>
<pdfrwt beam="1">  1        1 0.39434273E-01 0.13779339E+03</pdfrwt>
<pdfrwt beam="2">  1       -1 0.91748797E-02 0.13779339E+03</pdfrwt>
<totfact> 0.70960994E+03</totfact>
</mgrwt>
</event>
<event>
 7    1  0.5107591E-006  0.1269438E+03  0.7546771E-02  0.1247966E+00
          3   -1    0    0  501    0  0.00000000000E+00  0.00000000000E+00  0.11306224771E+03  0.11306224771E+03  0.00000000000E+00 0. -1.
         -3   -1    0    0    0  501 -0.00000000000E+00 -0.00000000000E+00 -0.13777567064E+03  0.13777567064E+03  0.00000000000E+00 0.  1.
         23    2    1    2    0    0  0.21683603684E+02  0.46957714295E+01  0.48889932028E+02  0.10409941606E+03  0.89186512616E+02 0.  0.
          5    1    1    2  502    0 -0.50944272072E+02  0.38875731737E+02 -0.68304919639E+02  0.93777894101E+02  0.47000000000E+01 0. -1.
         -5    1    1    2    0  502  0.29260668388E+02 -0.43571503167E+02 -0.52984353243E+01  0.52960608188E+02  0.47000000000E+01 0. -1.
        -11    1    3    3    0    0  0.17242747904E+02  0.31470876769E+02 -0.11670774169E+02  0.37735068697E+02  0.00000000000E+00 0.  1.
         11    1    3    3    0    0  0.44408557806E+01 -0.26775105340E+02  0.60560706197E+02  0.66364347364E+02  0.00000000000E+00 0. -1.
<mgrwt>
<rscale>  0 0.11709626E+03</rscale>
<asrwt>0</asrwt>
<pdfrwt beam="1">  1        3 0.17394192E-01 0.12694382E+03</pdfrwt>
<pdfrwt beam="2">  1       -3 0.21196257E-01 0.12694382E+03</pdfrwt>
<totfact> 0.13210617E+03</totfact>
</mgrwt>
</event>
<event>
 7    1  0.5107591E-006  0.1409498E+03  0.7546771E-02  0.1224180E+00
          1   -1    0    0  501    0  0.00000000000E+00  0.00000000000E+00  0.12577154221E+04  0.12577154221E+04  0.00000000000E+00 0. -1.
         -1   -1    0    0    0  501 -0.00000000000E+00 -0.00000000000E+00 -0.15745513013E+02  0.15745513013E+02  0.00000000000E+00 0.  1.
         23    2    1    2    0    0 -0.48519712294E+02 -0.43462578362E+02  0.26866819219E+03  0.29000627031E+03  0.87623519245E+02 0.  0.
          5    1    1    2  502    0  0.51495303120E+02 -0.30842974836E+02  0.29564705913E+03  0.30171564248E+03  0.47000000000E+01 0.  1.
         -5    1    1    2    0  502 -0.29755908251E+01  0.74305553198E+02  0.67765465780E+03  0.68173902237E+03  0.47000000000E+01 0.  1.
        -11    1    3    3    0    0 -0.10380024854E+02 -0.39767732786E+02  0.37350374606E+02  0.55536186132E+02  0.00000000000E+00 0.  1.
         11    1    3    3    0    0 -0.38139687441E+02 -0.36948455760E+01  0.23131781759E+03  0.23447008418E+03  0.00000000000E+00 0. -1.
<mgrwt>
<rscale>  0 0.13223232E+03</rscale>
<asrwt>0</asrwt>
<pdfrwt beam="1">  1        1 0.19349460E+00 0.14094980E+03</pdfrwt>
<pdfrwt beam="2">  1       -1 0.24223876E-02 0.14094980E+03</pdfrwt>
<totfact> 0.52951955E+03</totfact>
</mgrwt>
</event>
<event>
 7    1  0.5107591E-006  0.1644377E+03  0.7546771E-02  0.1190272E+00
         -1   -1    0    0    0  501 -0.00000000000E+00  0.00000000000E+00  0.34451500836E+02  0.34451500836E+02  0.00000000000E+00 0.  1.
          1   -1    0    0  501    0  0.00000000000E+00 -0.00000000000E+00 -0.83880431294E+03  0.83880431294E+03  0.00000000000E+00 0. -1.
         23    2    1    2    0    0 -0.49261324031E+02  0.94809218365E+02 -0.56639679604E+03  0.58401053898E+03  0.94061220190E+02 0.  0.
          5    1    1    2  502    0 -0.29870175007E+01 -0.10732132725E+03 -0.18317389976E+03  0.21237127185E+03  0.47000000000E+01 0. -1.
         -5    1    1    2    0  502  0.52248341531E+02  0.12512108881E+02 -0.54782116298E+02  0.76874002937E+02  0.47000000000E+01 0. -1.
        -11    1    3    3    0    0 -0.62576436152E+02  0.89694645000E+02 -0.55522180583E+03  0.56589061962E+03  0.00000000000E+00 0. -1.
         11    1    3    3    0    0  0.13315112121E+02  0.51145733650E+01 -0.11174990211E+02  0.18119919363E+02  0.00000000000E+00 0.  1.
<mgrwt>
<rscale>  0 0.15861308E+03</rscale>
<asrwt>0</asrwt>
<pdfrwt beam="2">  1        1 0.12904681E+00 0.16443772E+03</pdfrwt>
<pdfrwt beam="1">  1       -1 0.53002310E-02 0.16443772E+03</pdfrwt>
<totfact> 0.33976992E+03</totfact>
</mgrwt>
</event>
<event>
 7    1  0.5107591E-006  0.2033685E+03  0.7546771E-02  0.1151106E+00
          2   -1    0    0  501    0  0.00000000000E+00  0.00000000000E+00  0.12791621354E+04  0.12791621354E+04  0.00000000000E+00 0. -1.
         -2   -1    0    0    0  501 -0.00000000000E+00 -0.00000000000E+00 -0.29634321730E+02  0.29634321730E+02  0.00000000000E+00 0.  1.
         23    2    1    2    0    0  0.90083341833E+01  0.16015337468E+03  0.65788031189E+03  0.68317234863E+03  0.90485908594E+02 0.  0.
          5    1    1    2  502    0 -0.63603310649E+02 -0.11812075866E+03  0.38289057001E+03  0.40574027820E+03  0.47000000000E+01 0. -1.
         -5    1    1    2    0  502  0.54594976465E+02 -0.42032616016E+02  0.20875693178E+03  0.21988383030E+03  0.47000000000E+01 0. -1.
        -11    1    3    3    0    0 -0.20236543984E+01 -0.10498217561E+02  0.19003163961E+02  0.21804311262E+02  0.00000000000E+00 0. -1.
         11    1    3    3    0    0  0.11031988582E+02  0.17065159224E+03  0.63887714793E+03  0.66136803737E+03  0.00000000000E+00 0.  1.
<mgrwt>
<rscale>  0 0.19838851E+03</rscale>
<asrwt>0</asrwt>
<pdfrwt beam="1">  1        2 0.19679413E+00 0.20336853E+03</pdfrwt>
<pdfrwt beam="2">  1       -2 0.45591274E-02 0.20336853E+03</pdfrwt>
<totfact> 0.40396990E+03</totfact>
</mgrwt>
</event>
<event>
 7    1  0.5107591E-006  0.2928505E+03  0.7546771E-02  0.1090652E+00
         -1   -1    0    0    0  501 -0.00000000000E+00  0.00000000000E+00  0.49319355789E+02  0.49319355789E+02  0.00000000000E+00 0.  1.
          1   -1    0    0  501    0  0.00000000000E+00 -0.00000000000E+00 -0.18106392436E+04  0.18106392436E+04  0.00000000000E+00 0. -1.
         23    2    1    2    0    0  0.47800629595E+02 -0.26048427156E+03 -0.11300167318E+04  0.11640382889E+04  0.88940250003E+02 0.  0.
          5    1    1    2  502    0 -0.68497612487E+02  0.59999702125E+02 -0.18988706912E+03  0.21064443071E+03  0.47000000000E+01 0. -1.
         -5    1    1    2    0  502  0.20696982892E+02  0.20048456944E+03 -0.44141608697E+03  0.48527587980E+03  0.47000000000E+01 0. -1.
        -11    1    3    3    0    0  0.71411498187E+02 -0.14747911921E+03 -0.67529774604E+03  0.69489332885E+03  0.00000000000E+00 0. -1.
         11    1    3    3    0    0 -0.23610868592E+02 -0.11300515235E+03 -0.45471898573E+03  0.46914496007E+03  0.00000000000E+00 0.  1.
<mgrwt>
<rscale>  0 0.28942045E+03</rscale>
<asrwt>0</asrwt>
<pdfrwt beam="2">  1        1 0.27855993E+00 0.29285048E+03</pdfrwt>
<pdfrwt beam="1">  1       -1 0.75875920E-02 0.29285048E+03</pdfrwt>
<totfact> 0.41725575E+02</totfact>
</mgrwt>
</event>
<event>
 7    1  0.5107591E-006  0.2002146E+03  0.7546771E-02  0.1154081E+00
         -1   -1    0    0    0  501 -0.00000000000E+00  0.00000000000E+00  0.24135751322E+03  0.24135751322E+03  0.00000000000E+00 0.  1.
          1   -1    0    0  501    0  0.00000000000E+00 -0.00000000000E+00 -0.14993792311E+03  0.14993792311E+03  0.00000000000E+00 0. -1.
         23    2    1    2    0    0  0.69529049471E+02 -0.14009250402E+03  0.51322128683E+02  0.18710514804E+03  0.88961660996E+02 0.  0.
          5    1    1    2  502    0 -0.42094131406E+02  0.74890002370E+02 -0.41980413119E+02  0.95733345494E+02  0.47000000000E+01 0.  1.
         -5    1    1    2    0  502 -0.27434918065E+02  0.65202501646E+02  0.82077874551E+02  0.10845694280E+03  0.47000000000E+01 0.  1.
        -11    1    3    3    0    0  0.76808802376E+02 -0.64034667823E+02  0.47223854143E+02  0.11058988745E+03  0.00000000000E+00 0.  1.
         11    1    3    3    0    0 -0.72797529048E+01 -0.76057836192E+02  0.40982745404E+01  0.76515260588E+02  0.00000000000E+00 0. -1.
<mgrwt>
<rscale>  0 0.19493818E+03</rscale>
<asrwt>0</asrwt>
<pdfrwt beam="2">  1        1 0.23067373E-01 0.20021455E+03</pdfrwt>
<pdfrwt beam="1">  1       -1 0.37131925E-01 0.20021455E+03</pdfrwt>
<totfact> 0.14836363E+03</totfact>
</mgrwt>
</event>
<event>
 7    1  0.5107591E-006  0.3559075E+03  0.7546771E-02  0.1061526E+00
         -1   -1    0    0    0  501 -0.00000000000E+00  0.00000000000E+00  0.16011442130E+03  0.16011442130E+03  0.00000000000E+00 0.  1.
          1   -1    0    0  501    0  0.00000000000E+00 -0.00000000000E+00 -0.79932074798E+03  0.79932074798E+03  0.00000000000E+00 0. -1.
         23    2    1    2    0    0  0.95807331008E+01  0.33308834346E+03 -0.41633005832E+03  0.53950189269E+03  0.81804277112E+02 0.  0.
          5    1    1    2  502    0  0.20518412556E+02 -0.30803860007E+03 -0.22235420490E+03  0.38048950948E+03  0.47000000000E+01 0.  1.
         -5    1    1    2    0  502 -0.30099145657E+02 -0.25049743393E+02 -0.52206346108E+00  0.39443767107E+02  0.47000000000E+01 0.  1.
        -11    1    3    3    0    0  0.36488895058E+02  0.72680591092E+02 -0.98879085668E+02  0.12802726806E+03  0.00000000000E+00 0.  1.
         11    1    3    3    0    0 -0.26908161957E+02  0.26040775237E+03 -0.31745097265E+03  0.41147462463E+03  0.00000000000E+00 0. -1.
<mgrwt>
<rscale>  0 0.35266669E+03</rscale>
<asrwt>0</asrwt>
<pdfrwt beam="2">  1        1 0.12297242E+00 0.35590747E+03</pdfrwt>
<pdfrwt beam="1">  1       -1 0.24632988E-01 0.35590747E+03</pdfrwt>
<totfact> 0.32905496E+02</totfact>
</mgrwt>
</event>
<event>
 7    1  0.5107591E-006  0.2178856E+03  0.7546771E-02  0.1139483E+00
          2   -1    0    0  501    0  0.00000000000E+00  0.00000000000E+00  0.50533189320E+03  0.50533189320E+03  0.00000000000E+00 0. -1.
         -2   -1    0    0    0  501 -0.00000000000E+00 -0.00000000000E+00 -0.92756679958E+02  0.92756679958E+02  0.00000000000E+00 0.  1.
         23    2    1    2    0    0  0.12406646724E+03 -0.12828656377E+03  0.11316585729E+03  0.22779128054E+03  0.85043668181E+02 0.  0.
          5    1    1    2  502    0  0.45283643649E+01 -0.15418226709E+02  0.62942235201E+02  0.65130966297E+02  0.47000000000E+01 0. -1.
         -5    1    1    2    0  502 -0.12859483160E+03  0.14370479048E+03  0.23646712075E+03  0.30516632632E+03  0.47000000000E+01 0. -1.
        -11    1    3    3    0    0  0.10163251173E+03 -0.64916637843E+02  0.10531983137E+03  0.16011122443E+03  0.00000000000E+00 0.  1.
         11    1    3    3    0    0  0.22433955509E+02 -0.63369925930E+02  0.78460259149E+01  0.67680056109E+02  0.00000000000E+00 0. -1.
<mgrwt>
<rscale>  0 0.21265174E+03</rscale>
<asrwt>0</asrwt>
<pdfrwt beam="1">  1        2 0.77743366E-01 0.21788557E+03</pdfrwt>
<pdfrwt beam="2">  1       -2 0.14270259E-01 0.21788557E+03</pdfrwt>
<totfact> 0.22707963E+03</totfact>
</mgrwt>
</event>
<event>
 7    1  0.5107591E-006  0.1654714E+03  0.7546771E-02  0.1185601E+00
         -1   -1    0    0    0  501 -0.00000000000E+00  0.00000000000E+00  0.15193884202E+03  0.15193884202E+03  0.00000000000E+00 0.  1.
          1   -1    0    0  501    0  0.00000000000E+00 -0.00000000000E+00 -0.16894654633E+03  0.16894654633E+03  0.00000000000E+00 0. -1.
         23    2    1    2    0    0 -0.12294127097E+03  0.55773846330E+01 -0.63218539979E+01  0.15506935102E+03  0.94132217972E+02 0.  0.
          5    1    1    2  502    0  0.20091867637E+02 -0.24889068590E+02 -0.45157423693E+02  0.55537661051E+02  0.47000000000E+01 0. -1.
         -5    1    1    2    0  502  0.10284940334E+03  0.19311683957E+02  0.34471573375E+02  0.11027837628E+03  0.47000000000E+01 0.  1.
        -11    1    3    3    0    0 -0.28173188989E+02 -0.39608406074E+02 -0.11515926240E+02  0.49951686324E+02  0.00000000000E+00 0.  1.
         11    1    3    3    0    0 -0.94768081984E+02  0.45185790707E+02  0.51940722424E+01  0.10511766470E+03  0.00000000000E+00 0. -1.
<mgrwt>
<rscale>  0 0.16277336E+03</rscale>
<asrwt>0</asrwt>
<pdfrwt beam="2">  1        1 0.25991776E-01 0.16547136E+03</pdfrwt>
<pdfrwt beam="1">  1       -1 0.23375206E-01 0.16547136E+03</pdfrwt>
<totfact> 0.27701699E+03</totfact>
</mgrwt>
</event>
<event>
 7    1  0.5107591E-006  0.1306683E+03  0.7546771E-02  0.1240753E+00
         -2   -1    0    0    0  501 -0.00000000000E+00  0.00000000000E+00  0.36745326513E+02  0.36745326513E+02  0.00000000000E+00 0.  1.
          2   -1    0    0  501    0  0.00000000000E+00 -0.00000000000E+00 -0.42306956352E+03  0.42306956352E+03  0.00000000000E+00 0. -1.
         23    2    1    2    0    0 -0.23079979980E+02 -0.30255427542E+02 -0.26164614430E+03  0.27920808168E+03  0.89723863468E+02 0.  0.
          5    1    1    2  502    0  0.50945000557E+01  0.71695137097E+02 -0.11250166645E+03  0.13358466067E+03  0.47000000000E+01 0. -1.
         -5    1    1    2    0  502  0.17985479925E+02 -0.41439709555E+02 -0.12176426261E+02  0.47022147682E+02  0.47000000000E+01 0. -1.
        -11    1    3    3    0    0  0.33854659314E+02 -0.66206994233E+01 -0.72891805044E+02  0.80642339132E+02  0.00000000000E+00 0.  1.
         11    1    3    3    0    0 -0.56934639294E+02 -0.23634728119E+02 -0.18875433926E+03  0.19856574255E+03  0.00000000000E+00 0. -1.
<mgrwt>
<rscale>  0 0.12143228E+03</rscale>
<asrwt>0</asrwt>
<pdfrwt beam="2">  1        2 0.65087627E-01 0.13066825E+03</pdfrwt>
<pdfrwt beam="1">  1       -2 0.56531270E-02 0.13066825E+03</pdfrwt>
<totfact> 0.11502704E+04</totfact>
</mgrwt>
</event>
<event>
 7    1  0.5107591E-006  0.1649915E+03  0.7546771E-02  0.1205299E+00
          2   -1    0    0  501    0  0.00000000000E+00  0.00000000000E+00  0.63367665307E+03  0.63367665307E+03  0.00000000000E+00 0. -1.
         -2   -1    0    0    0  501 -0.00000000000E+00 -0.00000000000E+00 -0.29011395769E+02  0.29011395769E+02  0.00000000000E+00 0.  1.
         23    2    1    2    0    0 -0.19380348152E+02  0.37155344489E+02  0.29209869250E+03  0.30924776030E+03  0.92500884169E+02 0.  0.
          5    1    1    2  502    0  0.35112774890E+02  0.29082254071E+02  0.26809871578E+03  0.27198841127E+03  0.47000000000E+01 0. -1.
         -5    1    1    2    0  502 -0.15732426738E+02 -0.66237598560E+02  0.44467849021E+02  0.81451877269E+02  0.47000000000E+01 0.  1.
        -11    1    3    3    0    0 -0.39131961193E+01  0.66511605188E+02  0.22025306130E+03  0.23010979497E+03  0.00000000000E+00 0. -1.
         11    1    3    3    0    0 -0.15467152032E+02 -0.29356260699E+02  0.71845631195E+02  0.79137965327E+02  0.00000000000E+00 0.  1.
<mgrwt>
<rscale>  0 0.14613921E+03</rscale>
<asrwt>0</asrwt>
<pdfrwt beam="1">  1        2 0.97488706E-01 0.16499145E+03</pdfrwt>
<pdfrwt beam="2">  1       -2 0.44632921E-02 0.16499145E+03</pdfrwt>
<totfact> 0.10648893E+04</totfact>
</mgrwt>
</event>
<event>
 7    1  0.5107591E-006  0.1185032E+03  0.7546771E-02  0.1256775E+00
          2   -1    0    0  501    0  0.00000000000E+00  0.00000000000E+00  0.32786636046E+03  0.32786636046E+03  0.00000000000E+00 0. -1.
         -2   -1    0    0    0  501 -0.00000000000E+00 -0.00000000000E+00 -0.17470014004E+03  0.17470014004E+03  0.00000000000E+00 0.  1.
         23    2    1    2    0    0  0.24632665276E+02  0.11739819924E+02  0.29956909322E+03  0.31421362786E+03  0.90796314628E+02 0.  0.
          5    1    1    2  502    0  0.35070108475E+02  0.20595375684E+02 -0.21822448860E+02  0.46393871171E+02  0.47000000000E+01 0. -1.
         -5    1    1    2    0  502 -0.59702773751E+02 -0.32335195609E+02 -0.12458042394E+03  0.14195900147E+03  0.47000000000E+01 0.  1.
        -11    1    3    3    0    0 -0.25985479274E+02 -0.75670233179E+01  0.35476360299E+02  0.44621487145E+02  0.00000000000E+00 0.  1.
         11    1    3    3    0    0  0.50618144550E+02  0.19306843242E+02  0.26409273292E+03  0.26959214071E+03  0.00000000000E+00 0. -1.
<mgrwt>
<rscale>  0 0.11207501E+03</rscale>
<asrwt>0</asrwt>
<pdfrwt beam="1">  1        2 0.50440978E-01 0.11850318E+03</pdfrwt>
<pdfrwt beam="2">  1       -2 0.26876945E-01 0.11850318E+03</pdfrwt>
<totfact> 0.12191478E+03</totfact>
</mgrwt>
</event>
<event>
 7    1  0.5107591E-006  0.2973909E+03  0.7546771E-02  0.1088150E+00
          2   -1    0    0  501    0  0.00000000000E+00  0.00000000000E+00  0.16629062769E+03  0.16629062769E+03  0.00000000000E+00 0. -1.
         -2   -1    0    0    0  501 -0.00000000000E+00 -0.00000000000E+00 -0.77339371367E+03  0.77339371367E+03  0.00000000000E+00 0.  1.
         23    2    1    2    0    0 -0.26029635424E+03  0.71156951758E+02 -0.25141116945E+02  0.28613931676E+03  0.91793948713E+02 0.  0.
          5    1    1    2  502    0  0.11066573054E+03  0.15308277326E+01 -0.35651443844E+03  0.37332811596E+03  0.47000000000E+01 0.  1.
         -5    1    1    2    0  502  0.14963062370E+03 -0.72687779490E+02 -0.22544753059E+03  0.28021690864E+03  0.47000000000E+01 0.  1.
        -11    1    3    3    0    0 -0.18799241448E+03  0.64703718015E+02 -0.57057813059E+02  0.20684127503E+03  0.00000000000E+00 0.  1.
         11    1    3    3    0    0 -0.72303939759E+02  0.64532337428E+01  0.31916696114E+02  0.79298041724E+02  0.00000000000E+00 0. -1.
<mgrwt>
<rscale>  0 0.29425202E+03</rscale>
<asrwt>0</asrwt>
<pdfrwt beam="1">  1        2 0.25583173E-01 0.29739093E+03</pdfrwt>
<pdfrwt beam="2">  1       -2 0.11898365E+00 0.29739093E+03</pdfrwt>
<totfact> 0.11930069E+02</totfact>
</mgrwt>
</event>
<event>
 7    1  0.5107591E-006  0.1377377E+03  0.7546771E-02  0.1227661E+00
          4   -1    0    0  501    0  0.00000000000E+00  0.00000000000E+00  0.24105847502E+03  0.24105847502E+03  0.00000000000E+00 0. -1.
         -4   -1    0    0    0  501 -0.00000000000E+00 -0.00000000000E+00 -0.72677992069E+02  0.72677992069E+02  0.00000000000E+00 0.  1.
         23    2    1    2    0    0 -0.57483706810E+02  0.65549857715E+01  0.18882774493E+02  0.11046023072E+03  0.92182205505E+02 0.  0.
          5    1    1    2  502    0  0.80665696316E+02 -0.27926125236E+02  0.50546869783E+02  0.99317164064E+02  0.47000000000E+01 0. -1.
         -5    1    1    2    0  502 -0.23181989506E+02  0.21371139464E+02  0.98950838671E+02  0.10395907230E+03  0.47000000000E+01 0. -1.
        -11    1    3    3    0    0 -0.50298923828E+01 -0.36211614550E+02  0.22074050122E+02  0.42706492884E+02  0.00000000000E+00 0. -1.
         11    1    3    3    0    0 -0.52453814427E+02  0.42766600321E+02 -0.31912756294E+01  0.67753737839E+02  0.00000000000E+00 0.  1.
<mgrwt>
<rscale>  0 0.12986167E+03</rscale>
<asrwt>0</asrwt>
<pdfrwt beam="1">  1        4 0.37085919E-01 0.13773766E+03</pdfrwt>
<pdfrwt beam="2">  1       -4 0.11181230E-01 0.13773766E+03</pdfrwt>
<totfact> 0.73508755E+02</totfact>
</mgrwt>
</event>
<event>
 7    1  0.5107591E-006  0.1704799E+03  0.7546771E-02  0.1183817E+00
          1   -1    0    0  501    0  0.00000000000E+00  0.00000000000E+00  0.19104270755E+03  0.19104270755E+03  0.00000000000E+00 0. -1.
         -1   -1    0    0    0  501 -0.00000000000E+00 -0.00000000000E+00 -0.13676032029E+03  0.13676032029E+03  0.00000000000E+00 0.  1.
         23    2    1    2    0    0 -0.79283912856E+02  0.84574536639E+02  0.54903368423E+02  0.15732202579E+03  0.91088137801E+02 0.  0.
          5    1    1    2  502    0 -0.20412103433E+02 -0.53972601755E+01  0.32322014346E+02  0.38891991404E+02  0.47000000000E+01 0.  1.
         -5    1    1    2    0  502  0.99696016289E+02 -0.79177276463E+02 -0.32942995506E+02  0.13158901065E+03  0.47000000000E+01 0.  1.
        -11    1    3    3    0    0 -0.69600188857E+02  0.69542013677E+02 -0.12437076207E+01  0.98396263973E+02  0.00000000000E+00 0.  1.
         11    1    3    3    0    0 -0.96837239989E+01  0.15032522962E+02  0.56147076043E+02  0.58925761814E+02  0.00000000000E+00 0. -1.
<mgrwt>
<rscale>  0 0.16440003E+03</rscale>
<asrwt>0</asrwt>
<pdfrwt beam="1">  1        1 0.29391186E-01 0.17047987E+03</pdfrwt>
<pdfrwt beam="2">  1       -1 0.21040049E-01 0.17047987E+03</pdfrwt>
<totfact> 0.28216697E+03</totfact>
</mgrwt>
</event>
<event>
 7    1  0.5107591E-006  0.1455083E+03  0.7546771E-02  0.1216168E+00
          2   -1    0    0  501    0  0.00000000000E+00  0.00000000000E+00  0.52944247117E+03  0.52944247117E+03  0.00000000000E+00 0. -1.
         -2   -1    0    0    0  501 -0.00000000000E+00 -0.00000000000E+00 -0.34355091798E+02  0.34355091798E+02  0.00000000000E+00 0.  1.
         23    2    1    2    0    0 -0.26501002713E+01  0.74441244393E+02  0.28500893824E+03  0.30824792090E+03  0.90764331990E+02 0.  0.
          5    1    1    2  502    0  0.25018630769E+02  0.26970455562E+02  0.30349860172E+02  0.47922242970E+02  0.47000000000E+01 0. -1.
         -5    1    1    2    0  502 -0.22368530497E+02 -0.10141169996E+03  0.17972858096E+03  0.20762739910E+03  0.47000000000E+01 0. -1.
        -11    1    3    3    0    0 -0.31925899320E+02  0.37281036910E+01  0.14665849782E+03  0.15013952440E+03  0.00000000000E+00 0.  1.
         11    1    3    3    0    0  0.29275799048E+02  0.70713140702E+02  0.13835044043E+03  0.15810839650E+03  0.00000000000E+00 0. -1.
<mgrwt>
<rscale>  0 0.13791082E+03</rscale>
<asrwt>0</asrwt>
<pdfrwt beam="1">  1        2 0.81452682E-01 0.14550831E+03</pdfrwt>
<pdfrwt beam="2">  1       -2 0.52853991E-02 0.14550831E+03</pdfrwt>
<totfact> 0.10044925E+04</totfact>
</mgrwt>
</event>
<event>
 7    1  0.5107591E-006  0.1463724E+03  0.7546771E-02  0.1214555E+00
          2   -1    0    0  501    0  0.00000000000E+00  0.00000000000E+00  0.62908506210E+02  0.62908506210E+02  0.00000000000E+00 0. -1.
         -2   -1    0    0    0  501 -0.00000000000E+00 -0.00000000000E+00 -0.31729676869E+03  0.31729676869E+03  0.00000000000E+00 0.  1.
         23    2    1    2    0    0 -0.65372175393E+02  0.38659326257E+02 -0.51409789055E+02  0.12995509831E+03  0.92072234374E+02 0.  0.
          5    1    1    2  502    0  0.27112981856E+02  0.65990913887E+01  0.93139708068E+01  0.29790969176E+02  0.47000000000E+01 0.  1.
         -5    1    1    2    0  502  0.38259193537E+02 -0.45258417646E+02 -0.21229244423E+03  0.22045920742E+03  0.47000000000E+01 0.  1.
        -11    1    3    3    0    0 -0.18469325252E+02  0.68014506312E+01 -0.68070447650E+02  0.70858743633E+02  0.00000000000E+00 0.  1.
         11    1    3    3    0    0 -0.46902850141E+02  0.31857875626E+02  0.16660658595E+02  0.59096354672E+02  0.00000000000E+00 0. -1.
<mgrwt>
<rscale>  0 0.13909248E+03</rscale>
<asrwt>0</asrwt>
<pdfrwt beam="1">  1        2 0.96782316E-02 0.14637244E+03</pdfrwt>
<pdfrwt beam="2">  1       -2 0.48814888E-01 0.14637244E+03</pdfrwt>
<totfact> 0.25994335E+03</totfact>
</mgrwt>
</event>
<event>
 7    1  0.5107591E-006  0.1572417E+03  0.7546771E-02  0.1200049E+00
          1   -1    0    0  501    0  0.00000000000E+00  0.00000000000E+00  0.78494600539E+02  0.78494600539E+02  0.00000000000E+00 0. -1.
         -1   -1    0    0    0  501 -0.00000000000E+00 -0.00000000000E+00 -0.27553160535E+03  0.27553160535E+03  0.00000000000E+00 0.  1.
         23    2    1    2    0    0 -0.90888671486E+02  0.29087050894E+02 -0.56191393641E+02  0.14292806713E+03  0.90355699980E+02 0.  0.
          5    1    1    2  502    0 -0.16837524280E+02 -0.19611628928E+02 -0.85659736988E+02  0.89597984095E+02  0.47000000000E+01 0. -1.
         -5    1    1    2    0  502  0.10772619577E+03 -0.94754219660E+01 -0.55185874186E+02  0.12150015467E+03  0.47000000000E+01 0. -1.
        -11    1    3    3    0    0 -0.42723673560E+02 -0.30853517246E+02 -0.34660697305E+02  0.63076269282E+02  0.00000000000E+00 0. -1.
         11    1    3    3    0    0 -0.48164997926E+02  0.59940568140E+02 -0.21530696336E+02  0.79851797844E+02  0.00000000000E+00 0.  1.
<mgrwt>
<rscale>  0 0.15034544E+03</rscale>
<asrwt>0</asrwt>
<pdfrwt beam="1">  1        1 0.12076093E-01 0.15724165E+03</pdfrwt>
<pdfrwt beam="2">  1       -1 0.42389477E-01 0.15724165E+03</pdfrwt>
<totfact> 0.26944342E+03</totfact>
</mgrwt>
</event>
<event>
 7    1  0.5107591E-006  0.1766176E+03  0.7546771E-02  0.1175940E+00
         -2   -1    0    0    0  501 -0.00000000000E+00  0.00000000000E+00  0.25964377566E+03  0.25964377566E+03  0.00000000000E+00 0.  1.
          2   -1    0    0  501    0  0.00000000000E+00 -0.00000000000E+00 -0.12996473471E+03  0.12996473471E+03  0.00000000000E+00 0. -1.
         23    2    1    2    0    0  0.36476616532E+02  0.11932463316E+03 -0.18113546036E+02  0.15931215211E+03  0.97382491383E+02 0.  0.
          5    1    1    2  502    0 -0.85684595054E+01 -0.37664070315E+02 -0.18348513247E+02  0.43020444319E+02  0.47000000000E+01 0. -1.
         -5    1    1    2    0  502 -0.27908157027E+02 -0.81660562842E+02  0.16614110024E+03  0.18727591394E+03  0.47000000000E+01 0. -1.
        -11    1    3    3    0    0  0.60930727821E+02  0.11678658275E+03 -0.58941962975E+01  0.13185750283E+03  0.00000000000E+00 0. -1.
         11    1    3    3    0    0 -0.24454111289E+02  0.25380504063E+01 -0.12219349739E+02  0.27454649276E+02  0.00000000000E+00 0.  1.
<mgrwt>
<rscale>  0 0.17184278E+03</rscale>
<asrwt>0</asrwt>
<pdfrwt beam="2">  1        2 0.19994575E-01 0.17661756E+03</pdfrwt>
<pdfrwt beam="1">  1       -2 0.39945196E-01 0.17661756E+03</pdfrwt>
<totfact> 0.16335286E+03</totfact>
</mgrwt>
</event>
<event>
 7    1  0.5107591E-006  0.2039831E+03  0.7546771E-02  0.1150435E+00
         -1   -1    0    0    0  501 -0.00000000000E+00  0.00000000000E+00  0.74261695719E+02  0.74261695719E+02  0.00000000000E+00 0.  1.
          1   -1    0    0  501    0  0.00000000000E+00 -0.00000000000E+00 -0.51267144429E+03  0.51267144429E+03  0.00000000000E+00 0. -1.
         23    2    1    2    0    0 -0.15396952332E+03 -0.47726684124E+02 -0.22787346491E+03  0.29378707033E+03  0.91651929570E+02 0.  0.
          5    1    1    2  502    0  0.11896282966E+03  0.87669358603E+02 -0.17487108446E+03  0.22899794204E+03  0.47000000000E+01 0.  1.
         -5    1    1    2    0  502  0.35006693659E+02 -0.39942674480E+02 -0.35665199201E+02  0.64148127638E+02  0.47000000000E+01 0.  1.
        -11    1    3    3    0    0 -0.24415600459E+02 -0.71516109188E+01 -0.11336371612E+03  0.11618347222E+03  0.00000000000E+00 0. -1.
         11    1    3    3    0    0 -0.12955392286E+03 -0.40575073205E+02 -0.11450974880E+03  0.17760359812E+03  0.00000000000E+00 0.  1.
<mgrwt>
<rscale>  0 0.19917782E+03</rscale>
<asrwt>0</asrwt>
<pdfrwt beam="2">  1        1 0.78872533E-01 0.20398307E+03</pdfrwt>
<pdfrwt beam="1">  1       -1 0.11424876E-01 0.20398307E+03</pdfrwt>
<totfact> 0.21433055E+03</totfact>
</mgrwt>
</event>
<event>
 7    1  0.5107591E-006  0.1299642E+03  0.7546771E-02  0.1241355E+00
          1   -1    0    0  501    0  0.00000000000E+00  0.00000000000E+00  0.32657771450E+03  0.32657771450E+03  0.00000000000E+00 0. -1.
         -1   -1    0    0    0  501 -0.00000000000E+00 -0.00000000000E+00 -0.42034525268E+02  0.42034525268E+02  0.00000000000E+00 0.  1.
         23    2    1    2    0    0 -0.28221133682E+02 -0.21362290054E+02  0.16606769947E+03  0.19275108479E+03  0.91223462220E+02 0.  0.
          5    1    1    2  502    0  0.46432016867E+02  0.53393427918E+02  0.11921151006E+03  0.13870928039E+03  0.47000000000E+01 0. -1.
         -5    1    1    2    0  502 -0.18210883185E+02 -0.32031137864E+02 -0.73602029967E+00  0.37151874584E+02  0.47000000000E+01 0. -1.
        -11    1    3    3    0    0 -0.11705513829E+02  0.29337213948E+02  0.11373227211E+03  0.11803694716E+03  0.00000000000E+00 0. -1.
         11    1    3    3    0    0 -0.16515619853E+02 -0.50699504002E+02  0.52335427362E+02  0.74714137634E+02  0.00000000000E+00 0.  1.
<mgrwt>
<rscale>  0 0.12106188E+03</rscale>
<asrwt>0</asrwt>
<pdfrwt beam="1">  1        1 0.50242724E-01 0.12996424E+03</pdfrwt>
<pdfrwt beam="2">  1       -1 0.64668503E-02 0.12996424E+03</pdfrwt>
<totfact> 0.88684792E+03</totfact>
</mgrwt>
</event>
<event>
 7    1  0.5107591E-006  0.2801424E+03  0.7546771E-02  0.1129910E+00
         -2   -1    0    0    0  501 -0.00000000000E+00  0.00000000000E+00  0.10221039586E+03  0.10221039586E+03  0.00000000000E+00 0.  1.
          2   -1    0    0  501    0  0.00000000000E+00 -0.00000000000E+00 -0.39258558046E+03  0.39258558046E+03  0.00000000000E+00 0. -1.
         23    2    1    2    0    0 -0.65203460184E+02  0.34248489439E+02 -0.58791755214E+02  0.13132569155E+03  0.91463197684E+02 0.  0.
          5    1    1    2  502    0  0.34654005982E+02  0.65661952333E+02 -0.24681639527E+03  0.25778443531E+03  0.47000000000E+01 0. -1.
         -5    1    1    2    0  502  0.30549454202E+02 -0.99910441772E+02  0.15232965884E+02  0.10568584946E+03  0.47000000000E+01 0.  1.
        -11    1    3    3    0    0 -0.57649930510E+02  0.55408492212E+02 -0.69951073725E+02  0.10623920280E+03  0.00000000000E+00 0.  1.
         11    1    3    3    0    0 -0.75535296733E+01 -0.21160002772E+02  0.11159318512E+02  0.25086488744E+02  0.00000000000E+00 0. -1.
<mgrwt>
<rscale>  0 0.22541330E+03</rscale>
<asrwt>0</asrwt>
<pdfrwt beam="2">  1        2 0.60397782E-01 0.28014240E+03</pdfrwt>
<pdfrwt beam="1">  1       -2 0.15724676E-01 0.28014240E+03</pdfrwt>
<totfact> 0.25719128E+03</totfact>
</mgrwt>
</event>
<event>
 7    1  0.5107591E-006  0.1292071E+03  0.7546771E-02  0.1244022E+00
          1   -1    0    0  501    0  0.00000000000E+00  0.00000000000E+00  0.48202077597E+03  0.48202077597E+03  0.00000000000E+00 0. -1.
         -1   -1    0    0    0  501 -0.00000000000E+00 -0.00000000000E+00 -0.30646279123E+02  0.30646279123E+02  0.00000000000E+00 0.  1.
         23    2    1    2    0    0 -0.17280916831E+02 -0.27750283654E+02  0.29553137195E+03  0.31022805641E+03  0.88509586204E+02 0.  0.
          5    1    1    2  502    0  0.35913870467E+02 -0.21898346960E+02  0.14093483527E+03  0.14715319053E+03  0.47000000000E+01 0.  1.
         -5    1    1    2    0  502 -0.18632953637E+02  0.49648630614E+02  0.14908289631E+02  0.55285808150E+02  0.47000000000E+01 0.  1.
        -11    1    3    3    0    0 -0.27014943193E+02 -0.55149580884E+02  0.15504227001E+03  0.16676147312E+03  0.00000000000E+00 0.  1.
         11    1    3    3    0    0  0.97340263619E+01  0.27399297230E+02  0.14048910194E+03  0.14346658329E+03  0.00000000000E+00 0. -1.
<mgrwt>
<rscale>  0 0.11944134E+03</rscale>
<asrwt>0</asrwt>
<pdfrwt beam="1">  1        1 0.74157036E-01 0.12920708E+03</pdfrwt>
<pdfrwt beam="2">  1       -1 0.47148126E-02 0.12920708E+03</pdfrwt>
<totfact> 0.86696560E+03</totfact>
</mgrwt>
</event>
<event>
 7    1  0.5107591E-006  0.1281291E+03  0.7546771E-02  0.1244752E+00
          1   -1    0    0  501    0  0.00000000000E+00  0.00000000000E+00  0.12319763147E+03  0.12319763147E+03  0.00000000000E+00 0. -1.
         -1   -1    0    0    0  501 -0.00000000000E+00 -0.00000000000E+00 -0.10218148724E+03  0.10218148724E+03  0.00000000000E+00 0.  1.
         23    2    1    2    0    0  0.26419030087E+02  0.95760122193E+01  0.19098177540E+02  0.97235648576E+02  0.91106343401E+02 0.  0.
          5    1    1    2  502    0  0.39956012797E+02 -0.37029682187E+02  0.10413732098E+02  0.55661621767E+02  0.47000000000E+01 0. -1.
         -5    1    1    2    0  502 -0.66375042884E+02  0.27453669968E+02 -0.84957654133E+01  0.72481848366E+02  0.47000000000E+01 0. -1.
        -11    1    3    3    0    0  0.42555111313E+02  0.17191275470E+02  0.45983060322E+02  0.64968602322E+02  0.00000000000E+00 0. -1.
         11    1    3    3    0    0 -0.16136081227E+02 -0.76152632505E+01 -0.26884882782E+02  0.32267046254E+02  0.00000000000E+00 0.  1.
<mgrwt>
<rscale>  0 0.11900263E+03</rscale>
<asrwt>0</asrwt>
<pdfrwt beam="1">  1        1 0.18953482E-01 0.12812912E+03</pdfrwt>
<pdfrwt beam="2">  1       -1 0.15720229E-01 0.12812912E+03</pdfrwt>
<totfact> 0.76880817E+03</totfact>
</mgrwt>
</event>
<event>
 7    1  0.5107591E-006  0.1532214E+03  0.7546771E-02  0.1205838E+00
          1   -1    0    0  501    0  0.00000000000E+00  0.00000000000E+00  0.63644199544E+03  0.63644199544E+03  0.00000000000E+00 0.  1.
         -1   -1    0    0    0  501 -0.00000000000E+00 -0.00000000000E+00 -0.30863376495E+02  0.30863376495E+02  0.00000000000E+00 0. -1.
         23    2    1    2    0    0  0.34929343110E+02  0.81433487511E+02  0.23581673326E+03  0.26705464434E+03  0.88640732614E+02 0.  0.
          5    1    1    2  502    0 -0.64291837174E+02 -0.71853071319E+02  0.35049654263E+03  0.36354672407E+03  0.47000000000E+01 0. -1.
         -5    1    1    2    0  502  0.29362494064E+02 -0.95804161914E+01  0.19265343054E+02  0.36704003529E+02  0.47000000000E+01 0. -1.
        -11    1    3    3    0    0  0.61255407663E+02  0.34146493356E+02  0.15020937495E+03  0.16577413640E+03  0.00000000000E+00 0. -1.
         11    1    3    3    0    0 -0.26326064554E+02  0.47286994155E+02  0.85607358314E+02  0.10128050794E+03  0.00000000000E+00 0.  1.
<mgrwt>
<rscale>  0 0.14571589E+03</rscale>
<asrwt>0</asrwt>
<pdfrwt beam="1">  1        1 0.97914143E-01 0.15322139E+03</pdfrwt>
<pdfrwt beam="2">  1       -1 0.47482122E-02 0.15322139E+03</pdfrwt>
<totfact> 0.59763236E+03</totfact>
</mgrwt>
</event>
<event>
 7    1  0.5107591E-006  0.1262817E+03  0.7546771E-02  0.1248705E+00
          3   -1    0    0  501    0  0.00000000000E+00  0.00000000000E+00  0.15598238204E+02  0.15598238204E+02  0.00000000000E+00 0. -1.
         -3   -1    0    0    0  501 -0.00000000000E+00 -0.00000000000E+00 -0.77990922778E+03  0.77990922778E+03  0.00000000000E+00 0.  1.
         23    2    1    2    0    0 -0.17583441126E+02  0.28791350646E+01 -0.26648242878E+03  0.28191196797E+03  0.90244146714E+02 0.  0.
          5    1    1    2  502    0 -0.83172075257E+01 -0.14750513491E+02 -0.28836932237E+01  0.17808966165E+02  0.47000000000E+01 0.  1.
         -5    1    1    2    0  502  0.25900648652E+02  0.11871378426E+02 -0.49494486757E+03  0.49578653184E+03  0.47000000000E+01 0.  1.
        -11    1    3    3    0    0  0.32434974926E+02  0.44225234424E+01 -0.17105778380E+03  0.17416185492E+03  0.00000000000E+00 0.  1.
         11    1    3    3    0    0 -0.50018416052E+02 -0.15433883778E+01 -0.95424644985E+02  0.10775011305E+03  0.00000000000E+00 0. -1.
<mgrwt>
<rscale>  0 0.11666376E+03</rscale>
<asrwt>0</asrwt>
<pdfrwt beam="1">  1        3 0.23997293E-02 0.12628167E+03</pdfrwt>
<pdfrwt beam="2">  1       -3 0.11998602E+00 0.12628167E+03</pdfrwt>
<totfact> 0.97310633E+02</totfact>
</mgrwt>
</event>
<event>
 7    1  0.5107591E-006  0.1321005E+03  0.7546771E-02  0.1237996E+00
         -1   -1    0    0    0  501 -0.00000000000E+00  0.00000000000E+00  0.35029721646E+03  0.35029721646E+03  0.00000000000E+00 0.  1.
          1   -1    0    0  501    0  0.00000000000E+00 -0.00000000000E+00 -0.41224321302E+02  0.41224321302E+02  0.00000000000E+00 0. -1.
         23    2    1    2    0    0  0.38243029067E+02 -0.18894157545E+02  0.83412940056E+02  0.13003932183E+03  0.90183081515E+02 0.  0.
          5    1    1    2  502    0 -0.15148474250E+02  0.30478967171E+02  0.60038210648E-01  0.34358948128E+02  0.47000000000E+01 0.  1.
         -5    1    1    2    0  502 -0.23094554817E+02 -0.11584809626E+02  0.22559991690E+03  0.22712326781E+03  0.47000000000E+01 0.  1.
        -11    1    3    3    0    0  0.29503663422E+02 -0.83015410468E+00 -0.12497429029E+02  0.32052161292E+02  0.00000000000E+00 0. -1.
         11    1    3    3    0    0  0.87393656443E+01 -0.18064003441E+02  0.95910369085E+02  0.97987160537E+02  0.00000000000E+00 0.  1.
<mgrwt>
<rscale>  0 0.12314586E+03</rscale>
<asrwt>0</asrwt>
<pdfrwt beam="2">  1        1 0.63422035E-02 0.13210047E+03</pdfrwt>
<pdfrwt beam="1">  1       -1 0.53891877E-01 0.13210047E+03</pdfrwt>
<totfact> 0.40848841E+03</totfact>
</mgrwt>
</event>
<event>
 7    1  0.5107591E-006  0.1364159E+03  0.7546771E-02  0.1229424E+00
          2   -1    0    0  501    0  0.00000000000E+00  0.00000000000E+00  0.14537369205E+03  0.14537369205E+03  0.00000000000E+00 0.  1.
         -2   -1    0    0    0  501 -0.00000000000E+00 -0.00000000000E+00 -0.25628412921E+03  0.25628412921E+03  0.00000000000E+00 0. -1.
         23    2    1    2    0    0  0.36454522346E+02 -0.40689937247E+02  0.10215072302E+03  0.14866700446E+03  0.93179959276E+02 0.  0.
          5    1    1    2  502    0 -0.49181729188E+02  0.17241779751E+02 -0.21907766185E+03  0.22524039020E+03  0.47000000000E+01 0.  1.
         -5    1    1    2    0  502  0.12727206841E+02  0.23448157496E+02  0.60165016816E+01  0.27750426599E+02  0.47000000000E+01 0.  1.
        -11    1    3    3    0    0  0.10000993808E+02  0.24861814138E+02  0.30960318355E+01  0.26976194922E+02  0.00000000000E+00 0.  1.
         11    1    3    3    0    0  0.26453528538E+02 -0.65551751385E+02  0.99054691180E+02  0.12169080954E+03  0.00000000000E+00 0. -1.
<mgrwt>
<rscale>  0 0.12868239E+03</rscale>
<asrwt>0</asrwt>
<pdfrwt beam="1">  1        2 0.22365184E-01 0.13641589E+03</pdfrwt>
<pdfrwt beam="2">  1       -2 0.39428327E-01 0.13641589E+03</pdfrwt>
<totfact> 0.14619932E+03</totfact>
</mgrwt>
</event>
<event>
 7    1  0.5107591E-006  0.1641853E+03  0.7546771E-02  0.1191990E+00
         -1   -1    0    0    0  501 -0.00000000000E+00  0.00000000000E+00  0.39043965351E+02  0.39043965351E+02  0.00000000000E+00 0.  1.
          1   -1    0    0  501    0  0.00000000000E+00 -0.00000000000E+00 -0.62087949588E+03  0.62087949588E+03  0.00000000000E+00 0. -1.
         23    2    1    2    0    0  0.92863521853E+02  0.52040008370E+02 -0.34759720982E+03  0.37387381026E+03  0.87327026556E+02 0.  0.
          5    1    1    2  502    0 -0.47759887279E+00 -0.20471053656E+02  0.97868476724E+01  0.23176810087E+02  0.47000000000E+01 0. -1.
         -5    1    1    2    0  502 -0.92385922981E+02 -0.31568954714E+02 -0.24402516839E+03  0.26287284088E+03  0.47000000000E+01 0. -1.
        -11    1    3    3    0    0  0.15812086525E+02  0.18342521873E+02 -0.10414154875E+02  0.26361426568E+02  0.00000000000E+00 0.  1.
         11    1    3    3    0    0  0.77051435328E+02  0.33697486497E+02 -0.33718305494E+03  0.34751238369E+03  0.00000000000E+00 0. -1.
<mgrwt>
<rscale>  0 0.15711737E+03</rscale>
<asrwt>0</asrwt>
<pdfrwt beam="2">  1        1 0.95519921E-01 0.16418530E+03</pdfrwt>
<pdfrwt beam="1">  1       -1 0.60067640E-02 0.16418530E+03</pdfrwt>
<totfact> 0.43723147E+03</totfact>
</mgrwt>
</event>
<event>
 7    1  0.5107591E-006  0.1370916E+03  0.7546771E-02  0.1229200E+00
         -2   -1    0    0    0  501 -0.00000000000E+00  0.00000000000E+00  0.57333760814E+02  0.57333760814E+02  0.00000000000E+00 0.  1.
          2   -1    0    0  501    0  0.00000000000E+00 -0.00000000000E+00 -0.27698101367E+03  0.27698101367E+03  0.00000000000E+00 0. -1.
         23    2    1    2    0    0 -0.54867195052E+02  0.12608343435E+02 -0.13863522294E+03  0.17507580945E+03  0.90897935051E+02 0.  0.
          5    1    1    2  502    0  0.24413297542E+01 -0.56975747618E+02 -0.68525640655E+02  0.89275132790E+02  0.47000000000E+01 0.  1.
         -5    1    1    2    0  502  0.52425865298E+02  0.44367404183E+02 -0.12486389264E+02  0.69963832249E+02  0.47000000000E+01 0.  1.
        -11    1    3    3    0    0 -0.71849023163E+02 -0.13684166173E+02 -0.78567260515E+02  0.10734222356E+03  0.00000000000E+00 0.  1.
         11    1    3    3    0    0  0.16981828110E+02  0.26292509609E+02 -0.60067962427E+02  0.67733585891E+02  0.00000000000E+00 0. -1.
<mgrwt>
<rscale>  0 0.12883162E+03</rscale>
<asrwt>0</asrwt>
<pdfrwt beam="2">  1        2 0.42612463E-01 0.13709157E+03</pdfrwt>
<pdfrwt beam="1">  1       -2 0.88205786E-02 0.13709157E+03</pdfrwt>
<totfact> 0.91608150E+03</totfact>
</mgrwt>
</event>
<event>
 7    1  0.5107591E-006  0.1325017E+03  0.7546771E-02  0.1235551E+00
         -1   -1    0    0    0  501 -0.00000000000E+00  0.00000000000E+00  0.31959917420E+02  0.31959917420E+02  0.00000000000E+00 0.  1.
          1   -1    0    0  501    0  0.00000000000E+00 -0.00000000000E+00 -0.52108060339E+03  0.52108060339E+03  0.00000000000E+00 0. -1.
         23    2    1    2    0    0  0.22220916292E+02  0.38318839109E+02 -0.32999757738E+03  0.34597323514E+03  0.94005190301E+02 0.  0.
          5    1    1    2  502    0 -0.66360284005E+02  0.65407522157E+01 -0.61575282044E+02  0.90884949753E+02  0.47000000000E+01 0. -1.
         -5    1    1    2    0  502  0.44139367713E+02 -0.44859591325E+02 -0.97547826546E+02  0.11618233592E+03  0.47000000000E+01 0. -1.
        -11    1    3    3    0    0 -0.31320445289E+02 -0.63303791348E+00 -0.56793002370E+02  0.64859973391E+02  0.00000000000E+00 0.  1.
         11    1    3    3    0    0  0.53541361581E+02  0.38951877022E+02 -0.27320457501E+03  0.28111326175E+03  0.00000000000E+00 0. -1.
<mgrwt>
<rscale>  0 0.12469223E+03</rscale>
<asrwt>0</asrwt>
<pdfrwt beam="2">  1        1 0.80166248E-01 0.13250169E+03</pdfrwt>
<pdfrwt beam="1">  1       -1 0.49169103E-02 0.13250169E+03</pdfrwt>
<totfact> 0.73744242E+03</totfact>
</mgrwt>
</event>
<event>
 7    1  0.5107591E-006  0.2045846E+03  0.7546771E-02  0.1150157E+00
         -1   -1    0    0    0  501 -0.00000000000E+00  0.00000000000E+00  0.18762280004E+04  0.18762280004E+04  0.00000000000E+00 0.  1.
          1   -1    0    0  501    0  0.00000000000E+00 -0.00000000000E+00 -0.23634709046E+02  0.23634709046E+02  0.00000000000E+00 0. -1.
         23    2    1    2    0    0 -0.15891805145E+03  0.31169398521E+02  0.52605665647E+03  0.55764279935E+03  0.89461764863E+02 0.  0.
          5    1    1    2  502    0  0.61758319207E+02 -0.70691627788E+02  0.47280411234E+03  0.48205519899E+03  0.47000000000E+01 0.  1.
         -5    1    1    2    0  502  0.97159732238E+02  0.39522229268E+02  0.85373252251E+03  0.86016471107E+03  0.47000000000E+01 0.  1.
        -11    1    3    3    0    0 -0.80329128113E+02  0.37959075285E+02  0.39337680138E+03  0.40328521927E+03  0.00000000000E+00 0.  1.
         11    1    3    3    0    0 -0.78588923333E+02 -0.67896767640E+01  0.13267985509E+03  0.15435758008E+03  0.00000000000E+00 0. -1.
<mgrwt>
<rscale>  0 0.19950571E+03</rscale>
<asrwt>0</asrwt>
<pdfrwt beam="2">  1        1 0.36361106E-02 0.20458456E+03</pdfrwt>
<pdfrwt beam="1">  1       -1 0.28865034E+00 0.20458456E+03</pdfrwt>
<totfact> 0.11911905E+02</totfact>
</mgrwt>
</event>
<event>
 7    1  0.5107591E-006  0.1259236E+03  0.7546771E-02  0.1249162E+00
         -3   -1    0    0    0  501 -0.00000000000E+00  0.00000000000E+00  0.97683756377E+02  0.97683756377E+02  0.00000000000E+00 0.  1.
          3   -1    0    0  501    0  0.00000000000E+00 -0.00000000000E+00 -0.12281619794E+03  0.12281619794E+03  0.00000000000E+00 0. -1.
         23    2    1    2    0    0  0.15342161205E+02 -0.11173247306E+00 -0.22062833949E+02  0.94538926954E+02  0.90639095721E+02 0.  0.
          5    1    1    2  502    0 -0.58730387011E+02  0.35629616821E+02 -0.87462183622E+01  0.69406874940E+02  0.47000000000E+01 0.  1.
         -5    1    1    2    0  502  0.43388225806E+02 -0.35517884348E+02  0.56766107455E+01  0.56554152427E+02  0.47000000000E+01 0.  1.
        -11    1    3    3    0    0 -0.28990600544E+02  0.41872913126E+01  0.18210283557E+02  0.34490618372E+02  0.00000000000E+00 0.  1.
         11    1    3    3    0    0  0.44332761750E+02 -0.42990237857E+01 -0.40273117506E+02  0.60048308582E+02  0.00000000000E+00 0. -1.
<mgrwt>
<rscale>  0 0.11639729E+03</rscale>
<asrwt>0</asrwt>
<pdfrwt beam="2">  1        3 0.18894800E-01 0.12592362E+03</pdfrwt>
<pdfrwt beam="1">  1       -3 0.15028270E-01 0.12592362E+03</pdfrwt>
<totfact> 0.20762348E+03</totfact>
</mgrwt>
</event>
<event>
 7    1  0.5107591E-006  0.1502601E+03  0.7546771E-02  0.1210484E+00
         -2   -1    0    0    0  501 -0.00000000000E+00  0.00000000000E+00  0.46249987550E+02  0.46249987550E+02  0.00000000000E+00 0.  1.
          2   -1    0    0  501    0  0.00000000000E+00 -0.00000000000E+00 -0.44521635183E+03  0.44521635183E+03  0.00000000000E+00 0. -1.
         23    2    1    2    0    0 -0.55592026202E+02  0.62143576141E+02 -0.26135640605E+03  0.28771502303E+03  0.86720620747E+02 0.  0.
          5    1    1    2  502    0 -0.89981177831E+01 -0.81565002584E+02 -0.67574915000E+02  0.10640617890E+03  0.47000000000E+01 0.  1.
         -5    1    1    2    0  502  0.64590143985E+02  0.19421426443E+02 -0.70035043234E+02  0.97345137454E+02  0.47000000000E+01 0.  1.
        -11    1    3    3    0    0 -0.36418434325E+02  0.82673911576E+02 -0.17561275724E+03  0.19748700848E+03  0.00000000000E+00 0. -1.
         11    1    3    3    0    0 -0.19173591877E+02 -0.20530335434E+02 -0.85743648810E+02  0.90228014551E+02  0.00000000000E+00 0.  1.
<mgrwt>
<rscale>  0 0.14213522E+03</rscale>
<asrwt>0</asrwt>
<pdfrwt beam="2">  1        2 0.68494821E-01 0.15026010E+03</pdfrwt>
<pdfrwt beam="1">  1       -2 0.71153829E-02 0.15026010E+03</pdfrwt>
<totfact> 0.77431741E+03</totfact>
</mgrwt>
</event>
<event>
 7    1  0.5107591E-006  0.1797417E+03  0.7546771E-02  0.1173398E+00
          2   -1    0    0  501    0  0.00000000000E+00  0.00000000000E+00  0.86829582717E+02  0.86829582717E+02  0.00000000000E+00 0. -1.
         -2   -1    0    0    0  501 -0.00000000000E+00 -0.00000000000E+00 -0.53630330266E+03  0.53630330266E+03  0.00000000000E+00 0.  1.
         23    2    1    2    0    0  0.83531116191E+02 -0.98513385445E+02 -0.23525946689E+02  0.16081417637E+03  0.92873002919E+02 0.  0.
          5    1    1    2  502    0  0.16058718643E+02  0.29374873599E+02 -0.22543972185E+03  0.22796035583E+03  0.47000000000E+01 0. -1.
         -5    1    1    2    0  502 -0.99589834834E+02  0.69138511846E+02 -0.20050805140E+03  0.23435835317E+03  0.47000000000E+01 0. -1.
        -11    1    3    3    0    0 -0.15703187369E+02 -0.42090583798E+02 -0.72861406963E+01  0.45511484092E+02  0.00000000000E+00 0.  1.
         11    1    3    3    0    0  0.99234303560E+02 -0.56422801647E+02 -0.16239805992E+02  0.11530269228E+03  0.00000000000E+00 0. -1.
<mgrwt>
<rscale>  0 0.17433850E+03</rscale>
<asrwt>0</asrwt>
<pdfrwt beam="1">  1        2 0.13358397E-01 0.17974171E+03</pdfrwt>
<pdfrwt beam="2">  1       -2 0.82508201E-01 0.17974171E+03</pdfrwt>
<totfact> 0.59190823E+02</totfact>
</mgrwt>
</event>
<event>
 6    1  0.5107591E-006  0.3081963E+03  0.7546771E-02  0.1081214E+00
         -2   -1    0    0    0  501 -0.00000000000E+00  0.00000000000E+00  0.32102507006E+02  0.32102507006E+02  0.00000000000E+00 0.  1.
          2   -1    0    0  501    0  0.00000000000E+00 -0.00000000000E+00 -0.73970045937E+03  0.73970045937E+03  0.00000000000E+00 0. -1.
          5    1    1    2  502    0 -0.24380600826E+02 -0.53457649207E+02 -0.25579488858E+03  0.26249809329E+03  0.47000000000E+01 0. -1.
         -5    1    1    2    0  502 -0.23749308284E+02 -0.65736989071E+01  0.73006627268E+01  0.26127243206E+02  0.47000000000E+01 0. -1.
        -11    1    1    2    0    0  0.12309359788E+02  0.94471622411E+02 -0.23392655121E+03  0.25258273721E+03  0.00000000000E+00 0.  1.
         11    1    1    2    0    0  0.35820549322E+02 -0.34440274297E+02 -0.22517717530E+03  0.23059489267E+03  0.00000000000E+00 0. -1.
<mgrwt>
<rscale>  0 0.30819630E+03</rscale>
<asrwt>0</asrwt>
<pdfrwt beam="2">  1        2 0.11380006E+00 0.30819630E+03</pdfrwt>
<pdfrwt beam="1">  1       -2 0.49388476E-02 0.30819630E+03</pdfrwt>
<totfact> 0.78238915E+03</totfact>
</mgrwt>
</event>
<event>
 7    1  0.5107591E-006  0.1312322E+03  0.7546771E-02  0.1238290E+00
          1   -1    0    0  501    0  0.00000000000E+00  0.00000000000E+00  0.18788178304E+03  0.18788178304E+03  0.00000000000E+00 0. -1.
         -1   -1    0    0    0  501 -0.00000000000E+00 -0.00000000000E+00 -0.99103072143E+02  0.99103072143E+02  0.00000000000E+00 0.  1.
         23    2    1    2    0    0  0.25160032950E+02  0.31020953867E+02  0.11500649345E+03  0.15315739932E+03  0.92926683970E+02 0.  0.
          5    1    1    2  502    0 -0.49064637458E+02 -0.62349977738E+02 -0.43432284606E+02  0.90572135444E+02  0.47000000000E+01 0.  1.
         -5    1    1    2    0  502  0.23904604508E+02  0.31329023871E+02  0.17204502046E+02  0.43255320413E+02  0.47000000000E+01 0.  1.
        -11    1    3    3    0    0  0.48496840057E+02 -0.37936528413E+01  0.26893748963E+02  0.55584251643E+02  0.00000000000E+00 0.  1.
         11    1    3    3    0    0 -0.23336807107E+02  0.34814606709E+02  0.88112744491E+02  0.97573147679E+02  0.00000000000E+00 0. -1.
<mgrwt>
<rscale>  0 0.12296130E+03</rscale>
<asrwt>0</asrwt>
<pdfrwt beam="1">  1        1 0.28904890E-01 0.13123220E+03</pdfrwt>
<pdfrwt beam="2">  1       -1 0.15246627E-01 0.13123220E+03</pdfrwt>
<totfact> 0.47510557E+03</totfact>
</mgrwt>
</event>
<event>
 7    1  0.5107591E-006  0.1291572E+03  0.7546771E-02  0.1243402E+00
          1   -1    0    0  501    0  0.00000000000E+00  0.00000000000E+00  0.56252249468E+02  0.56252249468E+02  0.00000000000E+00 0. -1.
         -1   -1    0    0    0  501 -0.00000000000E+00 -0.00000000000E+00 -0.37594785323E+03  0.37594785323E+03  0.00000000000E+00 0.  1.
         23    2    1    2    0    0 -0.24341879347E+02 -0.21535677007E+02 -0.94191293833E+01  0.96115191337E+02  0.89961644789E+02 0.  0.
          5    1    1    2  502    0 -0.11227024055E+02 -0.38300305020E+02 -0.39073561306E+02  0.56051696021E+02  0.47000000000E+01 0.  1.
         -5    1    1    2    0  502  0.35568903402E+02  0.59835982027E+02 -0.27120291307E+03  0.28003321534E+03  0.47000000000E+01 0.  1.
        -11    1    3    3    0    0  0.54191220646E+01  0.32967166777E+02 -0.78428563058E+00  0.33418798201E+02  0.00000000000E+00 0. -1.
         11    1    3    3    0    0 -0.29761001411E+02 -0.54502843784E+02 -0.86348437527E+01  0.62696393135E+02  0.00000000000E+00 0.  1.
<mgrwt>
<rscale>  0 0.11981551E+03</rscale>
<asrwt>0</asrwt>
<pdfrwt beam="1">  1        1 0.86541923E-02 0.12915718E+03</pdfrwt>
<pdfrwt beam="2">  1       -1 0.57838131E-01 0.12915718E+03</pdfrwt>
<totfact> 0.23545081E+03</totfact>
</mgrwt>
</event>
<event>
 7    1  0.5107591E-006  0.1228076E+03  0.7546771E-02  0.1247701E+00
         -3   -1    0    0    0  501 -0.00000000000E+00  0.00000000000E+00  0.13229634152E+03  0.13229634152E+03  0.00000000000E+00 0.  1.
          3   -1    0    0  501    0  0.00000000000E+00 -0.00000000000E+00 -0.33789474226E+03  0.33789474226E+03  0.00000000000E+00 0. -1.
         23    2    1    2    0    0 -0.22813047114E+02  0.37443850628E+02 -0.29897793895E+03  0.31591393323E+03  0.92148402930E+02 0.  0.
          5    1    1    2  502    0 -0.20630669507E+02  0.14972127201E+02 -0.12133034594E+02  0.28619742237E+02  0.47000000000E+01 0. -1.
         -5    1    1    2    0  502  0.43443716621E+02 -0.52415977828E+02  0.10551257280E+03  0.12565740832E+03  0.47000000000E+01 0.  1.
        -11    1    3    3    0    0 -0.42307448066E+02  0.53205143747E+02 -0.26565647691E+03  0.27421537376E+03  0.00000000000E+00 0. -1.
         11    1    3    3    0    0  0.19494400952E+02 -0.15761293120E+02 -0.33321462032E+02  0.41698559463E+02  0.00000000000E+00 0.  1.
<mgrwt>
<rscale>  0 0.11725194E+03</rscale>
<asrwt>0</asrwt>
<pdfrwt beam="2">  1        3 0.51983806E-01 0.12280758E+03</pdfrwt>
<pdfrwt beam="1">  1       -3 0.20353284E-01 0.12280758E+03</pdfrwt>
<totfact> 0.18568183E+02</totfact>
</mgrwt>
</event>
<event>
 7    1  0.5107591E-006  0.1380913E+03  0.7546771E-02  0.1227603E+00
         -2   -1    0    0    0  501 -0.00000000000E+00  0.00000000000E+00  0.78598554631E+03  0.78598554631E+03  0.00000000000E+00 0.  1.
          2   -1    0    0  501    0  0.00000000000E+00 -0.00000000000E+00 -0.25526161105E+02  0.25526161105E+02  0.00000000000E+00 0. -1.
         23    2    1    2    0    0  0.58460457640E+02  0.51340635420E+01  0.14574333158E+03  0.18147595690E+03  0.90820815436E+02 0.  0.
          5    1    1    2  502    0  0.73080361199E+01 -0.42494440522E+02  0.90352739233E+02  0.10022421042E+03  0.47000000000E+01 0.  1.
         -5    1    1    2    0  502 -0.65768493760E+02  0.37360376980E+02  0.52436331439E+03  0.52981154009E+03  0.47000000000E+01 0.  1.
        -11    1    3    3    0    0  0.30568402266E+02 -0.24851577925E+02  0.13280982410E+03  0.13852969905E+03  0.00000000000E+00 0.  1.
         11    1    3    3    0    0  0.27892055374E+02  0.29985641467E+02  0.12933507481E+02  0.42946257846E+02  0.00000000000E+00 0. -1.
<mgrwt>
<rscale>  0 0.12990110E+03</rscale>
<asrwt>0</asrwt>
<pdfrwt beam="2">  1        2 0.39271023E-02 0.13809135E+03</pdfrwt>
<pdfrwt beam="1">  1       -2 0.12092083E+00 0.13809135E+03</pdfrwt>
<totfact> 0.11466643E+03</totfact>
</mgrwt>
</event>
<event>
 7    1  0.5107591E-006  0.1354656E+03  0.7546771E-02  0.1231527E+00
          1   -1    0    0  501    0  0.00000000000E+00  0.00000000000E+00  0.10208875970E+03  0.10208875970E+03  0.00000000000E+00 0. -1.
         -1   -1    0    0    0  501 -0.00000000000E+00 -0.00000000000E+00 -0.15282879807E+03  0.15282879807E+03  0.00000000000E+00 0.  1.
         23    2    1    2    0    0  0.52179312221E+02  0.13243885436E+01  0.10718361633E+02  0.10616252550E+03  0.91821369603E+02 0.  0.
          5    1    1    2  502    0  0.34518298593E+02  0.27009125971E+02 -0.18046885883E+02  0.47631774201E+02  0.47000000000E+01 0.  1.
         -5    1    1    2    0  502 -0.86697610814E+02 -0.28333514515E+02 -0.43411514121E+02  0.10112325808E+03  0.47000000000E+01 0.  1.
        -11    1    3    3    0    0  0.68211116153E+02  0.28426208464E+02  0.42700824187E+01  0.74020532951E+02  0.00000000000E+00 0.  1.
         11    1    3    3    0    0 -0.16031803931E+02 -0.27101819920E+02  0.64482792143E+01  0.32141992551E+02  0.00000000000E+00 0. -1.
<mgrwt>
<rscale>  0 0.12729412E+03</rscale>
<asrwt>0</asrwt>
<pdfrwt beam="1">  1        1 0.15705963E-01 0.13546558E+03</pdfrwt>
<pdfrwt beam="2">  1       -1 0.23512123E-01 0.13546558E+03</pdfrwt>
<totfact> 0.51589081E+03</totfact>
</mgrwt>
</event>
<event>
 7    1  0.5107591E-006  0.1745115E+03  0.7546771E-02  0.1179391E+00
          2   -1    0    0  501    0  0.00000000000E+00  0.00000000000E+00  0.77661260336E+03  0.77661260336E+03  0.00000000000E+00 0. -1.
         -2   -1    0    0    0  501 -0.00000000000E+00 -0.00000000000E+00 -0.37713110183E+02  0.37713110183E+02  0.00000000000E+00 0.  1.
         23    2    1    2    0    0 -0.77204021977E+02 -0.94220218783E+02  0.46876138437E+03  0.49272214792E+03  0.90553679850E+02 0.  0.
          5    1    1    2  502    0  0.80076515039E+02  0.40294064746E+02  0.68808475520E+02  0.11310418303E+03  0.47000000000E+01 0.  1.
         -5    1    1    2    0  502 -0.28724930618E+01  0.53926154038E+02  0.20132963328E+03  0.20849938259E+03  0.47000000000E+01 0.  1.
        -11    1    3    3    0    0 -0.38614379850E+01 -0.75266616419E+02  0.25681724578E+03  0.26764729025E+03  0.00000000000E+00 0. -1.
         11    1    3    3    0    0 -0.73342583992E+02 -0.18953602365E+02  0.21194413859E+03  0.22507485767E+03  0.00000000000E+00 0.  1.
<mgrwt>
<rscale>  0 0.16852848E+03</rscale>
<asrwt>0</asrwt>
<pdfrwt beam="1">  1        2 0.11947885E+00 0.17451148E+03</pdfrwt>
<pdfrwt beam="2">  1       -2 0.58020175E-02 0.17451148E+03</pdfrwt>
<totfact> 0.56281691E+03</totfact>
</mgrwt>
</event>
<event>
 7    1  0.5107591E-006  0.1725889E+03  0.7546771E-02  0.1183441E+00
         -2   -1    0    0    0  501 -0.00000000000E+00  0.00000000000E+00  0.44914629130E+03  0.44914629130E+03  0.00000000000E+00 0.  1.
          2   -1    0    0  501    0  0.00000000000E+00 -0.00000000000E+00 -0.55879500776E+02  0.55879500776E+02  0.00000000000E+00 0. -1.
         23    2    1    2    0    0  0.65364222805E+02  0.99442536939E+02  0.15884822467E+03  0.21392615451E+03  0.79814418049E+02 0.  0.
          5    1    1    2  502    0 -0.80915090047E+02 -0.46135366682E+02  0.67505995560E+02  0.11512981062E+03  0.47000000000E+01 0.  1.
         -5    1    1    2    0  502  0.15550867242E+02 -0.53307170257E+02  0.16691257029E+03  0.17596982694E+03  0.47000000000E+01 0.  1.
        -11    1    3    3    0    0  0.30893965851E+02  0.81682822942E+02  0.55326807930E+02  0.10338073498E+03  0.00000000000E+00 0. -1.
         11    1    3    3    0    0  0.34470256955E+02  0.17759713997E+02  0.10352141674E+03  0.11054541953E+03  0.00000000000E+00 0.  1.
<mgrwt>
<rscale>  0 0.16474515E+03</rscale>
<asrwt>0</asrwt>
<pdfrwt beam="2">  1        2 0.85968466E-02 0.17258892E+03</pdfrwt>
<pdfrwt beam="1">  1       -2 0.69099427E-01 0.17258892E+03</pdfrwt>
<totfact> 0.14912619E+03</totfact>
</mgrwt>
</event>
<event>
 7    1  0.5107591E-006  0.1316862E+03  0.7546771E-02  0.1239885E+00
          2   -1    0    0  501    0  0.00000000000E+00  0.00000000000E+00  0.31686923387E+03  0.31686923387E+03  0.00000000000E+00 0. -1.
         -2   -1    0    0    0  501 -0.00000000000E+00 -0.00000000000E+00 -0.42376907125E+02  0.42376907125E+02  0.00000000000E+00 0.  1.
         23    2    1    2    0    0 -0.14520839601E+02 -0.38788963095E+02  0.14616968417E+03  0.17537675939E+03  0.87612742910E+02 0.  0.
          5    1    1    2  502    0  0.65591571877E+02 -0.16665148740E+01  0.55739915446E+02  0.86220993656E+02  0.47000000000E+01 0. -1.
         -5    1    1    2    0  502 -0.51070732276E+02  0.40455477969E+02  0.72582727124E+02  0.97648387952E+02  0.47000000000E+01 0. -1.
        -11    1    3    3    0    0 -0.26938704237E+02 -0.63908864190E+01  0.13661023979E+03  0.13938757057E+03  0.00000000000E+00 0. -1.
         11    1    3    3    0    0  0.12417864636E+02 -0.32398076676E+02  0.95594443854E+01  0.35989188812E+02  0.00000000000E+00 0.  1.
<mgrwt>
<rscale>  0 0.12196820E+03</rscale>
<asrwt>0</asrwt>
<pdfrwt beam="1">  1        2 0.48749111E-01 0.13168618E+03</pdfrwt>
<pdfrwt beam="2">  1       -2 0.65195244E-02 0.13168618E+03</pdfrwt>
<totfact> 0.12609510E+04</totfact>
</mgrwt>
</event>
<event>
 7    1  0.5107591E-006  0.1332128E+03  0.7546771E-02  0.1234815E+00
          2   -1    0    0  501    0  0.00000000000E+00  0.00000000000E+00  0.59969033942E+03  0.59969033942E+03  0.00000000000E+00 0. -1.
         -2   -1    0    0    0  501 -0.00000000000E+00 -0.00000000000E+00 -0.24043399138E+02  0.24043399138E+02  0.00000000000E+00 0.  1.
         23    2    1    2    0    0 -0.44925804368E+02  0.10163276598E+02  0.30283408112E+03  0.32013450076E+03  0.93037614991E+02 0.  0.
          5    1    1    2  502    0  0.73811346269E+02 -0.10008656862E+02  0.83319950863E+02  0.11185969901E+03  0.47000000000E+01 0.  1.
         -5    1    1    2    0  502 -0.28885541901E+02 -0.15461973533E+00  0.18949290830E+03  0.19173953879E+03  0.47000000000E+01 0.  1.
        -11    1    3    3    0    0 -0.71981003100E+02  0.63799224941E+01  0.25508190661E+03  0.26512025064E+03  0.00000000000E+00 0.  1.
         11    1    3    3    0    0  0.27055198732E+02  0.37833541035E+01  0.47752174509E+02  0.55014250127E+02  0.00000000000E+00 0. -1.
<mgrwt>
<rscale>  0 0.12516265E+03</rscale>
<asrwt>0</asrwt>
<pdfrwt beam="1">  1        2 0.92260041E-01 0.13321277E+03</pdfrwt>
<pdfrwt beam="2">  1       -2 0.36989849E-02 0.13321277E+03</pdfrwt>
<totfact> 0.14790882E+04</totfact>
</mgrwt>
</event>
<event>
 7    1  0.5107591E-006  0.1584598E+03  0.7546771E-02  0.1198647E+00
          4   -1    0    0  501    0  0.00000000000E+00  0.00000000000E+00  0.68812984146E+03  0.68812984146E+03  0.00000000000E+00 0. -1.
         -4   -1    0    0    0  501 -0.00000000000E+00 -0.00000000000E+00 -0.38361488817E+02  0.38361488817E+02  0.00000000000E+00 0.  1.
         23    2    1    2    0    0 -0.74171995380E+02  0.63115980436E+02  0.46302018214E+03  0.48157423825E+03  0.89671322019E+02 0.  0.
          5    1    1    2  502    0  0.30439684972E+02 -0.96783490989E+02  0.13642181511E+03  0.17007827665E+03  0.47000000000E+01 0.  1.
         -5    1    1    2    0  502  0.43732310408E+02  0.33667510553E+02  0.50326355396E+02  0.74838815383E+02  0.47000000000E+01 0.  1.
        -11    1    3    3    0    0 -0.91409888915E+02  0.32738692053E+02  0.32420089484E+03  0.33842844143E+03  0.00000000000E+00 0.  1.
         11    1    3    3    0    0  0.17237893535E+02  0.30377288382E+02  0.13881928730E+03  0.14314579683E+03  0.00000000000E+00 0. -1.
<mgrwt>
<rscale>  0 0.15149553E+03</rscale>
<asrwt>0</asrwt>
<pdfrwt beam="1">  1        4 0.10586612E+00 0.15845978E+03</pdfrwt>
<pdfrwt beam="2">  1       -4 0.59017680E-02 0.15845978E+03</pdfrwt>
<totfact> 0.23412165E+02</totfact>
</mgrwt>
</event>
<event>
 7    1  0.5107591E-006  0.2395834E+03  0.7546771E-02  0.1122652E+00
          2   -1    0    0  501    0  0.00000000000E+00  0.00000000000E+00  0.90819216058E+03  0.90819216058E+03  0.00000000000E+00 0. -1.
         -2   -1    0    0    0  501 -0.00000000000E+00 -0.00000000000E+00 -0.61730867890E+02  0.61730867890E+02  0.00000000000E+00 0.  1.
         23    2    1    2    0    0 -0.15721733165E+02  0.20375222081E+03  0.31440943247E+03  0.38641692779E+03  0.93287783119E+02 0.  0.
          5    1    1    2  502    0  0.50510376553E+02 -0.16313306279E+03  0.29913065548E+03  0.34447776904E+03  0.47000000000E+01 0.  1.
         -5    1    1    2    0  502 -0.34788643388E+02 -0.40619158015E+02  0.23292120474E+03  0.23902833164E+03  0.47000000000E+01 0.  1.
        -11    1    3    3    0    0  0.82507609814E+01  0.14612276988E+03  0.27796134965E+03  0.31413763040E+03  0.00000000000E+00 0. -1.
         11    1    3    3    0    0 -0.23972494146E+02  0.57629450927E+02  0.36448082815E+02  0.72279297387E+02  0.00000000000E+00 0.  1.
<mgrwt>
<rscale>  0 0.23575777E+03</rscale>
<asrwt>0</asrwt>
<pdfrwt beam="1">  1        2 0.13972186E+00 0.23958336E+03</pdfrwt>
<pdfrwt beam="2">  1       -2 0.94970573E-02 0.23958336E+03</pdfrwt>
<totfact> 0.21575571E+03</totfact>
</mgrwt>
</event>
<event>
 7    1  0.5107591E-006  0.1611325E+03  0.7546771E-02  0.1195049E+00
         -1   -1    0    0    0  501 -0.00000000000E+00  0.00000000000E+00  0.60923359328E+02  0.60923359328E+02  0.00000000000E+00 0.  1.
          1   -1    0    0  501    0  0.00000000000E+00 -0.00000000000E+00 -0.36980034158E+03  0.36980034158E+03  0.00000000000E+00 0. -1.
         23    2    1    2    0    0  0.45279133965E+02 -0.91037343362E+02 -0.17131718132E+03  0.21885961591E+03  0.90619848813E+02 0.  0.
          5    1    1    2  502    0 -0.77081367831E+02  0.99876000417E+02 -0.96110227108E+02  0.15866952600E+03  0.47000000000E+01 0. -1.
         -5    1    1    2    0  502  0.31802233867E+02 -0.88386570551E+01 -0.41449573821E+02  0.53194559001E+02  0.47000000000E+01 0. -1.
        -11    1    3    3    0    0 -0.18050125402E+02 -0.55702943803E+02 -0.10678266773E+03  0.12178326282E+03  0.00000000000E+00 0.  1.
         11    1    3    3    0    0  0.63329259366E+02 -0.35334399560E+02 -0.64534513598E+02  0.97076353091E+02  0.00000000000E+00 0. -1.
<mgrwt>
<rscale>  0 0.15450064E+03</rscale>
<asrwt>0</asrwt>
<pdfrwt beam="2">  1        1 0.56892360E-01 0.16113253E+03</pdfrwt>
<pdfrwt beam="1">  1       -1 0.93728245E-02 0.16113253E+03</pdfrwt>
<totfact> 0.43930683E+03</totfact>
</mgrwt>
</event>
<event>
 7    1  0.5107591E-006  0.1993884E+03  0.7546771E-02  0.1154376E+00
          1   -1    0    0  501    0  0.00000000000E+00  0.00000000000E+00  0.20296022326E+03  0.20296022326E+03  0.00000000000E+00 0. -1.
         -1   -1    0    0    0  501 -0.00000000000E+00 -0.00000000000E+00 -0.21120752195E+03  0.21120752195E+03  0.00000000000E+00 0.  1.
         23    2    1    2    0    0  0.72180362480E+02 -0.13754273438E+03  0.77888838940E+02  0.19696926504E+03  0.92748108511E+02 0.  0.
          5    1    1    2  502    0  0.24019995898E+02 -0.65445503604E+01 -0.17484010903E+02  0.30782657124E+02  0.47000000000E+01 0.  1.
         -5    1    1    2    0  502 -0.96200358378E+02  0.14408728474E+03 -0.68652126731E+02  0.18641582304E+03  0.47000000000E+01 0.  1.
        -11    1    3    3    0    0  0.88697914863E+02 -0.98961053290E+02  0.79702042648E+02  0.15496136864E+03  0.00000000000E+00 0. -1.
         11    1    3    3    0    0 -0.16517552383E+02 -0.38581681090E+02 -0.18132037079E+01  0.42007896402E+02  0.00000000000E+00 0.  1.
<mgrwt>
<rscale>  0 0.19460033E+03</rscale>
<asrwt>0</asrwt>
<pdfrwt beam="1">  1        1 0.31224650E-01 0.19938843E+03</pdfrwt>
<pdfrwt beam="2">  1       -1 0.32493465E-01 0.19938843E+03</pdfrwt>
<totfact> 0.12743101E+03</totfact>
</mgrwt>
</event>
<event>
 7    1  0.5107591E-006  0.1260329E+03  0.7546771E-02  0.1252197E+00
         -1   -1    0    0    0  501 -0.00000000000E+00  0.00000000000E+00  0.97061025134E+02  0.97061025134E+02  0.00000000000E+00 0.  1.
          1   -1    0    0  501    0  0.00000000000E+00 -0.00000000000E+00 -0.11681230792E+03  0.11681230792E+03  0.00000000000E+00 0. -1.
         23    2    1    2    0    0  0.36757176975E+01 -0.15646499519E+02  0.10406078630E-01  0.86300555334E+02  0.84790694624E+02 0.  0.
          5    1    1    2  502    0 -0.37945982047E+02 -0.43618944623E+01 -0.59730097368E+02  0.71054192054E+02  0.47000000000E+01 0.  1.
         -5    1    1    2    0  502  0.34270264350E+02  0.20008393982E+02  0.39968408498E+02  0.56518585671E+02  0.47000000000E+01 0.  1.
        -11    1    3    3    0    0 -0.32406923044E+02 -0.28724648430E+01  0.24615923442E+02  0.40797100416E+02  0.00000000000E+00 0.  1.
         11    1    3    3    0    0  0.36082640741E+02 -0.12774034676E+02 -0.24605517363E+02  0.45503454918E+02  0.00000000000E+00 0. -1.
<mgrwt>
<rscale>  0 0.11464796E+03</rscale>
<asrwt>0</asrwt>
<pdfrwt beam="2">  1        1 0.17971124E-01 0.12603289E+03</pdfrwt>
<pdfrwt beam="1">  1       -1 0.14932466E-01 0.12603289E+03</pdfrwt>
<totfact> 0.89066074E+03</totfact>
</mgrwt>
</event>
<event>
 7    1  0.5107591E-006  0.1316899E+03  0.7546771E-02  0.1235643E+00
          1   -1    0    0  501    0  0.00000000000E+00  0.00000000000E+00  0.16778563551E+02  0.16778563551E+02  0.00000000000E+00 0. -1.
         -1   -1    0    0    0  501 -0.00000000000E+00 -0.00000000000E+00 -0.10417125005E+04  0.10417125005E+04  0.00000000000E+00 0.  1.
         23    2    1    2    0    0  0.92950106159E+01 -0.40361974594E+02 -0.23503888603E+03  0.25769369434E+03  0.97197098412E+02 0.  0.
          5    1    1    2  502    0  0.28258125261E+02  0.23693865155E+01 -0.41493946519E+02  0.50477452723E+02  0.47000000000E+01 0.  1.
         -5    1    1    2    0  502 -0.37553135877E+02  0.37992588079E+02 -0.74840110437E+03  0.75031991696E+03  0.47000000000E+01 0.  1.
        -11    1    3    3    0    0  0.35885052159E+02  0.18967677270E+02 -0.94171145862E+02  0.10254615772E+03  0.00000000000E+00 0.  1.
         11    1    3    3    0    0 -0.26590041543E+02 -0.59329651864E+02 -0.14086774017E+03  0.15514753662E+03  0.00000000000E+00 0. -1.
<mgrwt>
<rscale>  0 0.12463381E+03</rscale>
<asrwt>0</asrwt>
<pdfrwt beam="1">  1        1 0.25813169E-02 0.13168992E+03</pdfrwt>
<pdfrwt beam="2">  1       -1 0.16026350E+00 0.13168992E+03</pdfrwt>
<totfact> 0.13024034E+03</totfact>
</mgrwt>
</event>
<event>
 7    1  0.5107591E-006  0.1395924E+03  0.7546771E-02  0.1224980E+00
         -1   -1    0    0    0  501 -0.00000000000E+00  0.00000000000E+00  0.10282143681E+03  0.10282143681E+03  0.00000000000E+00 0.  1.
          1   -1    0    0  501    0  0.00000000000E+00 -0.00000000000E+00 -0.17299341612E+03  0.17299341612E+03  0.00000000000E+00 0. -1.
         23    2    1    2    0    0  0.37237684176E+02 -0.49746340723E+02 -0.79114689065E+02  0.13593627064E+03  0.91423148665E+02 0.  0.
          5    1    1    2  502    0  0.26037546459E+02  0.23650521549E+02 -0.41588386198E+02  0.54671609284E+02  0.47000000000E+01 0.  1.
         -5    1    1    2    0  502 -0.63275230635E+02  0.26095819173E+02  0.50531095959E+02  0.85206973007E+02  0.47000000000E+01 0.  1.
        -11    1    3    3    0    0 -0.17948312576E+02 -0.43990467934E+02 -0.12281884760E+02  0.49072883415E+02  0.00000000000E+00 0.  1.
         11    1    3    3    0    0  0.55185996752E+02 -0.57558727885E+01 -0.66832804305E+02  0.86863387226E+02  0.00000000000E+00 0. -1.
<mgrwt>
<rscale>  0 0.13168255E+03</rscale>
<asrwt>0</asrwt>
<pdfrwt beam="2">  1        1 0.26614371E-01 0.13959243E+03</pdfrwt>
<pdfrwt beam="1">  1       -1 0.15818683E-01 0.13959243E+03</pdfrwt>
<totfact> 0.49888257E+03</totfact>
</mgrwt>
</event>
<event>
 7    1  0.5107591E-006  0.1576559E+03  0.7546771E-02  0.1195787E+00
          2   -1    0    0  501    0  0.00000000000E+00  0.00000000000E+00  0.11299347338E+04  0.11299347338E+04  0.00000000000E+00 0.  1.
         -2   -1    0    0    0  501 -0.00000000000E+00 -0.00000000000E+00 -0.20295802987E+02  0.20295802987E+02  0.00000000000E+00 0. -1.
         23    2    1    2    0    0 -0.84917577716E+02  0.70257249916E+02  0.46016187166E+03  0.48189241372E+03  0.91237459965E+02 0.  0.
          5    1    1    2  502    0 -0.81533372911E+01  0.16077933103E+02  0.21124125275E+03  0.21206115558E+03  0.47000000000E+01 0. -1.
         -5    1    1    2    0  502  0.93070915007E+02 -0.86335183019E+02  0.43823580645E+03  0.45627696754E+03  0.47000000000E+01 0.  1.
        -11    1    3    3    0    0  0.36499710087E+01  0.52226219290E+02  0.15306205357E+03  0.16176802067E+03  0.00000000000E+00 0.  1.
         11    1    3    3    0    0 -0.88567548725E+02  0.18031030626E+02  0.30709981809E+03  0.32012439305E+03  0.00000000000E+00 0. -1.
<mgrwt>
<rscale>  0 0.15387784E+03</rscale>
<asrwt>0</asrwt>
<pdfrwt beam="1">  1        2 0.17383606E+00 0.15765594E+03</pdfrwt>
<pdfrwt beam="2">  1       -2 0.31224321E-02 0.15765594E+03</pdfrwt>
<totfact> 0.85483765E+03</totfact>
</mgrwt>
</event>
<event>
 7    1  0.5107591E-006  0.1290247E+03  0.7546771E-02  0.1232267E+00
          2   -1    0    0  501    0  0.00000000000E+00  0.00000000000E+00  0.23316789159E+03  0.23316789159E+03  0.00000000000E+00 0. -1.
         -2   -1    0    0    0  501 -0.00000000000E+00 -0.00000000000E+00 -0.87355958841E+02  0.87355958841E+02  0.00000000000E+00 0.  1.
         23    2    1    2    0    0 -0.87834993796E+01 -0.30655259856E+02  0.14887565851E+03  0.19146280717E+03  0.11609112806E+03 0.  0.
          5    1    1    2  502    0 -0.29908882352E+02 -0.37953517343E+02  0.85707009235E+01  0.49300685964E+02  0.47000000000E+01 0.  1.
         -5    1    1    2    0  502  0.38692381732E+02  0.68608777198E+02 -0.11634426680E+02  0.79760357302E+02  0.47000000000E+01 0.  1.
        -11    1    3    3    0    0 -0.18543484147E+02 -0.67048643281E+02  0.50054642935E+02  0.85702092445E+02  0.00000000000E+00 0.  1.
         11    1    3    3    0    0  0.97599847673E+01  0.36393383425E+02  0.98821015571E+02  0.10576071472E+03  0.00000000000E+00 0. -1.
<mgrwt>
<rscale>  0 0.12680993E+03</rscale>
<asrwt>0</asrwt>
<pdfrwt beam="1">  1        2 0.35871983E-01 0.12902467E+03</pdfrwt>
<pdfrwt beam="2">  1       -2 0.13439378E-01 0.12902467E+03</pdfrwt>
<totfact> 0.56265456E+03</totfact>
</mgrwt>
</event>
<event>
 7    1  0.5107591E-006  0.1317823E+03  0.7546771E-02  0.1232708E+00
         -2   -1    0    0    0  501 -0.00000000000E+00  0.00000000000E+00  0.44794930631E+02  0.44794930631E+02  0.00000000000E+00 0. -1.
          2   -1    0    0  501    0  0.00000000000E+00 -0.00000000000E+00 -0.33546372846E+03  0.33546372846E+03  0.00000000000E+00 0.  1.
         23    2    1    2    0    0  0.16936118450E+02  0.38140389379E+02 -0.15400062139E+03  0.19040409342E+03  0.10390383051E+03 0.  0.
          5    1    1    2  502    0 -0.58176593955E+02 -0.32498087718E+02 -0.13169711580E+03  0.14767146678E+03  0.47000000000E+01 0.  1.
         -5    1    1    2    0  502  0.41240475505E+02 -0.56423016616E+01 -0.49710606360E+01  0.42183098887E+02  0.47000000000E+01 0.  1.
        -11    1    3    3    0    0 -0.32552153079E+01 -0.28191112139E+02 -0.91555927904E+01  0.29818787864E+02  0.00000000000E+00 0. -1.
         11    1    3    3    0    0  0.20191333758E+02  0.66331501518E+02 -0.14484502860E+03  0.16058530556E+03  0.00000000000E+00 0.  1.
<mgrwt>
<rscale>  0 0.12652292E+03</rscale>
<asrwt>0</asrwt>
<pdfrwt beam="2">  1        2 0.51609804E-01 0.13178227E+03</pdfrwt>
<pdfrwt beam="1">  1       -2 0.68915278E-02 0.13178227E+03</pdfrwt>
<totfact> 0.10907725E+04</totfact>
</mgrwt>
</event>
<event>
 7    1  0.5107591E-006  0.1528557E+03  0.7546771E-02  0.1206653E+00
         -2   -1    0    0    0  501 -0.00000000000E+00  0.00000000000E+00  0.19015599094E+03  0.19015599094E+03  0.00000000000E+00 0. -1.
          2   -1    0    0  501    0  0.00000000000E+00 -0.00000000000E+00 -0.11324939531E+03  0.11324939531E+03  0.00000000000E+00 0.  1.
         23    2    1    2    0    0 -0.76886755380E+02 -0.42755652038E+02 -0.15152676396E+02  0.12496836464E+03  0.87452099037E+02 0.  0.
          5    1    1    2  502    0 -0.67314786550E+01  0.75027304245E+01 -0.26687506026E+02  0.28912224864E+02  0.47000000000E+01 0. -1.
         -5    1    1    2    0  502  0.83618234035E+02  0.35252921614E+02  0.11874677805E+03  0.14952479675E+03  0.47000000000E+01 0. -1.
        -11    1    3    3    0    0 -0.36429736645E+02 -0.35927630288E+01 -0.47548079071E+02  0.60007111925E+02  0.00000000000E+00 0.  1.
         11    1    3    3    0    0 -0.40457018735E+02 -0.39162889009E+02  0.32395402675E+02  0.64961252720E+02  0.00000000000E+00 0. -1.
<mgrwt>
<rscale>  0 0.14507987E+03</rscale>
<asrwt>0</asrwt>
<pdfrwt beam="2">  1        2 0.17422984E-01 0.15285569E+03</pdfrwt>
<pdfrwt beam="1">  1       -2 0.29254768E-01 0.15285569E+03</pdfrwt>
<totfact> 0.33782092E+03</totfact>
</mgrwt>
</event>
<event>
 7    1  0.5107591E-006  0.2311958E+03  0.7546771E-02  0.1125801E+00
          2   -1    0    0  501    0  0.00000000000E+00  0.00000000000E+00  0.77604586031E+03  0.77604586031E+03  0.00000000000E+00 0.  1.
         -2   -1    0    0    0  501 -0.00000000000E+00 -0.00000000000E+00 -0.17219179658E+02  0.17219179658E+02  0.00000000000E+00 0. -1.
         23    2    1    2    0    0  0.38671153167E+02  0.50479178954E+01  0.40646494757E+03  0.41736024892E+03  0.86341671371E+02 0.  0.
          5    1    1    2  502    0 -0.81615099710E+02 -0.14618018109E+02  0.18486160534E+03  0.20265886135E+03  0.47000000000E+01 0.  1.
         -5    1    1    2    0  502  0.42943946543E+02  0.95701002132E+01  0.16750012775E+03  0.17324592970E+03  0.47000000000E+01 0.  1.
        -11    1    3    3    0    0 -0.17348626359E+02  0.20803954851E+02  0.57314820056E+02  0.63393753415E+02  0.00000000000E+00 0. -1.
         11    1    3    3    0    0  0.56019779527E+02 -0.15756036956E+02  0.34915012751E+03  0.35396649550E+03  0.00000000000E+00 0.  1.
<mgrwt>
<rscale>  0 0.23119579E+03</rscale>
<asrwt>0</asrwt>
<pdfrwt beam="1">  1        2 0.11939164E+00 0.23119579E+03</pdfrwt>
<pdfrwt beam="2">  1       -2 0.26491052E-02 0.23119579E+03</pdfrwt>
<totfact> 0.18536287E+04</totfact>
</mgrwt>
</event>
<event>
 7    1  0.5107591E-006  0.1403975E+03  0.7546771E-02  0.1223805E+00
         -2   -1    0    0    0  501 -0.00000000000E+00  0.00000000000E+00  0.17212374561E+02  0.17212374561E+02  0.00000000000E+00 0.  1.
          2   -1    0    0  501    0  0.00000000000E+00 -0.00000000000E+00 -0.92437457547E+03  0.92437457547E+03  0.00000000000E+00 0. -1.
         23    2    1    2    0    0  0.63494127784E+02  0.73929608489E+01 -0.43177992388E+03  0.44590584855E+03  0.91169967460E+02 0.  0.
          5    1    1    2  502    0 -0.75303334002E+02  0.44066083294E+02 -0.29953878101E+03  0.31202240807E+03  0.47000000000E+01 0. -1.
         -5    1    1    2    0  502  0.11809206218E+02 -0.51459044143E+02 -0.17584349602E+03  0.18365869342E+03  0.47000000000E+01 0. -1.
        -11    1    3    3    0    0  0.84980905641E+02 -0.41745880884E+01 -0.29754441933E+03  0.30947029418E+03  0.00000000000E+00 0. -1.
         11    1    3    3    0    0 -0.21486777857E+02  0.11567548937E+02 -0.13423550456E+03  0.13643555436E+03  0.00000000000E+00 0.  1.
<mgrwt>
<rscale>  0 0.13249177E+03</rscale>
<asrwt>0</asrwt>
<pdfrwt beam="2">  1        2 0.14221148E+00 0.14039745E+03</pdfrwt>
<pdfrwt beam="1">  1       -2 0.26480575E-02 0.14039745E+03</pdfrwt>
<totfact> 0.14335085E+04</totfact>
</mgrwt>
</event>
<event>
 7    1  0.5107591E-006  0.1282145E+03  0.7546771E-02  0.1245043E+00
          2   -1    0    0  501    0  0.00000000000E+00  0.00000000000E+00  0.22730090449E+02  0.22730090449E+02  0.00000000000E+00 0. -1.
         -2   -1    0    0    0  501 -0.00000000000E+00 -0.00000000000E+00 -0.55269090069E+03  0.55269090069E+03  0.00000000000E+00 0.  1.
         23    2    1    2    0    0  0.52175007280E+01 -0.28052648954E+02 -0.19421989214E+03  0.21603133266E+03  0.90188673140E+02 0.  0.
          5    1    1    2  502    0 -0.43530029695E+02 -0.20086131856E+02 -0.60590330673E+02  0.77405389666E+02  0.47000000000E+01 0.  1.
         -5    1    1    2    0  502  0.38312528967E+02  0.48138780810E+02 -0.27515058743E+03  0.28198426882E+03  0.47000000000E+01 0.  1.
        -11    1    3    3    0    0  0.14877010146E+02 -0.55950260299E+02 -0.16339883509E+03  0.17335205902E+03  0.00000000000E+00 0.  1.
         11    1    3    3    0    0 -0.96595094178E+01  0.27897611345E+02 -0.30821057048E+02  0.42679273641E+02  0.00000000000E+00 0. -1.
<mgrwt>
<rscale>  0 0.11882824E+03</rscale>
<asrwt>0</asrwt>
<pdfrwt beam="1">  1        2 0.34969371E-02 0.12821452E+03</pdfrwt>
<pdfrwt beam="2">  1       -2 0.85029368E-01 0.12821452E+03</pdfrwt>
<totfact> 0.30016773E+03</totfact>
</mgrwt>
</event>
<event>
 7    1  0.5107591E-006  0.1362621E+03  0.7546771E-02  0.1230483E+00
          2   -1    0    0  501    0  0.00000000000E+00  0.00000000000E+00  0.60863230001E+02  0.60863230001E+02  0.00000000000E+00 0. -1.
         -2   -1    0    0    0  501 -0.00000000000E+00 -0.00000000000E+00 -0.24926288313E+03  0.24926288313E+03  0.00000000000E+00 0.  1.
         23    2    1    2    0    0  0.21519952879E+02 -0.44888440375E+02 -0.55061940601E+02  0.11947902512E+03  0.93623392860E+02 0.  0.
          5    1    1    2  502    0 -0.36557057940E+02  0.83933537536E+02 -0.10736963583E+03  0.14117926869E+03  0.47000000000E+01 0. -1.
         -5    1    1    2    0  502  0.15037105061E+02 -0.39045097161E+02 -0.25968076698E+02  0.49467819321E+02  0.47000000000E+01 0.  1.
        -11    1    3    3    0    0  0.53771641584E+02 -0.49930895149E+02 -0.38951782266E+02  0.83076621686E+02  0.00000000000E+00 0.  1.
         11    1    3    3    0    0 -0.32251688705E+02  0.50424547745E+01 -0.16110158335E+02  0.36402403438E+02  0.00000000000E+00 0. -1.
<mgrwt>
<rscale>  0 0.12798046E+03</rscale>
<asrwt>0</asrwt>
<pdfrwt beam="1">  1        2 0.93635737E-02 0.13626212E+03</pdfrwt>
<pdfrwt beam="2">  1       -2 0.38348137E-01 0.13626212E+03</pdfrwt>
<totfact> 0.42881050E+03</totfact>
</mgrwt>
</event>
<event>
 7    1  0.5107591E-006  0.1551876E+03  0.7546771E-02  0.1198776E+00
         -3   -1    0    0    0  501 -0.00000000000E+00  0.00000000000E+00  0.41925916694E+02  0.41925916694E+02  0.00000000000E+00 0.  1.
          3   -1    0    0  501    0  0.00000000000E+00 -0.00000000000E+00 -0.73102321200E+03  0.73102321200E+03  0.00000000000E+00 0. -1.
         23    2    1    2    0    0 -0.83239163580E+02 -0.61940435115E+02 -0.53910184881E+03  0.55712088593E+03  0.94802438266E+02 0.  0.
          5    1    1    2  502    0  0.84265633354E+02  0.10277749536E+02 -0.13876669126E+03  0.16274094046E+03  0.47000000000E+01 0. -1.
         -5    1    1    2    0  502 -0.10264697739E+01  0.51662685579E+02 -0.11228755247E+02  0.53087302303E+02  0.47000000000E+01 0.  1.
        -11    1    3    3    0    0  0.38037288223E+01 -0.47589718144E+02 -0.12686955913E+03  0.13555491382E+03  0.00000000000E+00 0. -1.
         11    1    3    3    0    0 -0.87042892402E+02 -0.14350716971E+02 -0.41223228967E+03  0.42156597211E+03  0.00000000000E+00 0.  1.
<mgrwt>
<rscale>  0 0.15138979E+03</rscale>
<asrwt>0</asrwt>
<pdfrwt beam="2">  1        3 0.11246511E+00 0.15518762E+03</pdfrwt>
<pdfrwt beam="1">  1       -3 0.64501410E-02 0.15518762E+03</pdfrwt>
<totfact> 0.24834284E+02</totfact>
</mgrwt>
</event>
<event>
 7    1  0.5107591E-006  0.1250204E+03  0.7546771E-02  0.1251117E+00
         -2   -1    0    0    0  501 -0.00000000000E+00  0.00000000000E+00  0.33234445778E+02  0.33234445778E+02  0.00000000000E+00 0.  1.
          2   -1    0    0  501    0  0.00000000000E+00 -0.00000000000E+00 -0.35452077588E+03  0.35452077588E+03  0.00000000000E+00 0. -1.
         23    2    1    2    0    0  0.16740017877E+01  0.38742988705E+01 -0.15933292387E+03  0.18316050506E+03  0.90238448071E+02 0.  0.
          5    1    1    2  502    0  0.22729731764E+02  0.52124638856E+02 -0.11140759340E+03  0.12516932751E+03  0.47000000000E+01 0. -1.
         -5    1    1    2    0  502 -0.24403733551E+02 -0.55998937726E+02 -0.50545812835E+02  0.79425389095E+02  0.47000000000E+01 0. -1.
        -11    1    3    3    0    0 -0.35242028465E+02 -0.24946380088E+02 -0.68695493185E+02  0.81138112092E+02  0.00000000000E+00 0.  1.
         11    1    3    3    0    0  0.36916030253E+02  0.28820678959E+02 -0.90637430685E+02  0.10202239297E+03  0.00000000000E+00 0. -1.
<mgrwt>
<rscale>  0 0.11526623E+03</rscale>
<asrwt>0</asrwt>
<pdfrwt beam="2">  1        2 0.54541657E-01 0.12502037E+03</pdfrwt>
<pdfrwt beam="1">  1       -2 0.51129918E-02 0.12502037E+03</pdfrwt>
<totfact> 0.16091566E+04</totfact>
</mgrwt>
</event>
<event>
 7    1  0.5107591E-006  0.1355732E+03  0.7546771E-02  0.1231482E+00
          3   -1    0    0  501    0  0.00000000000E+00  0.00000000000E+00  0.80091302784E+03  0.80091302784E+03  0.00000000000E+00 0. -1.
         -3   -1    0    0    0  501 -0.00000000000E+00 -0.00000000000E+00 -0.18645023872E+02  0.18645023872E+02  0.00000000000E+00 0.  1.
         23    2    1    2    0    0  0.62640494675E+01  0.52127811817E+02  0.41083297647E+03  0.42415438244E+03  0.91469440265E+02 0.  0.
          5    1    1    2  502    0 -0.14341819375E+02 -0.67836547441E+02  0.37064952425E+03  0.37710826666E+03  0.47000000000E+01 0.  1.
         -5    1    1    2    0  502  0.80777699076E+01  0.15708735624E+02  0.78550324031E+00  0.18295402617E+02  0.47000000000E+01 0.  1.
        -11    1    3    3    0    0  0.32163051705E+02 -0.13137287073E+02  0.11708002563E+03  0.12212609307E+03  0.00000000000E+00 0. -1.
         11    1    3    3    0    0 -0.25899002237E+02  0.65265098890E+02  0.29375295084E+03  0.30202828937E+03  0.00000000000E+00 0.  1.
<mgrwt>
<rscale>  0 0.12732364E+03</rscale>
<asrwt>0</asrwt>
<pdfrwt beam="1">  1        3 0.12321736E+00 0.13557316E+03</pdfrwt>
<pdfrwt beam="2">  1       -3 0.28684658E-02 0.13557316E+03</pdfrwt>
<totfact> 0.70446739E+02</totfact>
</mgrwt>
</event>
<event>
 7    1  0.5107591E-006  0.1838761E+03  0.7546771E-02  0.1169412E+00
         -1   -1    0    0    0  501 -0.00000000000E+00  0.00000000000E+00  0.15608868915E+03  0.15608868915E+03  0.00000000000E+00 0.  1.
          1   -1    0    0  501    0  0.00000000000E+00 -0.00000000000E+00 -0.21494502080E+03  0.21494502080E+03  0.00000000000E+00 0. -1.
         23    2    1    2    0    0  0.20427025911E+02 -0.13329335118E+03 -0.87767204054E+02  0.18489863900E+03  0.91104575850E+02 0.  0.
          5    1    1    2  502    0 -0.36429203451E+02 -0.94095245275E+01  0.18209030638E+02  0.42062867385E+02  0.47000000000E+01 0. -1.
         -5    1    1    2    0  502  0.16002177540E+02  0.14270287571E+03  0.10701841761E+02  0.14407220356E+03  0.47000000000E+01 0. -1.
        -11    1    3    3    0    0 -0.10392309824E+02 -0.25603776227E+01  0.13106250996E+02  0.16921272181E+02  0.00000000000E+00 0.  1.
         11    1    3    3    0    0  0.30819335734E+02 -0.13073297356E+03 -0.10087345505E+03  0.16797736682E+03  0.00000000000E+00 0. -1.
<mgrwt>
<rscale>  0 0.17834782E+03</rscale>
<asrwt>0</asrwt>
<pdfrwt beam="2">  1        1 0.33068465E-01 0.18387612E+03</pdfrwt>
<pdfrwt beam="1">  1       -1 0.24013645E-01 0.18387612E+03</pdfrwt>
<totfact> 0.19666502E+03</totfact>
</mgrwt>
</event>
<event>
 7    1  0.5107591E-006  0.1682234E+03  0.7546771E-02  0.1186735E+00
          2   -1    0    0  501    0  0.00000000000E+00  0.00000000000E+00  0.62666125798E+03  0.62666125798E+03  0.00000000000E+00 0. -1.
         -2   -1    0    0    0  501 -0.00000000000E+00 -0.00000000000E+00 -0.38950856523E+02  0.38950856523E+02  0.00000000000E+00 0.  1.
         23    2    1    2    0    0  0.92441543566E+02  0.64255117819E+02  0.25295236222E+03  0.29096286893E+03  0.89444588446E+02 0.  0.
          5    1    1    2  502    0 -0.99441842403E+02 -0.46574306610E+02  0.33743063077E+03  0.35487936913E+03  0.47000000000E+01 0. -1.
         -5    1    1    2    0  502  0.70002988365E+01 -0.17680811209E+02 -0.26725915301E+01  0.19769876436E+02  0.47000000000E+01 0. -1.
        -11    1    3    3    0    0  0.40519679392E+02 -0.10240668454E+02  0.33826637086E+02  0.53767621158E+02  0.00000000000E+00 0.  1.
         11    1    3    3    0    0  0.51921864174E+02  0.74495786273E+02  0.21912572513E+03  0.23719524777E+03  0.00000000000E+00 0. -1.
<mgrwt>
<rscale>  0 0.16174995E+03</rscale>
<asrwt>0</asrwt>
<pdfrwt beam="1">  1        2 0.96409418E-01 0.16822340E+03</pdfrwt>
<pdfrwt beam="2">  1       -2 0.59924399E-02 0.16822340E+03</pdfrwt>
<totfact> 0.69174506E+03</totfact>
</mgrwt>
</event>
<event>
 7    1  0.5107591E-006  0.1384043E+03  0.7546771E-02  0.1226875E+00
          4   -1    0    0  501    0  0.00000000000E+00  0.00000000000E+00  0.66945786528E+02  0.66945786528E+02  0.00000000000E+00 0. -1.
         -4   -1    0    0    0  501 -0.00000000000E+00 -0.00000000000E+00 -0.23595629189E+03  0.23595629189E+03  0.00000000000E+00 0.  1.
         23    2    1    2    0    0  0.58841962795E+02  0.80797899147E+01 -0.48297243614E+02  0.11925173875E+03  0.91436829913E+02 0.  0.
          5    1    1    2  502    0 -0.73938390650E+02 -0.12175622442E+02 -0.14851732810E+02  0.76536235609E+02  0.47000000000E+01 0.  1.
         -5    1    1    2    0  502  0.15096427855E+02  0.40958325276E+01 -0.10586152894E+03  0.10711410406E+03  0.47000000000E+01 0.  1.
        -11    1    3    3    0    0  0.73942325528E+02 -0.20393124791E+02 -0.31641561826E+02  0.82973100930E+02  0.00000000000E+00 0.  1.
         11    1    3    3    0    0 -0.15100362733E+02  0.28472914706E+02 -0.16655681788E+02  0.36278637824E+02  0.00000000000E+00 0. -1.
<mgrwt>
<rscale>  0 0.13039245E+03</rscale>
<asrwt>0</asrwt>
<pdfrwt beam="1">  1        4 0.10299352E-01 0.13840432E+03</pdfrwt>
<pdfrwt beam="2">  1       -4 0.36300968E-01 0.13840432E+03</pdfrwt>
<totfact> 0.88165763E+02</totfact>
</mgrwt>
</event>
<event>
 7    1  0.5107591E-006  0.1563820E+03  0.7546771E-02  0.1201037E+00
         -1   -1    0    0    0  501 -0.00000000000E+00  0.00000000000E+00  0.43462612244E+03  0.43462612244E+03  0.00000000000E+00 0.  1.
          1   -1    0    0  501    0  0.00000000000E+00 -0.00000000000E+00 -0.53541038874E+02  0.53541038874E+02  0.00000000000E+00 0. -1.
         23    2    1    2    0    0 -0.66181909375E+02 -0.66750379138E+02  0.93301376912E+02  0.16063886503E+03  0.90906764213E+02 0.  0.
          5    1    1    2  502    0 -0.20464683658E+02 -0.12522406739E+02  0.12128899570E+03  0.12372843014E+03  0.47000000000E+01 0. -1.
         -5    1    1    2    0  502  0.86646593033E+02  0.79272785877E+02  0.16649471095E+03  0.20379986614E+03  0.47000000000E+01 0. -1.
        -11    1    3    3    0    0 -0.30506164856E+02 -0.30867127946E+02  0.10055608850E+03  0.10952137973E+03  0.00000000000E+00 0.  1.
         11    1    3    3    0    0 -0.35675744520E+02 -0.35883251192E+02 -0.72547115922E+01  0.51117485300E+02  0.00000000000E+00 0. -1.
<mgrwt>
<rscale>  0 0.14954214E+03</rscale>
<asrwt>0</asrwt>
<pdfrwt beam="2">  1        1 0.82370832E-02 0.15638198E+03</pdfrwt>
<pdfrwt beam="1">  1       -1 0.66865555E-01 0.15638198E+03</pdfrwt>
<totfact> 0.19207335E+03</totfact>
</mgrwt>
</event>
<event>
 7    1  0.5107591E-006  0.1332500E+03  0.7546771E-02  0.1233888E+00
          4   -1    0    0  501    0  0.00000000000E+00  0.00000000000E+00  0.74117720937E+02  0.74117720937E+02  0.00000000000E+00 0. -1.
         -4   -1    0    0    0  501 -0.00000000000E+00 -0.00000000000E+00 -0.27281323651E+03  0.27281323651E+03  0.00000000000E+00 0.  1.
         23    2    1    2    0    0 -0.45861702026E+02 -0.52836449312E+01  0.23395941419E+01  0.10574497379E+03  0.95106851298E+02 0.  0.
          5    1    1    2  502    0  0.14624295890E+01  0.51197446197E+02 -0.32370971430E+02  0.60772419638E+02  0.47000000000E+01 0. -1.
         -5    1    1    2    0  502  0.44399272437E+02 -0.45913801266E+02 -0.16866413828E+03  0.18041356402E+03  0.47000000000E+01 0. -1.
        -11    1    3    3    0    0 -0.71584078869E+02 -0.17215095495E+02 -0.10941958165E+02  0.74433636946E+02  0.00000000000E+00 0.  1.
         11    1    3    3    0    0  0.25722376844E+02  0.11931450564E+02  0.13281552307E+02  0.31311336840E+02  0.00000000000E+00 0. -1.
<mgrwt>
<rscale>  0 0.12575891E+03</rscale>
<asrwt>0</asrwt>
<pdfrwt beam="1">  1        4 0.11402726E-01 0.13325000E+03</pdfrwt>
<pdfrwt beam="2">  1       -4 0.41971268E-01 0.13325000E+03</pdfrwt>
<totfact> 0.55396875E+02</totfact>
</mgrwt>
</event>
<event>
 7    1  0.5107591E-006  0.1444860E+03  0.7546771E-02  0.1217632E+00
         -1   -1    0    0    0  501 -0.00000000000E+00  0.00000000000E+00  0.41432127766E+03  0.41432127766E+03  0.00000000000E+00 0.  1.
          1   -1    0    0  501    0  0.00000000000E+00 -0.00000000000E+00 -0.53087013440E+02  0.53087013440E+02  0.00000000000E+00 0. -1.
         23    2    1    2    0    0 -0.66107547886E+02  0.29703671935E+02  0.54642576385E+02  0.12847665546E+03  0.90928124523E+02 0.  0.
          5    1    1    2  502    0  0.81505050542E+02 -0.56411541415E+02  0.28280672434E+03  0.29971164241E+03  0.47000000000E+01 0. -1.
         -5    1    1    2    0  502 -0.15397502656E+02  0.26707869480E+02  0.23784963494E+02  0.39219993226E+02  0.47000000000E+01 0. -1.
        -11    1    3    3    0    0 -0.74266946008E+02  0.45640762646E+02  0.19931449063E+02  0.89419914706E+02  0.00000000000E+00 0. -1.
         11    1    3    3    0    0  0.81593981215E+01 -0.15937090712E+02  0.34711127323E+02  0.39056740751E+02  0.00000000000E+00 0.  1.
<mgrwt>
<rscale>  0 0.13684946E+03</rscale>
<asrwt>0</asrwt>
<pdfrwt beam="2">  1        1 0.81672331E-02 0.14448595E+03</pdfrwt>
<pdfrwt beam="1">  1       -1 0.63741733E-01 0.14448595E+03</pdfrwt>
<totfact> 0.21250058E+03</totfact>
</mgrwt>
</event>
<event>
 7    1  0.5107591E-006  0.1330444E+03  0.7546771E-02  0.1234960E+00
          2   -1    0    0  501    0  0.00000000000E+00  0.00000000000E+00  0.90284937971E+02  0.90284937971E+02  0.00000000000E+00 0. -1.
         -2   -1    0    0    0  501 -0.00000000000E+00 -0.00000000000E+00 -0.15844423213E+03  0.15844423213E+03  0.00000000000E+00 0.  1.
         23    2    1    2    0    0 -0.45073986510E+02 -0.64093661568E+01 -0.13028661976E+02  0.10471458270E+03  0.93395147424E+02 0.  0.
          5    1    1    2  502    0 -0.17163749963E+02  0.52268302753E+02 -0.28323872449E+02  0.62055632589E+02  0.47000000000E+01 0.  1.
         -5    1    1    2    0  502  0.62237736473E+02 -0.45858936596E+02 -0.26806759734E+02  0.81958954815E+02  0.47000000000E+01 0.  1.
        -11    1    3    3    0    0  0.24363233771E+02 -0.65855073013E+01  0.15530607666E+02  0.29633356892E+02  0.00000000000E+00 0. -1.
         11    1    3    3    0    0 -0.69437220281E+02  0.17614114449E+00 -0.28559269642E+02  0.75081225806E+02  0.00000000000E+00 0.  1.
<mgrwt>
<rscale>  0 0.12506976E+03</rscale>
<asrwt>0</asrwt>
<pdfrwt beam="1">  1        2 0.13889991E-01 0.13304441E+03</pdfrwt>
<pdfrwt beam="2">  1       -2 0.24376035E-01 0.13304441E+03</pdfrwt>
<totfact> 0.60223236E+03</totfact>
</mgrwt>
</event>
<event>
 7    1  0.5107591E-006  0.1531440E+03  0.7546771E-02  0.1210571E+00
         -1   -1    0    0    0  501 -0.00000000000E+00  0.00000000000E+00  0.73729437877E+03  0.73729437877E+03  0.00000000000E+00 0.  1.
          1   -1    0    0  501    0  0.00000000000E+00 -0.00000000000E+00 -0.24208807379E+02  0.24208807379E+02  0.00000000000E+00 0. -1.
         23    2    1    2    0    0 -0.64615601925E+02  0.24601157488E+02  0.27776838845E+03  0.30003364931E+03  0.89913959605E+02 0.  0.
          5    1    1    2  502    0  0.34830097508E+02 -0.12415436528E+01  0.13092996472E+02  0.37525906780E+02  0.47000000000E+01 0. -1.
         -5    1    1    2    0  502  0.29785504417E+02 -0.23359613835E+02  0.42222418647E+03  0.42394363006E+03  0.47000000000E+01 0.  1.
        -11    1    3    3    0    0  0.10330725706E+01 -0.28672757013E+02  0.63106735563E+02  0.69322826739E+02  0.00000000000E+00 0.  1.
         11    1    3    3    0    0 -0.65648674495E+02  0.53273914501E+02  0.21466165289E+03  0.23071082257E+03  0.00000000000E+00 0. -1.
<mgrwt>
<rscale>  0 0.14206950E+03</rscale>
<asrwt>0</asrwt>
<pdfrwt beam="2">  1        1 0.37244325E-02 0.15314400E+03</pdfrwt>
<pdfrwt beam="1">  1       -1 0.11342989E+00 0.15314400E+03</pdfrwt>
<totfact> 0.18555078E+03</totfact>
</mgrwt>
</event>
<event>
 7    1  0.5107591E-006  0.1366746E+03  0.7546771E-02  0.1229519E+00
         -1   -1    0    0    0  501 -0.00000000000E+00  0.00000000000E+00  0.56169300055E+03  0.56169300055E+03  0.00000000000E+00 0.  1.
          1   -1    0    0  501    0  0.00000000000E+00 -0.00000000000E+00 -0.27651344124E+02  0.27651344124E+02  0.00000000000E+00 0. -1.
         23    2    1    2    0    0  0.52259073846E+02 -0.17999435448E+02  0.17562269083E+03  0.20575066784E+03  0.91842350292E+02 0.  0.
          5    1    1    2  502    0 -0.18842007774E+02  0.55342787845E+02  0.72379418907E+02  0.93159624864E+02  0.47000000000E+01 0. -1.
         -5    1    1    2    0  502 -0.33417066073E+02 -0.37343352397E+02  0.28603954670E+03  0.29043405198E+03  0.47000000000E+01 0. -1.
        -11    1    3    3    0    0  0.29960741554E+02  0.37764133291E+00  0.17426651443E+03  0.17682365990E+03  0.00000000000E+00 0.  1.
         11    1    3    3    0    0  0.22298332292E+02 -0.18377076781E+02  0.13561763957E+01  0.28927007942E+02  0.00000000000E+00 0. -1.
<mgrwt>
<rscale>  0 0.12861925E+03</rscale>
<asrwt>0</asrwt>
<pdfrwt beam="2">  1        1 0.42540534E-02 0.13667463E+03</pdfrwt>
<pdfrwt beam="1">  1       -1 0.86414299E-01 0.13667463E+03</pdfrwt>
<totfact> 0.27918673E+03</totfact>
</mgrwt>
</event>
<event>
 7    1  0.5107591E-006  0.2192618E+03  0.7546771E-02  0.1138015E+00
          1   -1    0    0  501    0  0.00000000000E+00  0.00000000000E+00  0.38174845907E+03  0.38174845907E+03  0.00000000000E+00 0. -1.
         -1   -1    0    0    0  501 -0.00000000000E+00 -0.00000000000E+00 -0.17415045109E+03  0.17415045109E+03  0.00000000000E+00 0.  1.
         23    2    1    2    0    0 -0.10519655174E+03  0.14624284664E+03  0.26177668842E+03  0.33004265227E+03  0.89150619892E+02 0.  0.
          5    1    1    2  502    0  0.13249292839E+03 -0.10433836711E+03 -0.36566429633E+02  0.17262695242E+03  0.47000000000E+01 0.  1.
         -5    1    1    2    0  502 -0.27296376648E+02 -0.41904479526E+02 -0.17612250809E+02  0.53229305472E+02  0.47000000000E+01 0.  1.
        -11    1    3    3    0    0 -0.56967042272E+02  0.11733185642E+03  0.23264666837E+03  0.26671423047E+03  0.00000000000E+00 0. -1.
         11    1    3    3    0    0 -0.48229509468E+02  0.28910990219E+02  0.29130020057E+02  0.63328421799E+02  0.00000000000E+00 0.  1.
<mgrwt>
<rscale>  0 0.21454646E+03</rscale>
<asrwt>0</asrwt>
<pdfrwt beam="1">  1        1 0.58730532E-01 0.21926176E+03</pdfrwt>
<pdfrwt beam="2">  1       -1 0.26792377E-01 0.21926176E+03</pdfrwt>
<totfact> 0.79942370E+02</totfact>
</mgrwt>
</event>
<event>
 7    1  0.5107591E-006  0.2055369E+03  0.7546771E-02  0.1148744E+00
         -1   -1    0    0    0  501 -0.00000000000E+00  0.00000000000E+00  0.27027560622E+02  0.27027560622E+02  0.00000000000E+00 0.  1.
          1   -1    0    0  501    0  0.00000000000E+00 -0.00000000000E+00 -0.14497576609E+04  0.14497576609E+04  0.00000000000E+00 0. -1.
         23    2    1    2    0    0 -0.10048628236E+03  0.12856843931E+03 -0.61311582289E+03  0.64148846050E+03  0.94705312132E+02 0.  0.
          5    1    1    2  502    0  0.57852173309E+02 -0.90435380291E+02 -0.72582285091E+03  0.73373451116E+03  0.47000000000E+01 0.  1.
         -5    1    1    2    0  502  0.42634109055E+02 -0.38133059023E+02 -0.83791426468E+02  0.10156224985E+03  0.47000000000E+01 0.  1.
        -11    1    3    3    0    0 -0.13277717834E+02  0.74409564237E+02 -0.36906945943E+03  0.37672980626E+03  0.00000000000E+00 0. -1.
         11    1    3    3    0    0 -0.87208564530E+02  0.54158875076E+02 -0.24404636346E+03  0.26475865424E+03  0.00000000000E+00 0.  1.
<mgrwt>
<rscale>  0 0.20118384E+03</rscale>
<asrwt>0</asrwt>
<pdfrwt beam="2">  1        1 0.22303964E+00 0.20553686E+03</pdfrwt>
<pdfrwt beam="1">  1       -1 0.41580863E-02 0.20553686E+03</pdfrwt>
<totfact> 0.17952802E+03</totfact>
</mgrwt>
</event>
<event>
 7    1  0.5107591E-006  0.5180773E+03  0.7546771E-02  0.1009618E+00
         -1   -1    0    0    0  501 -0.00000000000E+00  0.00000000000E+00  0.51329194448E+03  0.51329194448E+03  0.00000000000E+00 0.  1.
          1   -1    0    0  501    0  0.00000000000E+00 -0.00000000000E+00 -0.51641450678E+03  0.51641450678E+03  0.00000000000E+00 0. -1.
         23    2    1    2    0    0 -0.45304833580E+03  0.21801085991E+03 -0.21195493830E+02  0.51131400352E+03  0.90615846410E+02 0.  0.
          5    1    1    2  502    0  0.42616767119E+03 -0.21401624426E+03 -0.12686465424E+02  0.47707952501E+03  0.47000000000E+01 0. -1.
         -5    1    1    2    0  502  0.26880664611E+02 -0.39946156545E+01  0.30759396956E+02  0.41312922739E+02  0.47000000000E+01 0. -1.
        -11    1    3    3    0    0 -0.12711078545E+03  0.51837494683E+02 -0.45592853179E+02  0.14464779948E+03  0.00000000000E+00 0. -1.
         11    1    3    3    0    0 -0.32593755035E+03  0.16617336523E+03  0.24397359349E+02  0.36666620404E+03  0.00000000000E+00 0.  1.
<mgrwt>
<rscale>  0 0.51626714E+03</rscale>
<asrwt>0</asrwt>
<pdfrwt beam="2">  1        1 0.79448386E-01 0.51807731E+03</pdfrwt>
<pdfrwt beam="1">  1       -1 0.78967991E-01 0.51807731E+03</pdfrwt>
<totfact> 0.70784245E+01</totfact>
</mgrwt>
</event>
<event>
 7    1  0.5107591E-006  0.1431957E+03  0.7546771E-02  0.1218513E+00
         -1   -1    0    0    0  501 -0.00000000000E+00  0.00000000000E+00  0.10493513531E+03  0.10493513531E+03  0.00000000000E+00 0.  1.
          1   -1    0    0  501    0  0.00000000000E+00 -0.00000000000E+00 -0.17501937985E+03  0.17501937985E+03  0.00000000000E+00 0. -1.
         23    2    1    2    0    0 -0.12585662337E+02 -0.68733559980E+02 -0.70389295740E+02  0.13675844756E+03  0.94156884299E+02 0.  0.
          5    1    1    2  502    0  0.81424804064E+01  0.10309591503E+03 -0.15759808955E+02  0.10471642308E+03  0.47000000000E+01 0.  1.
         -5    1    1    2    0  502  0.44431819306E+01 -0.34362355052E+02  0.16064860159E+02  0.38479644519E+02  0.47000000000E+01 0.  1.
        -11    1    3    3    0    0 -0.14219227351E+02 -0.41958145003E+01  0.20484952240E+02  0.25286845474E+02  0.00000000000E+00 0.  1.
         11    1    3    3    0    0  0.16335650137E+01 -0.64537745480E+02 -0.90874247980E+02  0.11147160209E+03  0.00000000000E+00 0. -1.
<mgrwt>
<rscale>  0 0.13621608E+03</rscale>
<asrwt>0</asrwt>
<pdfrwt beam="2">  1        1 0.26926058E-01 0.14319574E+03</pdfrwt>
<pdfrwt beam="1">  1       -1 0.16143867E-01 0.14319574E+03</pdfrwt>
<totfact> 0.47685520E+03</totfact>
</mgrwt>
</event>
<event>
 7    1  0.5107591E-006  0.1283299E+03  0.7546771E-02  0.1244140E+00
          1   -1    0    0  501    0  0.00000000000E+00  0.00000000000E+00  0.30352383631E+03  0.30352383631E+03  0.00000000000E+00 0.  1.
         -1   -1    0    0    0  501 -0.00000000000E+00 -0.00000000000E+00 -0.41986916993E+02  0.41986916993E+02  0.00000000000E+00 0. -1.
         23    2    1    2    0    0 -0.29017123112E+02 -0.17446340781E+00  0.13105500483E+03  0.16249681194E+03  0.91584800749E+02 0.  0.
          5    1    1    2  502    0  0.15387733064E+02 -0.44801636335E+02  0.12703139216E+03  0.13565778099E+03  0.47000000000E+01 0. -1.
         -5    1    1    2    0  502  0.13629390048E+02  0.44976099743E+02  0.34505223203E+01  0.47356160374E+02  0.47000000000E+01 0. -1.
        -11    1    3    3    0    0  0.26352327107E+02 -0.27838660333E+01  0.89160256408E+02  0.93014764295E+02  0.00000000000E+00 0.  1.
         11    1    3    3    0    0 -0.55369450219E+02  0.26094026255E+01  0.41894748425E+02  0.69482047647E+02  0.00000000000E+00 0. -1.
<mgrwt>
<rscale>  0 0.11936995E+03</rscale>
<asrwt>0</asrwt>
<pdfrwt beam="1">  1        1 0.46695973E-01 0.12832994E+03</pdfrwt>
<pdfrwt beam="2">  1       -1 0.64595259E-02 0.12832994E+03</pdfrwt>
<totfact> 0.97169815E+03</totfact>
</mgrwt>
</event>
<event>
 7    1  0.5107591E-006  0.1610267E+03  0.7546771E-02  0.1195201E+00
         -2   -1    0    0    0  501 -0.00000000000E+00  0.00000000000E+00  0.24184755276E+02  0.24184755276E+02  0.00000000000E+00 0. -1.
          2   -1    0    0  501    0  0.00000000000E+00 -0.00000000000E+00 -0.91209169949E+03  0.91209169949E+03  0.00000000000E+00 0.  1.
         23    2    1    2    0    0  0.66892812501E+02 -0.76360718992E+02 -0.40512265871E+03  0.42734593312E+03  0.90523865272E+02 0.  0.
          5    1    1    2  502    0 -0.70998337769E+02  0.91636219040E+02 -0.47781369202E+03  0.49169703567E+03  0.47000000000E+01 0. -1.
         -5    1    1    2    0  502  0.41055252680E+01 -0.15275500048E+02 -0.49705934887E+01  0.17233485981E+02  0.47000000000E+01 0. -1.
        -11    1    3    3    0    0  0.73760522556E+02 -0.21750706979E+02 -0.18290868373E+03  0.19841697137E+03  0.00000000000E+00 0. -1.
         11    1    3    3    0    0 -0.68677100544E+01 -0.54610012013E+02 -0.22221397497E+03  0.22892896175E+03  0.00000000000E+00 0.  1.
<mgrwt>
<rscale>  0 0.15437269E+03</rscale>
<asrwt>0</asrwt>
<pdfrwt beam="2">  1        2 0.14032181E+00 0.16102674E+03</pdfrwt>
<pdfrwt beam="1">  1       -2 0.37207314E-02 0.16102674E+03</pdfrwt>
<totfact> 0.89032453E+03</totfact>
</mgrwt>
</event>
<event>
 7    1  0.5107591E-006  0.1313076E+03  0.7546771E-02  0.1239589E+00
          2   -1    0    0  501    0  0.00000000000E+00  0.00000000000E+00  0.12041145032E+03  0.12041145032E+03  0.00000000000E+00 0. -1.
         -2   -1    0    0    0  501 -0.00000000000E+00 -0.00000000000E+00 -0.10974893682E+03  0.10974893682E+03  0.00000000000E+00 0.  1.
         23    2    1    2    0    0  0.16505218600E+02  0.36666647676E+02  0.10041259029E+02  0.98851364827E+02  0.89743524293E+02 0.  0.
          5    1    1    2  502    0  0.19087704061E+02 -0.12615920601E+02  0.56227260987E+02  0.60885932505E+02  0.47000000000E+01 0. -1.
         -5    1    1    2    0  502 -0.35592922662E+02 -0.24050727076E+02 -0.55606006518E+02  0.70423089803E+02  0.47000000000E+01 0. -1.
        -11    1    3    3    0    0 -0.41041273594E+01  0.37538485761E+02 -0.33621790384E+02  0.50560919328E+02  0.00000000000E+00 0.  1.
         11    1    3    3    0    0  0.20609345960E+02 -0.87183808521E+00  0.43663049413E+02  0.48290445500E+02  0.00000000000E+00 0. -1.
<mgrwt>
<rscale>  0 0.12215180E+03</rscale>
<asrwt>0</asrwt>
<pdfrwt beam="1">  1        2 0.18524838E-01 0.13130755E+03</pdfrwt>
<pdfrwt beam="2">  1       -2 0.16884452E-01 0.13130755E+03</pdfrwt>
<totfact> 0.80269187E+03</totfact>
</mgrwt>
</event>
<event>
 7    1  0.5107591E-006  0.1475806E+03  0.7546771E-02  0.1213438E+00
         -2   -1    0    0    0  501 -0.00000000000E+00  0.00000000000E+00  0.86463545594E+02  0.86463545594E+02  0.00000000000E+00 0.  1.
          2   -1    0    0  501    0  0.00000000000E+00 -0.00000000000E+00 -0.23159907369E+03  0.23159907369E+03  0.00000000000E+00 0. -1.
         23    2    1    2    0    0 -0.74273943673E+02  0.25269084112E+02 -0.11848094516E+03  0.16809425574E+03  0.89793090637E+02 0.  0.
          5    1    1    2  502    0  0.77255813569E+02  0.28542816393E+02  0.12160308765E+02  0.83385347676E+02  0.47000000000E+01 0. -1.
         -5    1    1    2    0  502 -0.29818698961E+01 -0.53811900505E+02 -0.38814891697E+02  0.66583015863E+02  0.47000000000E+01 0. -1.
        -11    1    3    3    0    0 -0.49396104248E+02  0.32138827539E+02 -0.14133264500E+02  0.60602215437E+02  0.00000000000E+00 0.  1.
         11    1    3    3    0    0 -0.24877839425E+02 -0.68697434266E+01 -0.10434768066E+03  0.10749204030E+03  0.00000000000E+00 0. -1.
<mgrwt>
<rscale>  0 0.13991898E+03</rscale>
<asrwt>0</asrwt>
<pdfrwt beam="2">  1        2 0.35630626E-01 0.14758063E+03</pdfrwt>
<pdfrwt beam="1">  1       -2 0.13302084E-01 0.14758063E+03</pdfrwt>
<totfact> 0.58105669E+03</totfact>
</mgrwt>
</event>
<event>
 7    1  0.5107591E-006  0.2027638E+03  0.7546771E-02  0.1151603E+00
         -4   -1    0    0    0  501 -0.00000000000E+00  0.00000000000E+00  0.12888517122E+03  0.12888517122E+03  0.00000000000E+00 0.  1.
          4   -1    0    0  501    0  0.00000000000E+00 -0.00000000000E+00 -0.28981163941E+03  0.28981163941E+03  0.00000000000E+00 0. -1.
         23    2    1    2    0    0 -0.80317918687E+01  0.15944976067E+03 -0.81696828720E+02  0.20100324350E+03  0.90770018254E+02 0.  0.
          5    1    1    2  502    0 -0.63714406093E+01 -0.37318128074E+02  0.33522153608E+02  0.50784473227E+02  0.47000000000E+01 0.  1.
         -5    1    1    2    0  502  0.14403232478E+02 -0.12213163260E+03 -0.11275179307E+03  0.16690909391E+03  0.47000000000E+01 0.  1.
        -11    1    3    3    0    0 -0.32351627971E+02  0.14911549275E+02 -0.62921867628E+01  0.36174213860E+02  0.00000000000E+00 0.  1.
         11    1    3    3    0    0  0.24319836102E+02  0.14453821140E+03 -0.75404641957E+02  0.16482902964E+03  0.00000000000E+00 0. -1.
<mgrwt>
<rscale>  0 0.19780693E+03</rscale>
<asrwt>0</asrwt>
<pdfrwt beam="2">  1        4 0.44586406E-01 0.20276379E+03</pdfrwt>
<pdfrwt beam="1">  1       -4 0.19828488E-01 0.20276379E+03</pdfrwt>
<totfact> 0.19989637E+02</totfact>
</mgrwt>
</event>
<event>
 7    1  0.5107591E-006  0.1522927E+03  0.7546771E-02  0.1216611E+00
          1   -1    0    0  501    0  0.00000000000E+00  0.00000000000E+00  0.35149993154E+02  0.35149993154E+02  0.00000000000E+00 0. -1.
         -1   -1    0    0    0  501 -0.00000000000E+00 -0.00000000000E+00 -0.49027479792E+03  0.49027479792E+03  0.00000000000E+00 0.  1.
         23    2    1    2    0    0 -0.26686600468E+02  0.38203356976E+02 -0.11881764804E+03  0.15624247732E+03  0.90124397943E+02 0.  0.
          5    1    1    2  502    0  0.94400669205E+01 -0.39185187086E+02 -0.92303083787E+01  0.41615890513E+02  0.47000000000E+01 0. -1.
         -5    1    1    2    0  502  0.17246533547E+02  0.98183011052E+00 -0.32707684835E+03  0.32756642324E+03  0.47000000000E+01 0.  1.
        -11    1    3    3    0    0 -0.51636536327E+02  0.27906358424E+02 -0.35347324584E+02  0.68516640895E+02  0.00000000000E+00 0.  1.
         11    1    3    3    0    0  0.24949935859E+02  0.10296998552E+02 -0.83470323454E+02  0.87725836423E+02  0.00000000000E+00 0. -1.
<mgrwt>
<rscale>  0 0.13758872E+03</rscale>
<asrwt>0</asrwt>
<pdfrwt beam="1">  1        1 0.54076912E-02 0.15229273E+03</pdfrwt>
<pdfrwt beam="2">  1       -1 0.75426892E-01 0.15229273E+03</pdfrwt>
<totfact> 0.26724799E+03</totfact>
</mgrwt>
</event>
<event>
 7    1  0.5107591E-006  0.1507677E+03  0.7546771E-02  0.1208810E+00
          2   -1    0    0  501    0  0.00000000000E+00  0.00000000000E+00  0.60174938733E+02  0.60174938733E+02  0.00000000000E+00 0. -1.
         -2   -1    0    0    0  501 -0.00000000000E+00 -0.00000000000E+00 -0.41463252279E+03  0.41463252279E+03  0.00000000000E+00 0.  1.
         23    2    1    2    0    0  0.58425479802E+02  0.60764573686E+02 -0.46453275225E+02  0.13188247768E+03  0.90162137472E+02 0.  0.
          5    1    1    2  502    0 -0.10897942465E+02  0.38553134306E+02 -0.91040501429E+02  0.99576966288E+02  0.47000000000E+01 0. -1.
         -5    1    1    2    0  502 -0.47527537337E+02 -0.99317707992E+02 -0.21696380740E+03  0.24334801756E+03  0.47000000000E+01 0. -1.
        -11    1    3    3    0    0  0.50134912596E+02  0.73347767933E+02 -0.63444109479E+02  0.10917215556E+03  0.00000000000E+00 0.  1.
         11    1    3    3    0    0  0.82905672064E+01 -0.12583194246E+02  0.16990834254E+02  0.22710322118E+02  0.00000000000E+00 0. -1.
<mgrwt>
<rscale>  0 0.14341242E+03</rscale>
<asrwt>0</asrwt>
<pdfrwt beam="1">  1        2 0.92576830E-02 0.15076767E+03</pdfrwt>
<pdfrwt beam="2">  1       -2 0.63789618E-01 0.15076767E+03</pdfrwt>
<totfact> 0.15992005E+03</totfact>
</mgrwt>
</event>
<event>
 7    1  0.5107591E-006  0.1623541E+03  0.7546771E-02  0.1193502E+00
         -2   -1    0    0    0  501 -0.00000000000E+00  0.00000000000E+00  0.95611942011E+02  0.95611942011E+02  0.00000000000E+00 0.  1.
          2   -1    0    0  501    0  0.00000000000E+00 -0.00000000000E+00 -0.24029153861E+03  0.24029153861E+03  0.00000000000E+00 0. -1.
         23    2    1    2    0    0  0.10322648584E+03 -0.90616727313E+01 -0.42832577103E+02  0.14424838144E+03  0.90747697467E+02 0.  0.
          5    1    1    2  502    0 -0.89602473253E+02  0.41708456195E+02 -0.11670050035E+03  0.15300096507E+03  0.47000000000E+01 0.  1.
         -5    1    1    2    0  502 -0.13624012590E+02 -0.32646783464E+02  0.14853480857E+02  0.38654134102E+02  0.47000000000E+01 0.  1.
        -11    1    3    3    0    0  0.20152140852E+02 -0.31516944877E+02  0.15279558198E+02  0.40409052130E+02  0.00000000000E+00 0.  1.
         11    1    3    3    0    0  0.83074344991E+02  0.22455272146E+02 -0.58112135302E+02  0.10383932931E+03  0.00000000000E+00 0. -1.
<mgrwt>
<rscale>  0 0.15581684E+03</rscale>
<asrwt>0</asrwt>
<pdfrwt beam="2">  1        2 0.36967929E-01 0.16235412E+03</pdfrwt>
<pdfrwt beam="1">  1       -2 0.14709529E-01 0.16235412E+03</pdfrwt>
<totfact> 0.47688198E+03</totfact>
</mgrwt>
</event>
<event>
 7    1  0.5107591E-006  0.1891707E+03  0.7546771E-02  0.1164006E+00
         -1   -1    0    0    0  501 -0.00000000000E+00  0.00000000000E+00  0.93963928215E+02  0.93963928215E+02  0.00000000000E+00 0.  1.
          1   -1    0    0  501    0  0.00000000000E+00 -0.00000000000E+00 -0.40041200759E+03  0.40041200759E+03  0.00000000000E+00 0. -1.
         23    2    1    2    0    0  0.29585730361E+02  0.13888816613E+03 -0.24041157336E+03  0.29401035607E+03  0.92082173852E+02 0.  0.
          5    1    1    2  502    0  0.13412015956E+01 -0.11209699061E+03  0.11274043986E+02  0.11276847163E+03  0.47000000000E+01 0. -1.
         -5    1    1    2    0  502 -0.30926931957E+02 -0.26791175523E+02 -0.77310550005E+02  0.87597108104E+02  0.47000000000E+01 0. -1.
        -11    1    3    3    0    0 -0.20434086319E+02  0.97249849439E+02 -0.17787927312E+03  0.20375505124E+03  0.00000000000E+00 0.  1.
         11    1    3    3    0    0  0.50019816680E+02  0.41638316695E+02 -0.62532300238E+02  0.90255304835E+02  0.00000000000E+00 0. -1.
<mgrwt>
<rscale>  0 0.18397985E+03</rscale>
<asrwt>0</asrwt>
<pdfrwt beam="2">  1        1 0.61601847E-01 0.18917068E+03</pdfrwt>
<pdfrwt beam="1">  1       -1 0.14455989E-01 0.18917068E+03</pdfrwt>
<totfact> 0.20411719E+03</totfact>
</mgrwt>
</event>
<event>
 7    1  0.5107591E-006  0.1257543E+03  0.7546771E-02  0.1257295E+00
         -1   -1    0    0    0  501 -0.00000000000E+00  0.00000000000E+00  0.29575241374E+03  0.29575241374E+03  0.00000000000E+00 0.  1.
          1   -1    0    0  501    0  0.00000000000E+00 -0.00000000000E+00 -0.36007608699E+02  0.36007608699E+02  0.00000000000E+00 0. -1.
         23    2    1    2    0    0 -0.39323861522E+01  0.13347142221E+02  0.77416724068E+02  0.11027037407E+03  0.77282574788E+02 0.  0.
          5    1    1    2  502    0 -0.78134052020E+00 -0.88594530935E+00 -0.19029590581E+02  0.19636973030E+02  0.47000000000E+01 0.  1.
         -5    1    1    2    0  502  0.47137266724E+01 -0.12461196912E+02  0.20135767155E+03  0.20185267534E+03  0.47000000000E+01 0.  1.
        -11    1    3    3    0    0 -0.28368530797E+02  0.18379257876E+02  0.78322288748E+02  0.85305050110E+02  0.00000000000E+00 0.  1.
         11    1    3    3    0    0  0.24436144645E+02 -0.50321156545E+01 -0.90556467974E+00  0.24965323960E+02  0.00000000000E+00 0. -1.
<mgrwt>
<rscale>  0 0.11178777E+03</rscale>
<asrwt>0</asrwt>
<pdfrwt beam="2">  1        1 0.55396323E-02 0.12575427E+03</pdfrwt>
<pdfrwt beam="1">  1       -1 0.45500370E-01 0.12575427E+03</pdfrwt>
<totfact> 0.66545881E+03</totfact>
</mgrwt>
</event>
<event>
 7    1  0.5107591E-006  0.1369236E+03  0.7546771E-02  0.1229640E+00
         -4   -1    0    0    0  501 -0.00000000000E+00  0.00000000000E+00  0.59203237004E+03  0.59203237004E+03  0.00000000000E+00 0.  1.
          4   -1    0    0  501    0  0.00000000000E+00 -0.00000000000E+00 -0.30969989737E+02  0.30969989737E+02  0.00000000000E+00 0. -1.
         23    2    1    2    0    0 -0.55694013475E+02 -0.47065647679E+01  0.11606137943E+03  0.15741244466E+03  0.90468000148E+02 0.  0.
          5    1    1    2  502    0  0.90882293146E+02  0.24384368367E+02  0.34583722215E+03  0.35844059878E+03  0.47000000000E+01 0. -1.
         -5    1    1    2    0  502 -0.35188279671E+02 -0.19677803599E+02  0.99163778721E+02  0.10714931633E+03  0.47000000000E+01 0. -1.
        -11    1    3    3    0    0 -0.44634066511E+02 -0.15494348079E+02  0.12892424911E+03  0.13730890985E+03  0.00000000000E+00 0.  1.
         11    1    3    3    0    0 -0.11059946963E+02  0.10787783311E+02 -0.12862869679E+02  0.20103534813E+02  0.00000000000E+00 0. -1.
<mgrwt>
<rscale>  0 0.12853876E+03</rscale>
<asrwt>0</asrwt>
<pdfrwt beam="2">  1        4 0.47646142E-02 0.13692362E+03</pdfrwt>
<pdfrwt beam="1">  1       -4 0.91081895E-01 0.13692362E+03</pdfrwt>
<totfact> 0.45614812E+02</totfact>
</mgrwt>
</event>
<event>
 7    1  0.5107591E-006  0.1410004E+03  0.7546771E-02  0.1223581E+00
          1   -1    0    0  501    0  0.00000000000E+00  0.00000000000E+00  0.14630999289E+03  0.14630999289E+03  0.00000000000E+00 0.  1.
         -1   -1    0    0    0  501 -0.00000000000E+00 -0.00000000000E+00 -0.10863706904E+03  0.10863706904E+03  0.00000000000E+00 0. -1.
         23    2    1    2    0    0  0.58156794141E+02 -0.27312675782E+02  0.70767170548E+01  0.11066529963E+03  0.89825016868E+02 0.  0.
          5    1    1    2  502    0 -0.48447049396E+02 -0.46066969450E+00 -0.42958368742E+02  0.64921801090E+02  0.47000000000E+01 0.  1.
         -5    1    1    2    0  502 -0.97097447445E+01  0.27773345476E+02  0.73554575531E+02  0.79359961212E+02  0.47000000000E+01 0.  1.
        -11    1    3    3    0    0  0.26865322523E+02  0.31763914962E+02  0.12911348294E+02  0.43559095064E+02  0.00000000000E+00 0.  1.
         11    1    3    3    0    0  0.31291471618E+02 -0.59076590744E+02 -0.58346312395E+01  0.67106204569E+02  0.00000000000E+00 0. -1.
<mgrwt>
<rscale>  0 0.13264643E+03</rscale>
<asrwt>0</asrwt>
<pdfrwt beam="1">  1        1 0.22509230E-01 0.14100035E+03</pdfrwt>
<pdfrwt beam="2">  1       -1 0.16713395E-01 0.14100035E+03</pdfrwt>
<totfact> 0.56503135E+03</totfact>
</mgrwt>
</event>
<event>
 7    1  0.5107591E-006  0.1554816E+03  0.7546771E-02  0.1202856E+00
         -1   -1    0    0    0  501 -0.00000000000E+00  0.00000000000E+00  0.45004436547E+02  0.45004436547E+02  0.00000000000E+00 0.  1.
          1   -1    0    0  501    0  0.00000000000E+00 -0.00000000000E+00 -0.46777725331E+03  0.46777725331E+03  0.00000000000E+00 0. -1.
         23    2    1    2    0    0 -0.38694749611E+02  0.83982396379E+02 -0.24667629482E+03  0.27786786385E+03  0.88380024801E+02 0.  0.
          5    1    1    2  502    0  0.14459679011E+02  0.32494244821E+02 -0.32824103684E+02  0.48625816664E+02  0.47000000000E+01 0.  1.
         -5    1    1    2    0  502  0.24235070600E+02 -0.11647664120E+03 -0.14327241825E+03  0.18628800934E+03  0.47000000000E+01 0.  1.
        -11    1    3    3    0    0 -0.34557306161E+02  0.18746329427E+02 -0.18094561398E+03  0.18516734997E+03  0.00000000000E+00 0. -1.
         11    1    3    3    0    0 -0.41374434493E+01  0.65236066952E+02 -0.65730680845E+02  0.92700513882E+02  0.00000000000E+00 0.  1.
<mgrwt>
<rscale>  0 0.14807666E+03</rscale>
<asrwt>0</asrwt>
<pdfrwt beam="2">  1        1 0.71965732E-01 0.15548158E+03</pdfrwt>
<pdfrwt beam="1">  1       -1 0.69237594E-02 0.15548158E+03</pdfrwt>
<totfact> 0.51428389E+03</totfact>
</mgrwt>
</event>
<event>
 7    1  0.5107591E-006  0.1507510E+03  0.7546771E-02  0.1204177E+00
         -2   -1    0    0    0  501 -0.00000000000E+00  0.00000000000E+00  0.12336891063E+03  0.12336891063E+03  0.00000000000E+00 0.  1.
          2   -1    0    0  501    0  0.00000000000E+00 -0.00000000000E+00 -0.17277481092E+03  0.17277481092E+03  0.00000000000E+00 0. -1.
         23    2    1    2    0    0 -0.25655287945E+02 -0.80263749876E+02 -0.50354091824E+02  0.14538978870E+03  0.10724827621E+03 0.  0.
          5    1    1    2  502    0  0.62133131893E+02  0.18263485353E+01 -0.11003626562E+02  0.63301117093E+02  0.47000000000E+01 0.  1.
         -5    1    1    2    0  502 -0.36477843948E+02  0.78437401340E+02  0.11951818089E+02  0.87452815756E+02  0.47000000000E+01 0.  1.
        -11    1    3    3    0    0  0.32464502226E+02 -0.69175438611E+02 -0.20499642140E+02  0.79116499794E+02  0.00000000000E+00 0. -1.
         11    1    3    3    0    0 -0.58119790171E+02 -0.11088311265E+02 -0.29854449684E+02  0.66273288904E+02  0.00000000000E+00 0.  1.
<mgrwt>
<rscale>  0 0.14702525E+03</rscale>
<asrwt>0</asrwt>
<pdfrwt beam="2">  1        2 0.26580740E-01 0.15075095E+03</pdfrwt>
<pdfrwt beam="1">  1       -2 0.18979832E-01 0.15075095E+03</pdfrwt>
<totfact> 0.44489855E+03</totfact>
</mgrwt>
</event>
<event>
 7    1  0.5107591E-006  0.1379348E+03  0.7546771E-02  0.1227277E+00
          1   -1    0    0  501    0  0.00000000000E+00  0.00000000000E+00  0.45364472807E+02  0.45364472807E+02  0.00000000000E+00 0. -1.
         -1   -1    0    0    0  501 -0.00000000000E+00 -0.00000000000E+00 -0.35704975477E+03  0.35704975477E+03  0.00000000000E+00 0.  1.
         23    2    1    2    0    0  0.45822230489E+01 -0.58140172766E+02 -0.91021069904E+02  0.14218602642E+03  0.92362083595E+02 0.  0.
          5    1    1    2  502    0  0.49804685105E+02 -0.54390645578E+00 -0.45613961293E+02  0.67701742647E+02  0.47000000000E+01 0. -1.
         -5    1    1    2    0  502 -0.54386908154E+02  0.58684079222E+02 -0.17505025077E+03  0.19252645851E+03  0.47000000000E+01 0. -1.
        -11    1    3    3    0    0  0.41233045164E+02 -0.53482229987E+02 -0.37778098378E+02  0.77380214881E+02  0.00000000000E+00 0.  1.
         11    1    3    3    0    0 -0.36650822115E+02 -0.46579427784E+01 -0.53242971526E+02  0.64805811542E+02  0.00000000000E+00 0. -1.
<mgrwt>
<rscale>  0 0.13012022E+03</rscale>
<asrwt>0</asrwt>
<pdfrwt beam="1">  1        1 0.69791495E-02 0.13793485E+03</pdfrwt>
<pdfrwt beam="2">  1       -1 0.54930733E-01 0.13793485E+03</pdfrwt>
<totfact> 0.34730471E+03</totfact>
</mgrwt>
</event>
<event>
 7    1  0.5107591E-006  0.1393980E+03  0.7546771E-02  0.1229472E+00
          1   -1    0    0  501    0  0.00000000000E+00  0.00000000000E+00  0.84314613791E+02  0.84314613791E+02  0.00000000000E+00 0. -1.
         -1   -1    0    0    0  501 -0.00000000000E+00 -0.00000000000E+00 -0.17259582137E+03  0.17259582137E+03  0.00000000000E+00 0.  1.
         23    2    1    2    0    0  0.61619988646E+02 -0.30566791529E+01 -0.47082054578E+02  0.11155162713E+03  0.80129141783E+02 0.  0.
          5    1    1    2  502    0  0.22437731632E+02  0.22380979608E+02  0.21534873720E+02  0.38603119500E+02  0.47000000000E+01 0. -1.
         -5    1    1    2    0  502 -0.84057720277E+02 -0.19324300455E+02 -0.62734026722E+02  0.10675568854E+03  0.47000000000E+01 0. -1.
        -11    1    3    3    0    0  0.57065287007E+02 -0.27489393156E+02 -0.61159597120E+01  0.63635828591E+02  0.00000000000E+00 0. -1.
         11    1    3    3    0    0  0.45547016382E+01  0.24432714003E+02 -0.40966094866E+02  0.47915798534E+02  0.00000000000E+00 0.  1.
<mgrwt>
<rscale>  0 0.12865044E+03</rscale>
<asrwt>0</asrwt>
<pdfrwt beam="1">  1        1 0.12971479E-01 0.13939804E+03</pdfrwt>
<pdfrwt beam="2">  1       -1 0.26553203E-01 0.13939804E+03</pdfrwt>
<totfact> 0.54255885E+03</totfact>
</mgrwt>
</event>
<event>
 7    1  0.5107591E-006  0.1663321E+03  0.7546771E-02  0.1188698E+00
         -1   -1    0    0    0  501 -0.00000000000E+00  0.00000000000E+00  0.54925415663E+02  0.54925415663E+02  0.00000000000E+00 0.  1.
          1   -1    0    0  501    0  0.00000000000E+00 -0.00000000000E+00 -0.43592086283E+03  0.43592086283E+03  0.00000000000E+00 0. -1.
         23    2    1    2    0    0 -0.69419456306E+02 -0.84977851330E+02 -0.19260500383E+03  0.23953503644E+03  0.90774721417E+02 0.  0.
          5    1    1    2  502    0  0.55679531952E+01  0.25242634653E+02 -0.15561062882E+03  0.15781302389E+03  0.47000000000E+01 0. -1.
         -5    1    1    2    0  502  0.63851503110E+02  0.59735216678E+02 -0.32779814512E+02  0.93498218167E+02  0.47000000000E+01 0. -1.
        -11    1    3    3    0    0 -0.53606077439E+02 -0.89428926937E+02 -0.96605132656E+02  0.14213970651E+03  0.00000000000E+00 0.  1.
         11    1    3    3    0    0 -0.15813378866E+02  0.44510756064E+01 -0.95999871176E+02  0.97395329924E+02  0.00000000000E+00 0. -1.
<mgrwt>
<rscale>  0 0.15999874E+03</rscale>
<asrwt>0</asrwt>
<pdfrwt beam="2">  1        1 0.67064749E-01 0.16633214E+03</pdfrwt>
<pdfrwt beam="1">  1       -1 0.84500638E-02 0.16633214E+03</pdfrwt>
<totfact> 0.41808907E+03</totfact>
</mgrwt>
</event>
<event>
 7    1  0.5107591E-006  0.1339995E+03  0.7546771E-02  0.1233358E+00
         -1   -1    0    0    0  501 -0.00000000000E+00  0.00000000000E+00  0.43538626966E+02  0.43538626966E+02  0.00000000000E+00 0.  1.
          1   -1    0    0  501    0  0.00000000000E+00 -0.00000000000E+00 -0.33120507476E+03  0.33120507476E+03  0.00000000000E+00 0. -1.
         23    2    1    2    0    0  0.46603268400E+02  0.12561032220E+02 -0.14420107452E+03  0.17843226311E+03  0.93351371014E+02 0.  0.
          5    1    1    2  502    0  0.26710587619E+02  0.10300977060E+02  0.46721239851E+01  0.29385104422E+02  0.47000000000E+01 0.  1.
         -5    1    1    2    0  502 -0.73313856019E+02 -0.22862009280E+02 -0.14813749726E+03  0.16692633419E+03  0.47000000000E+01 0.  1.
        -11    1    3    3    0    0  0.38243928957E+02 -0.14734641770E+02 -0.11319217626E+02  0.42518613075E+02  0.00000000000E+00 0.  1.
         11    1    3    3    0    0  0.83593394428E+01  0.27295673990E+02 -0.13288185689E+03  0.13591365004E+03  0.00000000000E+00 0. -1.
<mgrwt>
<rscale>  0 0.12610108E+03</rscale>
<asrwt>0</asrwt>
<pdfrwt beam="2">  1        1 0.50954626E-01 0.13399951E+03</pdfrwt>
<pdfrwt beam="1">  1       -1 0.66982504E-02 0.13399951E+03</pdfrwt>
<totfact> 0.82870576E+03</totfact>
</mgrwt>
</event>
<event>
 7    1  0.5107591E-006  0.1517332E+03  0.7546771E-02  0.1206792E+00
         -1   -1    0    0    0  501 -0.00000000000E+00  0.00000000000E+00  0.49572778344E+03  0.49572778344E+03  0.00000000000E+00 0.  1.
          1   -1    0    0  501    0  0.00000000000E+00 -0.00000000000E+00 -0.42118167785E+02  0.42118167785E+02  0.00000000000E+00 0. -1.
         23    2    1    2    0    0  0.85851955806E+02  0.52828470495E+01  0.13508962548E+03  0.18503161129E+03  0.92676984601E+02 0.  0.
          5    1    1    2  502    0 -0.18528765095E+02 -0.31344439468E+02  0.25160124314E+03  0.25426573613E+03  0.47000000000E+01 0. -1.
         -5    1    1    2    0  502 -0.67323190711E+02  0.26061592419E+02  0.66918747028E+02  0.98548603799E+02  0.47000000000E+01 0. -1.
        -11    1    3    3    0    0  0.75638708997E+02  0.43245461583E+02  0.93357159116E+02  0.12769864292E+03  0.00000000000E+00 0.  1.
         11    1    3    3    0    0  0.10213246809E+02 -0.37962614534E+02  0.41732466368E+02  0.57332968367E+02  0.00000000000E+00 0. -1.
<mgrwt>
<rscale>  0 0.14497165E+03</rscale>
<asrwt>0</asrwt>
<pdfrwt beam="2">  1        1 0.64797185E-02 0.15173323E+03</pdfrwt>
<pdfrwt beam="1">  1       -1 0.76265809E-01 0.15173323E+03</pdfrwt>
<totfact> 0.20421421E+03</totfact>
</mgrwt>
</event>
<event>
 7    1  0.5107591E-006  0.1338461E+03  0.7546771E-02  0.1234879E+00
         -2   -1    0    0    0  501 -0.00000000000E+00  0.00000000000E+00  0.39908231080E+02  0.39908231080E+02  0.00000000000E+00 0.  1.
          2   -1    0    0  501    0  0.00000000000E+00 -0.00000000000E+00 -0.43948001148E+03  0.43948001148E+03  0.00000000000E+00 0. -1.
         23    2    1    2    0    0  0.44573476518E+02  0.17341055872E+02 -0.28645270312E+03  0.30414351992E+03  0.90336164165E+02 0.  0.
          5    1    1    2  502    0 -0.44757867002E+02 -0.58708323300E+02 -0.11121236794E+03  0.13356726645E+03  0.47000000000E+01 0.  1.
         -5    1    1    2    0  502  0.18439048393E+00  0.41367267428E+02 -0.19067093388E+01  0.41677456194E+02  0.47000000000E+01 0.  1.
        -11    1    3    3    0    0  0.42964675684E+02 -0.13760595332E+02 -0.25814507773E+03  0.26205762439E+03  0.00000000000E+00 0. -1.
         11    1    3    3    0    0  0.16088008340E+01  0.31101651205E+02 -0.28307625386E+02  0.42085895532E+02  0.00000000000E+00 0.  1.
<mgrwt>
<rscale>  0 0.12512215E+03</rscale>
<asrwt>0</asrwt>
<pdfrwt beam="2">  1        2 0.67612307E-01 0.13384613E+03</pdfrwt>
<pdfrwt beam="1">  1       -2 0.61397281E-02 0.13384613E+03</pdfrwt>
<totfact> 0.97614567E+03</totfact>
</mgrwt>
</event>
<event>
 7    1  0.5107591E-006  0.1318467E+03  0.7546771E-02  0.1238427E+00
          2   -1    0    0  501    0  0.00000000000E+00  0.00000000000E+00  0.18264746068E+03  0.18264746068E+03  0.00000000000E+00 0. -1.
         -2   -1    0    0    0  501 -0.00000000000E+00 -0.00000000000E+00 -0.97661065777E+02  0.97661065777E+02  0.00000000000E+00 0.  1.
         23    2    1    2    0    0  0.41910064204E+02  0.15188722260E+01  0.10760901844E+03  0.14653507135E+03  0.90189056053E+02 0.  0.
          5    1    1    2  502    0 -0.74695597856E+02 -0.37127666777E-01  0.22159023054E+02  0.78054762957E+02  0.47000000000E+01 0. -1.
         -5    1    1    2    0  502  0.32785533652E+02 -0.14817445592E+01 -0.44781646591E+02  0.55718692152E+02  0.47000000000E+01 0. -1.
        -11    1    3    3    0    0  0.59625178509E+02 -0.41177428999E+01  0.30274462449E+02  0.66997468575E+02  0.00000000000E+00 0.  1.
         11    1    3    3    0    0 -0.17715114306E+02  0.56366151259E+01  0.77334555994E+02  0.79537602778E+02  0.00000000000E+00 0. -1.
<mgrwt>
<rscale>  0 0.12287599E+03</rscale>
<asrwt>0</asrwt>
<pdfrwt beam="1">  1        2 0.28099609E-01 0.13184671E+03</pdfrwt>
<pdfrwt beam="2">  1       -2 0.15024779E-01 0.13184671E+03</pdfrwt>
<totfact> 0.61168071E+03</totfact>
</mgrwt>
</event>
<event>
 7    1  0.5107591E-006  0.1793058E+03  0.7546771E-02  0.1174556E+00
          1   -1    0    0  501    0  0.00000000000E+00  0.00000000000E+00  0.72174043338E+03  0.72174043338E+03  0.00000000000E+00 0. -1.
         -1   -1    0    0    0  501 -0.00000000000E+00 -0.00000000000E+00 -0.39810555328E+02  0.39810555328E+02  0.00000000000E+00 0.  1.
         23    2    1    2    0    0  0.66742842371E+02  0.10985898977E+03  0.37325187558E+03  0.40457386503E+03  0.88540640387E+02 0.  0.
          5    1    1    2  502    0 -0.98304826024E+02 -0.83189125971E+02  0.17736986016E+03  0.21924056831E+03  0.47000000000E+01 0.  1.
         -5    1    1    2    0  502  0.31561983653E+02 -0.26669863801E+02  0.13130814231E+03  0.13773655537E+03  0.47000000000E+01 0.  1.
        -11    1    3    3    0    0  0.38093402730E+02  0.64635080221E+02  0.94164603180E+02  0.12039839459E+03  0.00000000000E+00 0.  1.
         11    1    3    3    0    0  0.28649439640E+02  0.45223909550E+02  0.27908727240E+03  0.28417547044E+03  0.00000000000E+00 0. -1.
<mgrwt>
<rscale>  0 0.17319572E+03</rscale>
<asrwt>0</asrwt>
<pdfrwt beam="1">  1        1 0.11103698E+00 0.17930577E+03</pdfrwt>
<pdfrwt beam="2">  1       -1 0.61247013E-02 0.17930577E+03</pdfrwt>
<totfact> 0.34400503E+03</totfact>
</mgrwt>
</event>
<event>
 7    1  0.5107591E-006  0.1552186E+03  0.7546771E-02  0.1202989E+00
         -1   -1    0    0    0  501 -0.00000000000E+00  0.00000000000E+00  0.12135848324E+03  0.12135848324E+03  0.00000000000E+00 0.  1.
          1   -1    0    0  501    0  0.00000000000E+00 -0.00000000000E+00 -0.16880322767E+03  0.16880322767E+03  0.00000000000E+00 0. -1.
         23    2    1    2    0    0  0.87537230473E+02 -0.28368124854E+02 -0.41813154629E+02  0.13484101922E+03  0.89253814133E+02 0.  0.
          5    1    1    2  502    0 -0.75459286727E+02 -0.20386361245E+02  0.39434779760E+02  0.87674965257E+02  0.47000000000E+01 0. -1.
         -5    1    1    2    0  502 -0.12077943746E+02  0.48754486099E+02 -0.45066369562E+02  0.67645726439E+02  0.47000000000E+01 0. -1.
        -11    1    3    3    0    0  0.98613860748E+02 -0.13705312366E+02 -0.53537260719E+02  0.11304321034E+03  0.00000000000E+00 0. -1.
         11    1    3    3    0    0 -0.11076630275E+02 -0.14662812488E+02  0.11724106090E+02  0.21797808879E+02  0.00000000000E+00 0.  1.
<mgrwt>
<rscale>  0 0.14797041E+03</rscale>
<asrwt>0</asrwt>
<pdfrwt beam="2">  1        1 0.25969727E-01 0.15521856E+03</pdfrwt>
<pdfrwt beam="1">  1       -1 0.18670536E-01 0.15521856E+03</pdfrwt>
<totfact> 0.39783595E+03</totfact>
</mgrwt>
</event>
<event>
 7    1  0.5107591E-006  0.1323578E+03  0.7546771E-02  0.1236843E+00
          1   -1    0    0  501    0  0.00000000000E+00  0.00000000000E+00  0.34476019444E+03  0.34476019444E+03  0.00000000000E+00 0. -1.
         -1   -1    0    0    0  501 -0.00000000000E+00 -0.00000000000E+00 -0.40552268168E+02  0.40552268168E+02  0.00000000000E+00 0.  1.
         23    2    1    2    0    0  0.43329746755E+02 -0.40185336581E+01  0.16064770149E+03  0.19004819565E+03  0.91744302883E+02 0.  0.
          5    1    1    2  502    0  0.89845169205E+01 -0.53428037022E+02  0.54705718681E+02  0.77136776836E+02  0.47000000000E+01 0.  1.
         -5    1    1    2    0  502 -0.52314263675E+02  0.57446570680E+02  0.88854506102E+02  0.11812749012E+03  0.47000000000E+01 0.  1.
        -11    1    3    3    0    0  0.69448798258E+02 -0.22525886893E+00  0.84046084396E+02  0.10902720130E+03  0.00000000000E+00 0. -1.
         11    1    3    3    0    0 -0.26119051503E+02 -0.37932747891E+01  0.76601617092E+02  0.81020994354E+02  0.00000000000E+00 0.  1.
<mgrwt>
<rscale>  0 0.12387193E+03</rscale>
<asrwt>0</asrwt>
<pdfrwt beam="1">  1        1 0.53040028E-01 0.13235783E+03</pdfrwt>
<pdfrwt beam="2">  1       -1 0.62388107E-02 0.13235783E+03</pdfrwt>
<totfact> 0.87589016E+03</totfact>
</mgrwt>
</event>
<event>
 7    1  0.5107591E-006  0.1882485E+03  0.7546771E-02  0.1164778E+00
          2   -1    0    0  501    0  0.00000000000E+00  0.00000000000E+00  0.20735965124E+03  0.20735965124E+03  0.00000000000E+00 0. -1.
         -2   -1    0    0    0  501 -0.00000000000E+00 -0.00000000000E+00 -0.15639368193E+03  0.15639368193E+03  0.00000000000E+00 0.  1.
         23    2    1    2    0    0 -0.61836805140E+02 -0.12644415123E+03  0.48291295116E+02  0.17548585946E+03  0.93012492904E+02 0.  0.
          5    1    1    2  502    0  0.67952696281E+02  0.60002750532E+02  0.52498892013E+02  0.10486239872E+03  0.47000000000E+01 0. -1.
         -5    1    1    2    0  502 -0.61158911406E+01  0.66441400699E+02 -0.49824217822E+02  0.83405074982E+02  0.47000000000E+01 0. -1.
        -11    1    3    3    0    0 -0.35929071201E+02 -0.86774675613E+02  0.75806784722E+02  0.12069553055E+03  0.00000000000E+00 0. -1.
         11    1    3    3    0    0 -0.25907733939E+02 -0.39669475617E+02 -0.27515489607E+02  0.54790328909E+02  0.00000000000E+00 0.  1.
<mgrwt>
<rscale>  0 0.18316148E+03</rscale>
<asrwt>0</asrwt>
<pdfrwt beam="1">  1        2 0.31901485E-01 0.18824847E+03</pdfrwt>
<pdfrwt beam="2">  1       -2 0.24060567E-01 0.18824847E+03</pdfrwt>
<totfact> 0.24516586E+03</totfact>
</mgrwt>
</event>
<event>
 7    1  0.5107591E-006  0.1278801E+03  0.7546771E-02  0.1243245E+00
          1   -1    0    0  501    0  0.00000000000E+00  0.00000000000E+00  0.16232342068E+03  0.16232342068E+03  0.00000000000E+00 0. -1.
         -1   -1    0    0    0  501 -0.00000000000E+00 -0.00000000000E+00 -0.79308649460E+02  0.79308649460E+02  0.00000000000E+00 0.  1.
         23    2    1    2    0    0 -0.26420007597E+02 -0.50988001906E+01  0.41048040439E+02  0.10704189055E+03  0.95126285246E+02 0.  0.
          5    1    1    2  502    0  0.29279649614E+02 -0.12768853789E+02  0.83238806094E+02  0.89281186980E+02  0.47000000000E+01 0. -1.
         -5    1    1    2    0  502 -0.28596420168E+01  0.17867653979E+02 -0.41272075309E+02  0.45308992612E+02  0.47000000000E+01 0. -1.
        -11    1    3    3    0    0 -0.54715811635E+02  0.13002120611E+02  0.30450170960E+01  0.56321819150E+02  0.00000000000E+00 0.  1.
         11    1    3    3    0    0  0.28295804038E+02 -0.18100920801E+02  0.38003023343E+02  0.50720071404E+02  0.00000000000E+00 0. -1.
<mgrwt>
<rscale>  0 0.11991010E+03</rscale>
<asrwt>0</asrwt>
<pdfrwt beam="1">  1        1 0.24972834E-01 0.12788006E+03</pdfrwt>
<pdfrwt beam="2">  1       -1 0.12201331E-01 0.12788006E+03</pdfrwt>
<totfact> 0.80487785E+03</totfact>
</mgrwt>
</event>
<event>
 7    1  0.5107591E-006  0.1332969E+03  0.7546771E-02  0.1234701E+00
         -2   -1    0    0    0  501 -0.00000000000E+00  0.00000000000E+00  0.11029647236E+03  0.11029647236E+03  0.00000000000E+00 0.  1.
          2   -1    0    0  501    0  0.00000000000E+00 -0.00000000000E+00 -0.12748462334E+03  0.12748462334E+03  0.00000000000E+00 0. -1.
         23    2    1    2    0    0 -0.39788873524E+02 -0.23566743448E+02 -0.76997616180E+01  0.10414691163E+03  0.92998639884E+02 0.  0.
          5    1    1    2  502    0  0.22647089980E+02 -0.46607722405E+02  0.19624091580E+02  0.55609041015E+02  0.47000000000E+01 0.  1.
         -5    1    1    2    0  502  0.17141783545E+02  0.70174465853E+02 -0.29112480943E+02  0.78025143047E+02  0.47000000000E+01 0.  1.
        -11    1    3    3    0    0  0.16346871714E+02  0.94715390177E+01 -0.29867950581E+02  0.35341544082E+02  0.00000000000E+00 0. -1.
         11    1    3    3    0    0 -0.56135745238E+02 -0.33038282466E+02  0.22168188963E+02  0.68805367549E+02  0.00000000000E+00 0.  1.
<mgrwt>
<rscale>  0 0.12523598E+03</rscale>
<asrwt>0</asrwt>
<pdfrwt beam="2">  1        2 0.19613019E-01 0.13329691E+03</pdfrwt>
<pdfrwt beam="1">  1       -2 0.16968688E-01 0.13329691E+03</pdfrwt>
<totfact> 0.74696529E+03</totfact>
</mgrwt>
</event>
<event>
 7    1  0.5107591E-006  0.1505267E+03  0.7546771E-02  0.1204740E+00
          3   -1    0    0  501    0  0.00000000000E+00  0.00000000000E+00  0.41052972919E+03  0.41052972919E+03  0.00000000000E+00 0. -1.
         -3   -1    0    0    0  501 -0.00000000000E+00 -0.00000000000E+00 -0.50432636749E+02  0.50432636749E+02  0.00000000000E+00 0.  1.
         23    2    1    2    0    0 -0.10122325353E+03  0.15927406912E+01  0.14419496066E+03  0.19776656700E+03  0.89837322222E+02 0.  0.
          5    1    1    2  502    0  0.12530891296E+03 -0.32476611787E+01  0.17214242592E+03  0.21299759570E+03  0.47000000000E+01 0. -1.
         -5    1    1    2    0  502 -0.24085659433E+02  0.16549204875E+01  0.43759705856E+02  0.50198203243E+02  0.47000000000E+01 0.  1.
        -11    1    3    3    0    0 -0.59088689186E+02 -0.43447523200E+02  0.85175933917E+02  0.11240151325E+03  0.00000000000E+00 0. -1.
         11    1    3    3    0    0 -0.42134564345E+02  0.45040263891E+02  0.59019026747E+02  0.85365053752E+02  0.00000000000E+00 0.  1.
<mgrwt>
<rscale>  0 0.14657983E+03</rscale>
<asrwt>0</asrwt>
<pdfrwt beam="1">  1        3 0.63158418E-01 0.15052674E+03</pdfrwt>
<pdfrwt beam="2">  1       -3 0.77588675E-02 0.15052674E+03</pdfrwt>
<totfact> 0.65241615E+02</totfact>
</mgrwt>
</event>
<event>
 7    1  0.5107591E-006  0.1284855E+03  0.7546771E-02  0.1246983E+00
         -3   -1    0    0    0  501 -0.00000000000E+00  0.00000000000E+00  0.38173842997E+03  0.38173842997E+03  0.00000000000E+00 0. -1.
          3   -1    0    0  501    0  0.00000000000E+00 -0.00000000000E+00 -0.34737967788E+02  0.34737967788E+02  0.00000000000E+00 0.  1.
         23    2    1    2    0    0  0.11897370495E+02  0.27251633480E+02  0.82349857426E+02  0.12228519727E+03  0.85369616961E+02 0.  0.
          5    1    1    2  502    0 -0.51483089410E+02 -0.51822110085E+02  0.10632545628E+03  0.12908614271E+03  0.47000000000E+01 0.  1.
         -5    1    1    2    0  502  0.39585718915E+02  0.24570476605E+02  0.15832514848E+03  0.16510505778E+03  0.47000000000E+01 0.  1.
        -11    1    3    3    0    0  0.37765742372E+02  0.24225295031E+02  0.10809641353E+02  0.46151539112E+02  0.00000000000E+00 0.  1.
         11    1    3    3    0    0 -0.25868371877E+02  0.30263384491E+01  0.71540216073E+02  0.76133658153E+02  0.00000000000E+00 0. -1.
<mgrwt>
<rscale>  0 0.11767460E+03</rscale>
<asrwt>0</asrwt>
<pdfrwt beam="2">  1        3 0.53443030E-02 0.12848548E+03</pdfrwt>
<pdfrwt beam="1">  1       -3 0.58728987E-01 0.12848548E+03</pdfrwt>
<totfact> 0.13447557E+03</totfact>
</mgrwt>
</event>
<event>
 7    1  0.5107591E-006  0.1800482E+03  0.7546771E-02  0.1173461E+00
         -3   -1    0    0    0  501 -0.00000000000E+00  0.00000000000E+00  0.43460091531E+02  0.43460091531E+02  0.00000000000E+00 0.  1.
          3   -1    0    0  501    0  0.00000000000E+00 -0.00000000000E+00 -0.80784430874E+03  0.80784430874E+03  0.00000000000E+00 0. -1.
         23    2    1    2    0    0  0.11979051010E+03  0.49418803217E+02 -0.54523447712E+03  0.56767794492E+03  0.90474469805E+02 0.  0.
          5    1    1    2  502    0 -0.13312132535E+03 -0.44223617854E+02 -0.22681478394E+03  0.26672842341E+03  0.47000000000E+01 0. -1.
         -5    1    1    2    0  502  0.13330815257E+02 -0.51951853630E+01  0.76650438501E+01  0.16898031945E+02  0.47000000000E+01 0. -1.
        -11    1    3    3    0    0  0.52018708925E+02 -0.85120286729E+01 -0.94465401817E+02  0.10817630448E+03  0.00000000000E+00 0.  1.
         11    1    3    3    0    0  0.67771801173E+02  0.57930831890E+02 -0.45076907530E+03  0.45950164044E+03  0.00000000000E+00 0. -1.
<mgrwt>
<rscale>  0 0.17427515E+03</rscale>
<asrwt>0</asrwt>
<pdfrwt beam="2">  1        3 0.12428374E+00 0.18004821E+03</pdfrwt>
<pdfrwt beam="1">  1       -3 0.66861680E-02 0.18004821E+03</pdfrwt>
<totfact> 0.18829360E+02</totfact>
</mgrwt>
</event>
<event>
 7    1  0.5107591E-006  0.1426252E+03  0.7546771E-02  0.1226868E+00
          1   -1    0    0  501    0  0.00000000000E+00  0.00000000000E+00  0.58880158194E+02  0.58880158194E+02  0.00000000000E+00 0. -1.
         -1   -1    0    0    0  501 -0.00000000000E+00 -0.00000000000E+00 -0.25163407412E+03  0.25163407412E+03  0.00000000000E+00 0.  1.
         23    2    1    2    0    0 -0.24456362427E+02 -0.31087152683E+02 -0.94402855413E+02  0.13726620215E+03  0.91463579732E+02 0.  0.
          5    1    1    2  502    0  0.54470487233E+02  0.46187463073E+02 -0.25489762988E+01  0.71616359896E+02  0.47000000000E+01 0. -1.
         -5    1    1    2    0  502 -0.30014124806E+02 -0.15100310390E+02 -0.95802084211E+02  0.10163167027E+03  0.47000000000E+01 0.  1.
        -11    1    3    3    0    0 -0.41048366697E+02  0.10626176039E+02 -0.13076028264E+02  0.44371911621E+02  0.00000000000E+00 0.  1.
         11    1    3    3    0    0  0.16592004270E+02 -0.41713328722E+02 -0.81326827149E+02  0.92894290529E+02  0.00000000000E+00 0. -1.
<mgrwt>
<rscale>  0 0.13039666E+03</rscale>
<asrwt>0</asrwt>
<pdfrwt beam="1">  1        1 0.90584858E-02 0.14262520E+03</pdfrwt>
<pdfrwt beam="2">  1       -1 0.38712935E-01 0.14262520E+03</pdfrwt>
<totfact> 0.46038626E+03</totfact>
</mgrwt>
</event>
<event>
 7    1  0.5107591E-006  0.1558965E+03  0.7546771E-02  0.1199089E+00
         -2   -1    0    0    0  501 -0.00000000000E+00  0.00000000000E+00  0.69995372180E+02  0.69995372180E+02  0.00000000000E+00 0.  1.
          2   -1    0    0  501    0  0.00000000000E+00 -0.00000000000E+00 -0.35641596455E+03  0.35641596455E+03  0.00000000000E+00 0. -1.
         23    2    1    2    0    0 -0.22456728717E+02 -0.90410642239E+02 -0.21410502215E+03  0.25455888738E+03  0.10139466328E+03 0.  0.
          5    1    1    2  502    0  0.28963950836E+02  0.11981700097E+03 -0.46241713411E+02  0.13173993407E+03  0.47000000000E+01 0.  1.
         -5    1    1    2    0  502 -0.65072221196E+01 -0.29406358727E+02 -0.26073856808E+02  0.40112515281E+02  0.47000000000E+01 0.  1.
        -11    1    3    3    0    0 -0.38086439696E+02  0.35087384012E+01 -0.35612467440E+02  0.52260271441E+02  0.00000000000E+00 0. -1.
         11    1    3    3    0    0  0.15629710980E+02 -0.93919380641E+02 -0.17849255471E+03  0.20229861594E+03  0.00000000000E+00 0.  1.
<mgrwt>
<rscale>  0 0.15113150E+03</rscale>
<asrwt>0</asrwt>
<pdfrwt beam="2">  1        2 0.54833224E-01 0.15589651E+03</pdfrwt>
<pdfrwt beam="1">  1       -2 0.10768519E-01 0.15589651E+03</pdfrwt>
<totfact> 0.51632730E+03</totfact>
</mgrwt>
</event>
<event>
 7    1  0.5107591E-006  0.1625080E+03  0.7546771E-02  0.1193758E+00
          1   -1    0    0  501    0  0.00000000000E+00  0.00000000000E+00  0.16067840670E+03  0.16067840670E+03  0.00000000000E+00 0. -1.
         -1   -1    0    0    0  501 -0.00000000000E+00 -0.00000000000E+00 -0.13935970954E+03  0.13935970954E+03  0.00000000000E+00 0.  1.
         23    2    1    2    0    0 -0.10358532267E+03 -0.75456365626E+01  0.44045961597E+01  0.13665226591E+03  0.88699411535E+02 0.  0.
          5    1    1    2  502    0  0.11140277584E+02 -0.37985428277E+02 -0.30168841047E+02  0.49992474596E+02  0.47000000000E+01 0. -1.
         -5    1    1    2    0  502  0.92445045090E+02  0.45531064840E+02  0.47082942051E+02  0.11339337573E+03  0.47000000000E+01 0. -1.
        -11    1    3    3    0    0 -0.29419249210E+02  0.38740962913E+02 -0.40852843456E+01  0.48816431452E+02  0.00000000000E+00 0.  1.
         11    1    3    3    0    0 -0.74166073465E+02 -0.46286599476E+02  0.84898805054E+01  0.87835834460E+02  0.00000000000E+00 0. -1.
<mgrwt>
<rscale>  0 0.15559794E+03</rscale>
<asrwt>0</asrwt>
<pdfrwt beam="1">  1        1 0.24719755E-01 0.16250800E+03</pdfrwt>
<pdfrwt beam="2">  1       -1 0.21439955E-01 0.16250800E+03</pdfrwt>
<totfact> 0.33952247E+03</totfact>
</mgrwt>
</event>
<event>
 7    1  0.5107591E-006  0.1267980E+03  0.7546771E-02  0.1247051E+00
          1   -1    0    0  501    0  0.00000000000E+00  0.00000000000E+00  0.80548283556E+01  0.80548283556E+01  0.00000000000E+00 0. -1.
         -1   -1    0    0    0  501 -0.00000000000E+00 -0.00000000000E+00 -0.18426829858E+04  0.18426829858E+04  0.00000000000E+00 0.  1.
         23    2    1    2    0    0  0.15696672900E+02  0.14380999771E+02 -0.41689782285E+03  0.42734853942E+03  0.91486505879E+02 0.  0.
          5    1    1    2  502    0 -0.65342716754E+02 -0.36220828585E+01 -0.10613463381E+04  0.10633724322E+04  0.47000000000E+01 0.  1.
         -5    1    1    2    0  502  0.49646043854E+02 -0.10758916912E+02 -0.35638399644E+03  0.36001684250E+03  0.47000000000E+01 0.  1.
        -11    1    3    3    0    0  0.51860489400E+02 -0.41407289828E+01 -0.26820907059E+03  0.27320827503E+03  0.00000000000E+00 0.  1.
         11    1    3    3    0    0 -0.36163816500E+02  0.18521728754E+02 -0.14868875225E+03  0.15414026439E+03  0.00000000000E+00 0. -1.
<mgrwt>
<rscale>  0 0.11763489E+03</rscale>
<asrwt>0</asrwt>
<pdfrwt beam="1">  1        1 0.12392042E-02 0.12679797E+03</pdfrwt>
<pdfrwt beam="2">  1       -1 0.28348973E+00 0.12679797E+03</pdfrwt>
<totfact> 0.57850955E+02</totfact>
</mgrwt>
</event>
<event>
 7    1  0.5107591E-006  0.1395981E+03  0.7546771E-02  0.1225180E+00
         -3   -1    0    0    0  501 -0.00000000000E+00  0.00000000000E+00  0.20227986044E+03  0.20227986044E+03  0.00000000000E+00 0.  1.
          3   -1    0    0  501    0  0.00000000000E+00 -0.00000000000E+00 -0.15365932011E+03  0.15365932011E+03  0.00000000000E+00 0. -1.
         23    2    1    2    0    0 -0.48265489065E+02 -0.39184018194E+02 -0.10236143461E+03  0.15031041785E+03  0.90831787955E+02 0.  0.
          5    1    1    2  502    0 -0.20666919197E+02 -0.28073782712E+02  0.75093927720E+02  0.82924343864E+02  0.47000000000E+01 0. -1.
         -5    1    1    2    0  502  0.68932408262E+02  0.67257800906E+02  0.75888047211E+02  0.12270441883E+03  0.47000000000E+01 0. -1.
        -11    1    3    3    0    0 -0.51212564261E+02 -0.65446395187E+02 -0.71027401791E+02  0.10931993956E+03  0.00000000000E+00 0.  1.
         11    1    3    3    0    0  0.29470751959E+01  0.26262376994E+02 -0.31334032819E+02  0.40990478288E+02  0.00000000000E+00 0. -1.
<mgrwt>
<rscale>  0 0.13154571E+03</rscale>
<asrwt>0</asrwt>
<pdfrwt beam="2">  1        3 0.23639895E-01 0.13959811E+03</pdfrwt>
<pdfrwt beam="1">  1       -3 0.31119979E-01 0.13959811E+03</pdfrwt>
<totfact> 0.38899249E+02</totfact>
</mgrwt>
</event>
<event>
 7    1  0.5107591E-006  0.1252107E+03  0.7546771E-02  0.1250660E+00
          1   -1    0    0  501    0  0.00000000000E+00  0.00000000000E+00  0.67952919918E+02  0.67952919918E+02  0.00000000000E+00 0. -1.
         -1   -1    0    0    0  501 -0.00000000000E+00 -0.00000000000E+00 -0.18033427985E+03  0.18033427985E+03  0.00000000000E+00 0.  1.
         23    2    1    2    0    0 -0.74984500775E+00 -0.62550106732E+01 -0.20649870682E+02  0.93069972256E+02  0.90531293764E+02 0.  0.
          5    1    1    2  502    0  0.49729297747E+02  0.19578051803E+02 -0.40614965553E+01  0.53804171967E+02  0.47000000000E+01 0.  1.
         -5    1    1    2    0  502 -0.48979452740E+02 -0.13323041129E+02 -0.87669992691E+02  0.10141305554E+03  0.47000000000E+01 0.  1.
        -11    1    3    3    0    0  0.30287151321E+02  0.18808543292E+02 -0.35679802998E+02  0.50439282092E+02  0.00000000000E+00 0.  1.
         11    1    3    3    0    0 -0.31036996329E+02 -0.25063553966E+02  0.15029932316E+02  0.42630690165E+02  0.00000000000E+00 0. -1.
<mgrwt>
<rscale>  0 0.11552954E+03</rscale>
<asrwt>0</asrwt>
<pdfrwt beam="1">  1        1 0.10454295E-01 0.12521071E+03</pdfrwt>
<pdfrwt beam="2">  1       -1 0.27743736E-01 0.12521071E+03</pdfrwt>
<totfact> 0.66472566E+03</totfact>
</mgrwt>
</event>
<event>
 7    1  0.5107591E-006  0.1879588E+03  0.7546771E-02  0.1165421E+00
          1   -1    0    0  501    0  0.00000000000E+00  0.00000000000E+00  0.43750389919E+02  0.43750389919E+02  0.00000000000E+00 0. -1.
         -1   -1    0    0    0  501 -0.00000000000E+00 -0.00000000000E+00 -0.73575125471E+03  0.73575125471E+03  0.00000000000E+00 0.  1.
         23    2    1    2    0    0 -0.84845562805E+02  0.11183035297E+03 -0.26899072360E+03  0.31661280292E+03  0.90459163234E+02 0.  0.
          5    1    1    2  502    0  0.19868667743E+02 -0.59348630585E+02 -0.33741281943E+03  0.34320041466E+03  0.47000000000E+01 0. -1.
         -5    1    1    2    0  502  0.64976895062E+02 -0.52481722389E+02 -0.85597321757E+02  0.11968842705E+03  0.47000000000E+01 0. -1.
        -11    1    3    3    0    0 -0.85049503182E+02  0.55704135214E+02 -0.21901124529E+03  0.24145868018E+03  0.00000000000E+00 0. -1.
         11    1    3    3    0    0  0.20394037674E+00  0.56126217759E+02 -0.49979478307E+02  0.75154122732E+02  0.00000000000E+00 0.  1.
<mgrwt>
<rscale>  0 0.18248344E+03</rscale>
<asrwt>0</asrwt>
<pdfrwt beam="1">  1        1 0.67308291E-02 0.18795877E+03</pdfrwt>
<pdfrwt beam="2">  1       -1 0.11319250E+00 0.18795877E+03</pdfrwt>
<totfact> 0.83177262E+02</totfact>
</mgrwt>
</event>
<event>
 7    1  0.5107591E-006  0.2106837E+03  0.7546771E-02  0.1144569E+00
          1   -1    0    0  501    0  0.00000000000E+00  0.00000000000E+00  0.37508687186E+03  0.37508687186E+03  0.00000000000E+00 0. -1.
         -1   -1    0    0    0  501 -0.00000000000E+00 -0.00000000000E+00 -0.14081453059E+03  0.14081453059E+03  0.00000000000E+00 0.  1.
         23    2    1    2    0    0 -0.88805591518E+01  0.16936246227E+03  0.23602697005E+03  0.30521040438E+03  0.93178068202E+02 0.  0.
          5    1    1    2  502    0  0.18769136013E+02  0.13890924416E+02 -0.12302220918E+02  0.26808075039E+02  0.47000000000E+01 0. -1.
         -5    1    1    2    0  502 -0.98885768610E+01 -0.18325338669E+03  0.10547592138E+02  0.18388292304E+03  0.47000000000E+01 0. -1.
        -11    1    3    3    0    0  0.35700409618E+02  0.71142400044E+02  0.13875204759E+03  0.15996215503E+03  0.00000000000E+00 0. -1.
         11    1    3    3    0    0 -0.44580968770E+02  0.98220062227E+02  0.97274922460E+02  0.14524824935E+03  0.00000000000E+00 0.  1.
<mgrwt>
<rscale>  0 0.20625141E+03</rscale>
<asrwt>0</asrwt>
<pdfrwt beam="1">  1        1 0.57705672E-01 0.21068369E+03</pdfrwt>
<pdfrwt beam="2">  1       -1 0.21663774E-01 0.21068369E+03</pdfrwt>
<totfact> 0.11616487E+03</totfact>
</mgrwt>
</event>
<event>
 7    1  0.5107591E-006  0.1986015E+03  0.7546771E-02  0.1155138E+00
         -2   -1    0    0    0  501 -0.00000000000E+00  0.00000000000E+00  0.42247377086E+02  0.42247377086E+02  0.00000000000E+00 0.  1.
          2   -1    0    0  501    0  0.00000000000E+00 -0.00000000000E+00 -0.95284878998E+03  0.95284878998E+03  0.00000000000E+00 0. -1.
         23    2    1    2    0    0  0.11663800702E+03  0.10113631378E+03 -0.60051475706E+03  0.62686215914E+03  0.92223719642E+02 0.  0.
          5    1    1    2  502    0 -0.78556878606E+02 -0.66831004579E+02 -0.29798007069E+03  0.31535976103E+03  0.47000000000E+01 0. -1.
         -5    1    1    2    0  502 -0.38081128414E+02 -0.34305309202E+02 -0.12106585139E+02  0.52874246893E+02  0.47000000000E+01 0. -1.
        -11    1    3    3    0    0  0.40701526601E+01  0.12763556541E+02 -0.48516740394E+01  0.14248272149E+02  0.00000000000E+00 0.  1.
         11    1    3    3    0    0  0.11256785436E+03  0.88372757241E+02 -0.59566308303E+03  0.61261388699E+03  0.00000000000E+00 0. -1.
<mgrwt>
<rscale>  0 0.19373199E+03</rscale>
<asrwt>0</asrwt>
<pdfrwt beam="2">  1        2 0.14659211E+00 0.19860149E+03</pdfrwt>
<pdfrwt beam="1">  1       -2 0.64995969E-02 0.19860149E+03</pdfrwt>
<totfact> 0.36418490E+03</totfact>
</mgrwt>
</event>
<event>
 7    1  0.5107591E-006  0.1532071E+03  0.7546771E-02  0.1212843E+00
          1   -1    0    0  501    0  0.00000000000E+00  0.00000000000E+00  0.15323668020E+03  0.15323668020E+03  0.00000000000E+00 0. -1.
         -1   -1    0    0    0  501 -0.00000000000E+00 -0.00000000000E+00 -0.19371937999E+03  0.19371937999E+03  0.00000000000E+00 0.  1.
         23    2    1    2    0    0 -0.48330557631E+02  0.29501060989E+02  0.93976802154E+02  0.14311356829E+03  0.91889600523E+02 0.  0.
          5    1    1    2  502    0  0.58625420255E+00  0.36895434023E+02 -0.11328343044E+03  0.11923440090E+03  0.47000000000E+01 0. -1.
         -5    1    1    2    0  502  0.47744303428E+02 -0.66396495012E+02 -0.21176071504E+02  0.84608091008E+02  0.47000000000E+01 0.  1.
        -11    1    3    3    0    0 -0.37627874325E+02  0.60113757078E+02  0.43753235813E+02  0.83329864756E+02  0.00000000000E+00 0. -1.
         11    1    3    3    0    0 -0.10702683306E+02 -0.30612696089E+02  0.50223566341E+02  0.59783703530E+02  0.00000000000E+00 0.  1.
<mgrwt>
<rscale>  0 0.14036187E+03</rscale>
<asrwt>0</asrwt>
<pdfrwt beam="1">  1        1 0.23574874E-01 0.15320706E+03</pdfrwt>
<pdfrwt beam="2">  1       -1 0.29802982E-01 0.15320706E+03</pdfrwt>
<totfact> 0.20868886E+03</totfact>
</mgrwt>
</event>
<event>
 7    1  0.5107591E-006  0.1468884E+03  0.7546771E-02  0.1213936E+00
         -2   -1    0    0    0  501 -0.00000000000E+00  0.00000000000E+00  0.52006199906E+03  0.52006199906E+03  0.00000000000E+00 0.  1.
          2   -1    0    0  501    0  0.00000000000E+00 -0.00000000000E+00 -0.41087470369E+02  0.41087470369E+02  0.00000000000E+00 0. -1.
         23    2    1    2    0    0  0.40721252288E+02  0.65519246970E+02  0.10439984100E+03  0.15880335498E+03  0.91477793165E+02 0.  0.
          5    1    1    2  502    0  0.12997744095E+02  0.24572111147E+02  0.26179370067E+02  0.38473099887E+02  0.47000000000E+01 0. -1.
         -5    1    1    2    0  502 -0.53718996383E+02 -0.90091358117E+02  0.34839531762E+03  0.36387301456E+03  0.47000000000E+01 0. -1.
        -11    1    3    3    0    0  0.56266838391E+02  0.40674051327E+02  0.24379213572E+02  0.73584520168E+02  0.00000000000E+00 0. -1.
         11    1    3    3    0    0 -0.15545586103E+02  0.24845195643E+02  0.80020627424E+02  0.85218834815E+02  0.00000000000E+00 0.  1.
<mgrwt>
<rscale>  0 0.13955017E+03</rscale>
<asrwt>0</asrwt>
<pdfrwt beam="2">  1        2 0.63211497E-02 0.14688839E+03</pdfrwt>
<pdfrwt beam="1">  1       -2 0.80009534E-01 0.14688839E+03</pdfrwt>
<totfact> 0.15937385E+03</totfact>
</mgrwt>
</event>
<event>
 7    1  0.5107591E-006  0.1627296E+03  0.7546771E-02  0.1192882E+00
         -1   -1    0    0    0  501 -0.00000000000E+00  0.00000000000E+00  0.36442104008E+02  0.36442104008E+02  0.00000000000E+00 0.  1.
          1   -1    0    0  501    0  0.00000000000E+00 -0.00000000000E+00 -0.73764141989E+03  0.73764141989E+03  0.00000000000E+00 0. -1.
         23    2    1    2    0    0 -0.98811736882E+02 -0.33024031241E+02 -0.47900424125E+03  0.49867187954E+03  0.91510842662E+02 0.  0.
          5    1    1    2  502    0  0.10145872033E+03 -0.24448692231E+02 -0.13221142520E+03  0.16850389146E+03  0.47000000000E+01 0. -1.
         -5    1    1    2    0  502 -0.26469834501E+01  0.57472723472E+02 -0.89983649431E+02  0.10690775290E+03  0.47000000000E+01 0. -1.
        -11    1    3    3    0    0 -0.19663975578E+02 -0.32645218826E+02 -0.52432185898E+02  0.64819104944E+02  0.00000000000E+00 0.  1.
         11    1    3    3    0    0 -0.79147761304E+02 -0.37881241490E+00 -0.42657205535E+03  0.43385277459E+03  0.00000000000E+00 0. -1.
<mgrwt>
<rscale>  0 0.15634836E+03</rscale>
<asrwt>0</asrwt>
<pdfrwt beam="2">  1        1 0.11348329E+00 0.16272960E+03</pdfrwt>
<pdfrwt beam="1">  1       -1 0.56064776E-02 0.16272960E+03</pdfrwt>
<totfact> 0.37913136E+03</totfact>
</mgrwt>
</event>
<event>
 6    1  0.5107591E-006  0.1593531E+03  0.7546771E-02  0.1209439E+00
         -1   -1    0    0    0  501 -0.00000000000E+00  0.00000000000E+00  0.20760056836E+02  0.20760056836E+02  0.00000000000E+00 0.  1.
          1   -1    0    0  501    0  0.00000000000E+00 -0.00000000000E+00 -0.85294651237E+03  0.85294651237E+03  0.00000000000E+00 0. -1.
          5    1    1    2  502    0  0.10791361889E+02 -0.50583890332E+02 -0.14958472866E+03  0.15834413314E+03  0.47000000000E+01 0.  1.
         -5    1    1    2    0  502  0.87379480631E+02  0.62089601544E+02 -0.28275906464E+03  0.30243192770E+03  0.47000000000E+01 0.  1.
        -11    1    1    2    0    0 -0.53586003533E+02  0.25690935451E+01 -0.16578870028E+03  0.17425255567E+03  0.00000000000E+00 0. -1.
         11    1    1    2    0    0 -0.44584838988E+02 -0.14074804757E+02 -0.23405396196E+03  0.23867795270E+03  0.00000000000E+00 0.  1.
<mgrwt>
<rscale>  0 0.14293058E+03</rscale>
<asrwt>0</asrwt>
<pdfrwt beam="2">  1        1 0.13122257E+00 0.15935314E+03</pdfrwt>
<pdfrwt beam="1">  1       -1 0.31938542E-02 0.15935314E+03</pdfrwt>
<totfact> 0.69850028E+03</totfact>
</mgrwt>
</event>
<event>
 7    1  0.5107591E-006  0.1358166E+03  0.7546771E-02  0.1230887E+00
         -1   -1    0    0    0  501 -0.00000000000E+00  0.00000000000E+00  0.18203998756E+03  0.18203998756E+03  0.00000000000E+00 0.  1.
          1   -1    0    0  501    0  0.00000000000E+00 -0.00000000000E+00 -0.13645153947E+03  0.13645153947E+03  0.00000000000E+00 0. -1.
         23    2    1    2    0    0 -0.41102741711E+02  0.33667864007E+02 -0.80431343218E+02  0.13321570418E+03  0.91947063165E+02 0.  0.
          5    1    1    2  502    0  0.22790234989E+02  0.16389056647E+02  0.12859357168E+03  0.13170570476E+03  0.47000000000E+01 0. -1.
         -5    1    1    2    0  502  0.18312506722E+02 -0.50056920654E+02 -0.25737803723E+01  0.53570118100E+02  0.47000000000E+01 0. -1.
        -11    1    3    3    0    0 -0.24016130270E+02  0.58807995292E+02 -0.21775642079E+02  0.67151570431E+02  0.00000000000E+00 0.  1.
         11    1    3    3    0    0 -0.17086611441E+02 -0.25140131285E+02 -0.58655701139E+02  0.66064133746E+02  0.00000000000E+00 0. -1.
<mgrwt>
<rscale>  0 0.12771440E+03</rscale>
<asrwt>0</asrwt>
<pdfrwt beam="2">  1        1 0.20992544E-01 0.13581658E+03</pdfrwt>
<pdfrwt beam="1">  1       -1 0.28006152E-01 0.13581658E+03</pdfrwt>
<totfact> 0.26687355E+03</totfact>
</mgrwt>
</event>
<event>
 7    1  0.5107591E-006  0.1390577E+03  0.7546771E-02  0.1225319E+00
          3   -1    0    0  501    0  0.00000000000E+00  0.00000000000E+00  0.24900349990E+02  0.24900349990E+02  0.00000000000E+00 0. -1.
         -3   -1    0    0    0  501 -0.00000000000E+00 -0.00000000000E+00 -0.66150313418E+03  0.66150313418E+03  0.00000000000E+00 0.  1.
         23    2    1    2    0    0  0.55897334791E+02 -0.24215786072E+02 -0.20763466158E+03  0.23545925276E+03  0.92833133563E+02 0.  0.
          5    1    1    2  502    0 -0.71944061848E+02  0.15709655313E+02 -0.42551925599E+03  0.43186973559E+03  0.47000000000E+01 0. -1.
         -5    1    1    2    0  502  0.16046727056E+02  0.85061307582E+01 -0.34488666171E+01  0.19074495816E+02  0.47000000000E+01 0. -1.
        -11    1    3    3    0    0 -0.67215359830E+01 -0.14850870361E+02  0.20447920215E+01  0.16428894390E+02  0.00000000000E+00 0. -1.
         11    1    3    3    0    0  0.62618870774E+02 -0.93649157102E+01 -0.20967945360E+03  0.21903035837E+03  0.00000000000E+00 0.  1.
<mgrwt>
<rscale>  0 0.13145040E+03</rscale>
<asrwt>0</asrwt>
<pdfrwt beam="1">  1        3 0.38308240E-02 0.13905772E+03</pdfrwt>
<pdfrwt beam="2">  1       -3 0.10176969E+00 0.13905772E+03</pdfrwt>
<totfact> 0.70191137E+02</totfact>
</mgrwt>
</event>
<event>
 7    1  0.5107591E-006  0.1187092E+03  0.7546771E-02  0.1255317E+00
          1   -1    0    0  501    0  0.00000000000E+00  0.00000000000E+00  0.11689440966E+03  0.11689440966E+03  0.00000000000E+00 0. -1.
         -1   -1    0    0    0  501 -0.00000000000E+00 -0.00000000000E+00 -0.38600205209E+03  0.38600205209E+03  0.00000000000E+00 0.  1.
         23    2    1    2    0    0 -0.37378108927E+02 -0.10872677052E+02  0.85244100660E+02  0.12918930334E+03  0.88926830980E+02 0.  0.
          5    1    1    2  502    0  0.41470910411E+02 -0.40895942091E+02 -0.11804097264E+03  0.13171209402E+03  0.47000000000E+01 0. -1.
         -5    1    1    2    0  502 -0.40928014847E+01  0.51768619143E+02 -0.23631077046E+03  0.24199506438E+03  0.47000000000E+01 0.  1.
        -11    1    3    3    0    0 -0.18997900189E+02 -0.51735810331E+00 -0.16568998325E+02  0.25213480055E+02  0.00000000000E+00 0.  1.
         11    1    3    3    0    0 -0.18380208738E+02 -0.10355318949E+02  0.10181309898E+03  0.10397582329E+03  0.00000000000E+00 0. -1.
<mgrwt>
<rscale>  0 0.11288568E+03</rscale>
<asrwt>0</asrwt>
<pdfrwt beam="1">  1        1 0.17983755E-01 0.11870923E+03</pdfrwt>
<pdfrwt beam="2">  1       -1 0.59384931E-01 0.11870923E+03</pdfrwt>
<totfact> 0.85987469E+02</totfact>
</mgrwt>
</event>
<event>
 7    1  0.5107591E-006  0.1374684E+03  0.7546771E-02  0.1228429E+00
         -1   -1    0    0    0  501 -0.00000000000E+00  0.00000000000E+00  0.65405089705E+02  0.65405089705E+02  0.00000000000E+00 0.  1.
          1   -1    0    0  501    0  0.00000000000E+00 -0.00000000000E+00 -0.25535279700E+03  0.25535279700E+03  0.00000000000E+00 0. -1.
         23    2    1    2    0    0  0.55283468592E+02  0.14673532657E+02 -0.13497192366E+03  0.17270417405E+03  0.91311210136E+02 0.  0.
          5    1    1    2  502    0 -0.18667029473E+02 -0.32817608060E+02  0.33365943346E+02  0.50604639743E+02  0.47000000000E+01 0. -1.
         -5    1    1    2    0  502 -0.36616439119E+02  0.18144075403E+02 -0.88341726984E+02  0.97449072918E+02  0.47000000000E+01 0. -1.
        -11    1    3    3    0    0  0.32632610946E+02  0.45459765326E+01  0.24703974396E+01  0.33040218875E+02  0.00000000000E+00 0.  1.
         11    1    3    3    0    0  0.22650857646E+02  0.10127556125E+02 -0.13744232110E+03  0.13966395517E+03  0.00000000000E+00 0. -1.
<mgrwt>
<rscale>  0 0.12934600E+03</rscale>
<asrwt>0</asrwt>
<pdfrwt beam="2">  1        1 0.39285045E-01 0.13746841E+03</pdfrwt>
<pdfrwt beam="1">  1       -1 0.10062322E-01 0.13746841E+03</pdfrwt>
<totfact> 0.61930508E+03</totfact>
</mgrwt>
</event>
<event>
 7    1  0.5107591E-006  0.3271377E+03  0.7546771E-02  0.1073776E+00
          1   -1    0    0  501    0  0.00000000000E+00  0.00000000000E+00  0.70736149165E+03  0.70736149165E+03  0.00000000000E+00 0. -1.
         -1   -1    0    0    0  501 -0.00000000000E+00 -0.00000000000E+00 -0.17078780507E+03  0.17078780507E+03  0.00000000000E+00 0.  1.
         23    2    1    2    0    0 -0.23123221980E+03 -0.19474668869E+03  0.43191155777E+03  0.53467695305E+03  0.89091178942E+02 0.  0.
          5    1    1    2  502    0  0.47323668527E+02  0.75235447133E+02 -0.19890741424E+02  0.91201061960E+02  0.47000000000E+01 0. -1.
         -5    1    1    2    0  502  0.18390855127E+03  0.11951124155E+03  0.12455287024E+03  0.25227128171E+03  0.47000000000E+01 0. -1.
        -11    1    3    3    0    0 -0.95300153120E+02 -0.13761452971E+03  0.21743988663E+03  0.27440842238E+03  0.00000000000E+00 0.  1.
         11    1    3    3    0    0 -0.13593206668E+03 -0.57132158973E+02  0.21447167114E+03  0.26026853068E+03  0.00000000000E+00 0. -1.
<mgrwt>
<rscale>  0 0.32410373E+03</rscale>
<asrwt>0</asrwt>
<pdfrwt beam="1">  1        1 0.10882484E+00 0.32713772E+03</pdfrwt>
<pdfrwt beam="2">  1       -1 0.26275047E-01 0.32713772E+03</pdfrwt>
<totfact> 0.35625156E+02</totfact>
</mgrwt>
</event>
<event>
 7    1  0.5107591E-006  0.1944789E+03  0.7546771E-02  0.1159347E+00
         -2   -1    0    0    0  501 -0.00000000000E+00  0.00000000000E+00  0.29934434184E+02  0.29934434184E+02  0.00000000000E+00 0.  1.
          2   -1    0    0  501    0  0.00000000000E+00 -0.00000000000E+00 -0.12540704441E+04  0.12540704441E+04  0.00000000000E+00 0. -1.
         23    2    1    2    0    0 -0.14898892416E+03 -0.10061117605E+01 -0.78134375706E+03  0.80038619651E+03  0.89001601597E+02 0.  0.
          5    1    1    2  502    0  0.18255640742E+02 -0.14684430251E+02 -0.24375651136E+03  0.24492494308E+03  0.47000000000E+01 0.  1.
         -5    1    1    2    0  502  0.13073328342E+03  0.15690542011E+02 -0.19903574154E+03  0.23869373874E+03  0.47000000000E+01 0.  1.
        -11    1    3    3    0    0  0.53856508388E+01  0.17164416703E+02 -0.90615634069E+02  0.92384065582E+02  0.00000000000E+00 0.  1.
         11    1    3    3    0    0 -0.15437457500E+03 -0.18170528463E+02 -0.69072812299E+03  0.70800213093E+03  0.00000000000E+00 0. -1.
<mgrwt>
<rscale>  0 0.18902153E+03</rscale>
<asrwt>0</asrwt>
<pdfrwt beam="2">  1        2 0.19293389E+00 0.19447892E+03</pdfrwt>
<pdfrwt beam="1">  1       -2 0.46052983E-02 0.19447892E+03</pdfrwt>
<totfact> 0.41044052E+03</totfact>
</mgrwt>
</event>
<event>
 7    1  0.5107591E-006  0.2069384E+03  0.7546771E-02  0.1148602E+00
         -2   -1    0    0    0  501 -0.00000000000E+00  0.00000000000E+00  0.72926923635E+02  0.72926923635E+02  0.00000000000E+00 0.  1.
          2   -1    0    0  501    0  0.00000000000E+00 -0.00000000000E+00 -0.58051024341E+03  0.58051024341E+03  0.00000000000E+00 0. -1.
         23    2    1    2    0    0 -0.83648124904E+02  0.14213424688E+03 -0.33938152251E+03  0.38676258955E+03  0.84890104942E+02 0.  0.
          5    1    1    2  502    0  0.16375317909E+02 -0.66550992339E+02 -0.14830706984E+03  0.16344498335E+03  0.47000000000E+01 0.  1.
         -5    1    1    2    0  502  0.67272806995E+02 -0.75583254543E+02 -0.19894727428E+02  0.10322959415E+03  0.47000000000E+01 0.  1.
        -11    1    3    3    0    0  0.15297031922E+02  0.39475818380E+02 -0.65502214829E+02  0.77992817426E+02  0.00000000000E+00 0.  1.
         11    1    3    3    0    0 -0.98945156827E+02  0.10265842850E+03 -0.27387930768E+03  0.30876977212E+03  0.00000000000E+00 0. -1.
<mgrwt>
<rscale>  0 0.20135351E+03</rscale>
<asrwt>0</asrwt>
<pdfrwt beam="2">  1        2 0.89309268E-01 0.20693836E+03</pdfrwt>
<pdfrwt beam="1">  1       -2 0.11219527E-01 0.20693836E+03</pdfrwt>
<totfact> 0.28628884E+03</totfact>
</mgrwt>
</event>
<event>
 7    1  0.5107591E-006  0.1513832E+03  0.7546771E-02  0.1222425E+00
          1   -1    0    0  501    0  0.00000000000E+00  0.00000000000E+00  0.20269754872E+03  0.20269754872E+03  0.00000000000E+00 0. -1.
         -1   -1    0    0    0  501 -0.00000000000E+00 -0.00000000000E+00 -0.15904711802E+03  0.15904711802E+03  0.00000000000E+00 0.  1.
         23    2    1    2    0    0  0.11314673830E+00 -0.36639266536E+01  0.15075193700E+03  0.17630568697E+03  0.91346108775E+02 0.  0.
          5    1    1    2  502    0 -0.50935382676E+02  0.47422911618E+02 -0.93822058861E+02  0.11691028391E+03  0.47000000000E+01 0. -1.
         -5    1    1    2    0  502  0.50822235938E+02 -0.43758984964E+02 -0.13279447446E+02  0.68528695853E+02  0.47000000000E+01 0.  1.
        -11    1    3    3    0    0 -0.32278420650E+02 -0.31763328176E+02  0.53990837307E+02  0.70468545959E+02  0.00000000000E+00 0.  1.
         11    1    3    3    0    0  0.32391567388E+02  0.28099401522E+02  0.96761099695E+02  0.10583714101E+03  0.00000000000E+00 0. -1.
<mgrwt>
<rscale>  0 0.13344988E+03</rscale>
<asrwt>0</asrwt>
<pdfrwt beam="1">  1        1 0.31184239E-01 0.15138323E+03</pdfrwt>
<pdfrwt beam="2">  1       -1 0.24468787E-01 0.15138323E+03</pdfrwt>
<totfact> 0.20386686E+03</totfact>
</mgrwt>
</event>
<event>
 7    1  0.5107591E-006  0.1428462E+03  0.7546771E-02  0.1221028E+00
         -3   -1    0    0    0  501 -0.00000000000E+00  0.00000000000E+00  0.36092325448E+02  0.36092325448E+02  0.00000000000E+00 0.  1.
          3   -1    0    0  501    0  0.00000000000E+00 -0.00000000000E+00 -0.46836791362E+03  0.46836791362E+03  0.00000000000E+00 0. -1.
         23    2    1    2    0    0  0.68818529904E+02 -0.66812570721E+01 -0.24063888655E+03  0.26544213477E+03  0.88157948779E+02 0.  0.
          5    1    1    2  502    0  0.26837592285E+02  0.32131665501E+02 -0.74510926717E+02  0.85595960698E+02  0.47000000000E+01 0.  1.
         -5    1    1    2    0  502 -0.95656122189E+02 -0.25450408429E+02 -0.11712577490E+03  0.15342214360E+03  0.47000000000E+01 0.  1.
        -11    1    3    3    0    0  0.15617113739E+02 -0.26154880095E+02 -0.17959293534E+03  0.18215815770E+03  0.00000000000E+00 0. -1.
         11    1    3    3    0    0  0.53201416165E+02  0.19473623023E+02 -0.61045951215E+02  0.83283977062E+02  0.00000000000E+00 0.  1.
<mgrwt>
<rscale>  0 0.13442886E+03</rscale>
<asrwt>0</asrwt>
<pdfrwt beam="2">  1        3 0.72056598E-01 0.14284617E+03</pdfrwt>
<pdfrwt beam="1">  1       -3 0.55526658E-02 0.14284617E+03</pdfrwt>
<totfact> 0.84043191E+02</totfact>
</mgrwt>
</event>
<event>
 7    1  0.5107591E-006  0.1344654E+03  0.7546771E-02  0.1233125E+00
          3   -1    0    0  501    0  0.00000000000E+00  0.00000000000E+00  0.40519469244E+02  0.40519469244E+02  0.00000000000E+00 0. -1.
         -3   -1    0    0    0  501 -0.00000000000E+00 -0.00000000000E+00 -0.35596160476E+03  0.35596160476E+03  0.00000000000E+00 0.  1.
         23    2    1    2    0    0  0.18561132470E+02 -0.45961704246E+02 -0.11829137364E+03  0.15784043719E+03  0.91998699108E+02 0.  0.
          5    1    1    2  502    0  0.36885954373E+01 -0.42585154251E+02 -0.65898325017E+02  0.78687866529E+02  0.47000000000E+01 0. -1.
         -5    1    1    2    0  502 -0.22249727908E+02  0.88546858497E+02 -0.13125243685E+03  0.15995277028E+03  0.47000000000E+01 0. -1.
        -11    1    3    3    0    0 -0.26105822501E+02 -0.33959865357E+02 -0.98732031072E+02  0.10762341931E+03  0.00000000000E+00 0.  1.
         11    1    3    3    0    0  0.44666954972E+02 -0.12001838889E+02 -0.19559342572E+02  0.50217017882E+02  0.00000000000E+00 0. -1.
<mgrwt>
<rscale>  0 0.12625232E+03</rscale>
<asrwt>0</asrwt>
<pdfrwt beam="1">  1        3 0.62337641E-02 0.13446535E+03</pdfrwt>
<pdfrwt beam="2">  1       -3 0.54763327E-01 0.13446535E+03</pdfrwt>
<totfact> 0.12226439E+03</totfact>
</mgrwt>
</event>
<event>
 7    1  0.5107591E-006  0.4039309E+03  0.7546771E-02  0.1042427E+00
          2   -1    0    0  501    0  0.00000000000E+00  0.00000000000E+00  0.34297829940E+03  0.34297829940E+03  0.00000000000E+00 0. -1.
         -2   -1    0    0    0  501 -0.00000000000E+00 -0.00000000000E+00 -0.11892893194E+03  0.11892893194E+03  0.00000000000E+00 0.  1.
         23    2    1    2    0    0  0.71031220731E+02  0.38791068414E+02  0.12133020791E+03  0.17241123451E+03  0.91947991411E+02 0.  0.
          5    1    1    2  502    0  0.92566790915E+02 -0.40875228015E+02  0.68480378808E+02  0.12227447537E+03  0.47000000000E+01 0. -1.
         -5    1    1    2    0  502 -0.16359801165E+03  0.20841596011E+01  0.34238780740E+02  0.16722152147E+03  0.47000000000E+01 0.  1.
        -11    1    3    3    0    0  0.18885310053E+02  0.55497025211E+02  0.29822728186E+02  0.65772105483E+02  0.00000000000E+00 0. -1.
         11    1    3    3    0    0  0.52145910678E+02 -0.16705956798E+02  0.91507479728E+02  0.10663912902E+03  0.00000000000E+00 0.  1.
<mgrwt>
<rscale>  0 0.40393090E+03</rscale>
<asrwt>0</asrwt>
<pdfrwt beam="1">  1        2 0.52765892E-01 0.40393090E+03</pdfrwt>
<pdfrwt beam="2">  1       -2 0.18296759E-01 0.40393090E+03</pdfrwt>
<totfact> 0.23287398E+03</totfact>
</mgrwt>
</event>
<event>
 7    1  0.5107591E-006  0.1627210E+03  0.7546771E-02  0.1192754E+00
         -2   -1    0    0    0  501 -0.00000000000E+00  0.00000000000E+00  0.60502827196E+02  0.60502827196E+02  0.00000000000E+00 0.  1.
          2   -1    0    0  501    0  0.00000000000E+00 -0.00000000000E+00 -0.38089406652E+03  0.38089406652E+03  0.00000000000E+00 0. -1.
         23    2    1    2    0    0  0.71050282542E+02  0.76180055782E+02 -0.17180221916E+03  0.22104080217E+03  0.92149281970E+02 0.  0.
          5    1    1    2  502    0 -0.43467823411E+02 -0.41368214292E+02 -0.16273282062E+03  0.17350746881E+03  0.47000000000E+01 0.  1.
         -5    1    1    2    0  502 -0.27582459132E+02 -0.34811841490E+02  0.14143800467E+02  0.46848622726E+02  0.47000000000E+01 0.  1.
        -11    1    3    3    0    0  0.56115100217E+02  0.40428043323E+02 -0.32438191205E+02  0.76390885634E+02  0.00000000000E+00 0.  1.
         11    1    3    3    0    0  0.14935182325E+02  0.35752012459E+02 -0.13936402796E+03  0.14464991654E+03  0.00000000000E+00 0. -1.
<mgrwt>
<rscale>  0 0.15645815E+03</rscale>
<asrwt>0</asrwt>
<pdfrwt beam="2">  1        2 0.58599087E-01 0.16272096E+03</pdfrwt>
<pdfrwt beam="1">  1       -2 0.93081273E-02 0.16272096E+03</pdfrwt>
<totfact> 0.60663101E+03</totfact>
</mgrwt>
</event>
<event>
 7    1  0.5107591E-006  0.1698113E+03  0.7546771E-02  0.1181044E+00
         -2   -1    0    0    0  501 -0.00000000000E+00  0.00000000000E+00  0.20941550040E+03  0.20941550040E+03  0.00000000000E+00 0.  1.
          2   -1    0    0  501    0  0.00000000000E+00 -0.00000000000E+00 -0.13365152230E+03  0.13365152230E+03  0.00000000000E+00 0. -1.
         23    2    1    2    0    0 -0.68474335773E+01 -0.11446367999E+03  0.41854560663E+01  0.15878636946E+03  0.10975778652E+03 0.  0.
          5    1    1    2  502    0  0.60204855833E+02  0.24664481328E+02  0.26141046031E+02  0.70273790226E+02  0.47000000000E+01 0.  1.
         -5    1    1    2    0  502 -0.53357422256E+02  0.89799198657E+02  0.45437475998E+02  0.11400686301E+03  0.47000000000E+01 0.  1.
        -11    1    3    3    0    0 -0.26703161141E+02 -0.34505128376E+02  0.48500083901E+02  0.65237418998E+02  0.00000000000E+00 0.  1.
         11    1    3    3    0    0  0.19855727563E+02 -0.79958551610E+02 -0.44314627834E+02  0.93548950463E+02  0.00000000000E+00 0. -1.
<mgrwt>
<rscale>  0 0.16697079E+03</rscale>
<asrwt>0</asrwt>
<pdfrwt beam="2">  1        2 0.20561773E-01 0.16981129E+03</pdfrwt>
<pdfrwt beam="1">  1       -2 0.32217770E-01 0.16981129E+03</pdfrwt>
<totfact> 0.23588808E+03</totfact>
</mgrwt>
</event>
<event>
 7    1  0.5107591E-006  0.1305639E+03  0.7546771E-02  0.1230905E+00
          1   -1    0    0  501    0  0.00000000000E+00  0.00000000000E+00  0.82254169883E+02  0.82254169883E+02  0.00000000000E+00 0. -1.
         -1   -1    0    0    0  501 -0.00000000000E+00 -0.00000000000E+00 -0.19694395604E+03  0.19694395604E+03  0.00000000000E+00 0.  1.
         23    2    1    2    0    0  0.36809685473E+02  0.82423469770E+01 -0.28780870391E+02  0.12290582647E+03  0.11337819214E+03 0.  0.
          5    1    1    2  502    0 -0.20087915297E+02 -0.52975301641E+02 -0.91766215841E+02  0.10794922554E+03  0.47000000000E+01 0.  1.
         -5    1    1    2    0  502 -0.16721770176E+02  0.44732954664E+02  0.58573000757E+01  0.48343073909E+02  0.47000000000E+01 0.  1.
        -11    1    3    3    0    0 -0.15167995420E+02 -0.43493484086E+02 -0.13420990970E+02  0.47977851574E+02  0.00000000000E+00 0.  1.
         11    1    3    3    0    0  0.51977680893E+02  0.51735831063E+02 -0.15359879421E+02  0.74927974900E+02  0.00000000000E+00 0. -1.
<mgrwt>
<rscale>  0 0.12770237E+03</rscale>
<asrwt>0</asrwt>
<pdfrwt beam="1">  1        1 0.12654488E-01 0.13056393E+03</pdfrwt>
<pdfrwt beam="2">  1       -1 0.30299070E-01 0.13056393E+03</pdfrwt>
<totfact> 0.44781425E+03</totfact>
</mgrwt>
</event>
<event>
 7    1  0.5107591E-006  0.1319798E+03  0.7546771E-02  0.1236966E+00
          1   -1    0    0  501    0  0.00000000000E+00  0.00000000000E+00  0.63580297299E+02  0.63580297299E+02  0.00000000000E+00 0. -1.
         -1   -1    0    0    0  501 -0.00000000000E+00 -0.00000000000E+00 -0.22367803764E+03  0.22367803764E+03  0.00000000000E+00 0.  1.
         23    2    1    2    0    0 -0.37424316987E+01 -0.42179368665E+02 -0.43073658289E+02  0.11086866658E+03  0.92969975015E+02 0.  0.
          5    1    1    2  502    0 -0.29242757251E+02 -0.29784489429E+02 -0.99851083141E+01  0.43174611176E+02  0.47000000000E+01 0. -1.
         -5    1    1    2    0  502  0.32985188950E+02  0.71963858093E+02 -0.10703897374E+03  0.13321505718E+03  0.47000000000E+01 0. -1.
        -11    1    3    3    0    0  0.52586355788E+01 -0.35250902864E+02 -0.71700722588E+02  0.80070425380E+02  0.00000000000E+00 0.  1.
         11    1    3    3    0    0 -0.90010672775E+01 -0.69284658005E+01  0.28627064299E+02  0.30798241197E+02  0.00000000000E+00 0. -1.
<mgrwt>
<rscale>  0 0.12379417E+03</rscale>
<asrwt>0</asrwt>
<pdfrwt beam="1">  1        1 0.97815844E-02 0.13197984E+03</pdfrwt>
<pdfrwt beam="2">  1       -1 0.34412005E-01 0.13197984E+03</pdfrwt>
<totfact> 0.50692215E+03</totfact>
</mgrwt>
</event>
<event>
 7    1  0.5107591E-006  0.1441667E+03  0.7546771E-02  0.1219461E+00
         -1   -1    0    0    0  501 -0.00000000000E+00  0.00000000000E+00  0.45736496618E+02  0.45736496618E+02  0.00000000000E+00 0.  1.
          1   -1    0    0  501    0  0.00000000000E+00 -0.00000000000E+00 -0.36102978553E+03  0.36102978553E+03  0.00000000000E+00 0. -1.
         23    2    1    2    0    0 -0.53917085542E+02 -0.47451342707E+02 -0.14631316841E+03  0.18464400130E+03  0.86759333372E+02 0.  0.
          5    1    1    2  502    0 -0.23429601442E+02  0.58238538414E+02 -0.98053016544E+02  0.11652106090E+03  0.47000000000E+01 0.  1.
         -5    1    1    2    0  502  0.77346686985E+02 -0.10787195707E+02 -0.70927103962E+02  0.10560121995E+03  0.47000000000E+01 0.  1.
        -11    1    3    3    0    0 -0.39399187410E+02 -0.18078949282E+02 -0.14555268480E+03  0.15187076226E+03  0.00000000000E+00 0. -1.
         11    1    3    3    0    0 -0.14517898132E+02 -0.29372393424E+02 -0.76048360363E+00  0.32773239037E+02  0.00000000000E+00 0.  1.
<mgrwt>
<rscale>  0 0.13553880E+03</rscale>
<asrwt>0</asrwt>
<pdfrwt beam="2">  1        1 0.55543040E-01 0.14416666E+03</pdfrwt>
<pdfrwt beam="1">  1       -1 0.70363845E-02 0.14416666E+03</pdfrwt>
<totfact> 0.69455781E+03</totfact>
</mgrwt>
</event>
<event>
 7    1  0.5107591E-006  0.1343943E+03  0.7546771E-02  0.1231146E+00
          1   -1    0    0  501    0  0.00000000000E+00  0.00000000000E+00  0.87909470989E+02  0.87909470989E+02  0.00000000000E+00 0. -1.
         -1   -1    0    0    0  501 -0.00000000000E+00 -0.00000000000E+00 -0.30906709597E+03  0.30906709597E+03  0.00000000000E+00 0.  1.
         23    2    1    2    0    0 -0.41742827233E+01 -0.49188705702E+02  0.29170513240E+02  0.11285335927E+03  0.97200866508E+02 0.  0.
          5    1    1    2  502    0 -0.43552746847E+02  0.10401229138E+02 -0.27144294098E+02  0.52573092239E+02  0.47000000000E+01 0.  1.
         -5    1    1    2    0  502  0.47727029570E+02  0.38787476564E+02 -0.22318384412E+03  0.23155011546E+03  0.47000000000E+01 0.  1.
        -11    1    3    3    0    0  0.15442675755E+02  0.23688966050E+02 -0.70449379636E+01  0.29142314560E+02  0.00000000000E+00 0.  1.
         11    1    3    3    0    0 -0.19616958478E+02 -0.72877671752E+02  0.36215451203E+02  0.83711044706E+02  0.00000000000E+00 0. -1.
<mgrwt>
<rscale>  0 0.12754408E+03</rscale>
<asrwt>0</asrwt>
<pdfrwt beam="1">  1        1 0.13524534E-01 0.13439427E+03</pdfrwt>
<pdfrwt beam="2">  1       -1 0.47548784E-01 0.13439427E+03</pdfrwt>
<totfact> 0.18781574E+03</totfact>
</mgrwt>
</event>
<event>
 7    1  0.5107591E-006  0.1306253E+03  0.7546771E-02  0.1239974E+00
          1   -1    0    0  501    0  0.00000000000E+00  0.00000000000E+00  0.11126244568E+03  0.11126244568E+03  0.00000000000E+00 0. -1.
         -1   -1    0    0    0  501 -0.00000000000E+00 -0.00000000000E+00 -0.20992827071E+03  0.20992827071E+03  0.00000000000E+00 0.  1.
         23    2    1    2    0    0  0.17260720379E+02  0.33778097394E+02  0.59856054787E+02  0.11578340850E+03  0.91565048235E+02 0.  0.
          5    1    1    2  502    0  0.27369812244E+02 -0.65477259221E+02 -0.62046796521E+02  0.94383648244E+02  0.47000000000E+01 0. -1.
         -5    1    1    2    0  502 -0.44630532623E+02  0.31699161827E+02 -0.96475083295E+02  0.11102365964E+03  0.47000000000E+01 0. -1.
        -11    1    3    3    0    0 -0.33225379284E+02  0.35432555647E+02  0.30630171209E+02  0.57424726525E+02  0.00000000000E+00 0. -1.
         11    1    3    3    0    0  0.50486099663E+02 -0.16544582533E+01  0.29225883577E+02  0.58358681977E+02  0.00000000000E+00 0.  1.
<mgrwt>
<rscale>  0 0.12191337E+03</rscale>
<asrwt>0</asrwt>
<pdfrwt beam="1">  1        1 0.17117300E-01 0.13062533E+03</pdfrwt>
<pdfrwt beam="2">  1       -1 0.32296656E-01 0.13062533E+03</pdfrwt>
<totfact> 0.27196079E+03</totfact>
</mgrwt>
</event>
<event>
 7    1  0.5107591E-006  0.1443503E+03  0.7546771E-02  0.1216290E+00
         -3   -1    0    0    0  501 -0.00000000000E+00  0.00000000000E+00  0.28498853486E+02  0.28498853486E+02  0.00000000000E+00 0.  1.
          3   -1    0    0  501    0  0.00000000000E+00 -0.00000000000E+00 -0.73285039413E+03  0.73285039413E+03  0.00000000000E+00 0. -1.
         23    2    1    2    0    0  0.71884220909E+02 -0.65909446473E+01 -0.47851329178E+03  0.49331955011E+03  0.95804103969E+02 0.  0.
          5    1    1    2  502    0  0.31116807003E+02 -0.18756602729E+02 -0.42007762954E+02  0.55738747496E+02  0.47000000000E+01 0.  1.
         -5    1    1    2    0  502 -0.10300102791E+03  0.25347547376E+02 -0.18383048591E+03  0.21229095002E+03  0.47000000000E+01 0.  1.
        -11    1    3    3    0    0  0.44875102353E+02 -0.51008987301E+02 -0.26551130109E+03  0.27406558085E+03  0.00000000000E+00 0.  1.
         11    1    3    3    0    0  0.27009118556E+02  0.44418042654E+02 -0.21300199069E+03  0.21925396926E+03  0.00000000000E+00 0. -1.
<mgrwt>
<rscale>  0 0.13782178E+03</rscale>
<asrwt>0</asrwt>
<pdfrwt beam="2">  1        3 0.11274622E+00 0.14435028E+03</pdfrwt>
<pdfrwt beam="1">  1       -3 0.43844390E-02 0.14435028E+03</pdfrwt>
<totfact> 0.45202772E+02</totfact>
</mgrwt>
</event>
<event>
 7    1  0.5107591E-006  0.1683598E+03  0.7546771E-02  0.1187465E+00
          4   -1    0    0  501    0  0.00000000000E+00  0.00000000000E+00  0.66417055233E+03  0.66417055233E+03  0.00000000000E+00 0. -1.
         -4   -1    0    0    0  501 -0.00000000000E+00 -0.00000000000E+00 -0.37825013759E+02  0.37825013759E+02  0.00000000000E+00 0.  1.
         23    2    1    2    0    0  0.11077502358E+03  0.21189627018E+02  0.36257335207E+03  0.38907257603E+03  0.84840601405E+02 0.  0.
          5    1    1    2  502    0 -0.99564092714E+02 -0.10080684782E+02  0.79441057717E+02  0.12785773506E+03  0.47000000000E+01 0. -1.
         -5    1    1    2    0  502 -0.11210930864E+02 -0.11108942236E+02  0.18433112878E+03  0.18506525500E+03  0.47000000000E+01 0. -1.
        -11    1    3    3    0    0  0.20828615899E+00 -0.13112367941E+02  0.64671258450E+01  0.14621945590E+02  0.00000000000E+00 0.  1.
         11    1    3    3    0    0  0.11056673742E+03  0.34301994960E+02  0.35610622623E+03  0.37445063044E+03  0.00000000000E+00 0. -1.
<mgrwt>
<rscale>  0 0.16109596E+03</rscale>
<asrwt>0</asrwt>
<pdfrwt beam="1">  1        4 0.10218008E+00 0.16835983E+03</pdfrwt>
<pdfrwt beam="2">  1       -4 0.58192334E-02 0.16835983E+03</pdfrwt>
<totfact> 0.26289327E+02</totfact>
</mgrwt>
</event>
<event>
 7    1  0.5107591E-006  0.2994959E+03  0.7546771E-02  0.1085493E+00
         -2   -1    0    0    0  501 -0.00000000000E+00  0.00000000000E+00  0.24656999298E+03  0.24656999298E+03  0.00000000000E+00 0.  1.
          2   -1    0    0  501    0  0.00000000000E+00 -0.00000000000E+00 -0.90945557126E+02  0.90945557126E+02  0.00000000000E+00 0. -1.
         23    2    1    2    0    0  0.61855448058E+02 -0.10164359642E+02 -0.68479414919E-01  0.11068371324E+03  0.91222086285E+02 0.  0.
          5    1    1    2  502    0  0.24788867142E+02 -0.33715236315E+02 -0.13400354054E+01  0.42131826317E+02  0.47000000000E+01 0. -1.
         -5    1    1    2    0  502 -0.86644315200E+02  0.43879595957E+02  0.15703295067E+03  0.18470001054E+03  0.47000000000E+01 0.  1.
        -11    1    3    3    0    0 -0.11449919024E+02  0.23950790291E+02 -0.11673494661E+02  0.29000197910E+02  0.00000000000E+00 0.  1.
         11    1    3    3    0    0  0.73305367083E+02 -0.34115149933E+02  0.11605015247E+02  0.81683515332E+02  0.00000000000E+00 0. -1.
<mgrwt>
<rscale>  0 0.29949588E+03</rscale>
<asrwt>0</asrwt>
<pdfrwt beam="2">  1        2 0.13991624E-01 0.29949588E+03</pdfrwt>
<pdfrwt beam="1">  1       -2 0.37933845E-01 0.29949588E+03</pdfrwt>
<totfact> 0.27933250E+03</totfact>
</mgrwt>
</event>
<event>
 7    1  0.5107591E-006  0.2188519E+03  0.7546771E-02  0.1138473E+00
          1   -1    0    0  501    0  0.00000000000E+00  0.00000000000E+00  0.93336842286E+02  0.93336842286E+02  0.00000000000E+00 0. -1.
         -1   -1    0    0    0  501 -0.00000000000E+00 -0.00000000000E+00 -0.50819368705E+03  0.50819368705E+03  0.00000000000E+00 0.  1.
         23    2    1    2    0    0  0.14117472740E+03 -0.11109571772E+03 -0.11604101798E+03  0.23114282646E+03  0.87686522445E+02 0.  0.
          5    1    1    2  502    0 -0.11778889733E+03  0.43763394707E+02 -0.26065599932E+03  0.28940127683E+03  0.47000000000E+01 0. -1.
         -5    1    1    2    0  502 -0.23385830064E+02  0.67332323016E+02 -0.38159827460E+02  0.80986426037E+02  0.47000000000E+01 0. -1.
        -11    1    3    3    0    0  0.12332368850E+03 -0.64197019862E+02 -0.11583169754E+03  0.18096124353E+03  0.00000000000E+00 0.  1.
         11    1    3    3    0    0  0.17851038896E+02 -0.46898697861E+02 -0.20932044439E+00  0.50181582934E+02  0.00000000000E+00 0. -1.
<mgrwt>
<rscale>  0 0.21395278E+03</rscale>
<asrwt>0</asrwt>
<pdfrwt beam="1">  1        1 0.14359514E-01 0.21885190E+03</pdfrwt>
<pdfrwt beam="2">  1       -1 0.78183644E-01 0.21885190E+03</pdfrwt>
<totfact> 0.67529071E+02</totfact>
</mgrwt>
</event>
<event>
 7    1  0.5107591E-006  0.1328434E+03  0.7546771E-02  0.1236051E+00
         -2   -1    0    0    0  501 -0.00000000000E+00  0.00000000000E+00  0.14533335740E+03  0.14533335740E+03  0.00000000000E+00 0.  1.
          2   -1    0    0  501    0  0.00000000000E+00 -0.00000000000E+00 -0.10961542411E+03  0.10961542411E+03  0.00000000000E+00 0. -1.
         23    2    1    2    0    0  0.44663377541E+02  0.52813564897E+01 -0.30481436449E+02  0.10652459896E+03  0.91627846184E+02 0.  0.
          5    1    1    2  502    0 -0.30342820079E+02 -0.59643384045E+02  0.83133255635E+01  0.67596015952E+02  0.47000000000E+01 0. -1.
         -5    1    1    2    0  502 -0.14320557463E+02  0.54362027555E+02  0.57886044177E+02  0.80828166603E+02  0.47000000000E+01 0. -1.
        -11    1    3    3    0    0  0.38712874484E+02 -0.34117342230E+02 -0.40316078807E+02  0.65483325374E+02  0.00000000000E+00 0. -1.
         11    1    3    3    0    0  0.59505030577E+01  0.39398698720E+02  0.98346423578E+01  0.41041273588E+02  0.00000000000E+00 0.  1.
<mgrwt>
<rscale>  0 0.12437414E+03</rscale>
<asrwt>0</asrwt>
<pdfrwt beam="2">  1        2 0.16863911E-01 0.13284345E+03</pdfrwt>
<pdfrwt beam="1">  1       -2 0.22358978E-01 0.13284345E+03</pdfrwt>
<totfact> 0.55744187E+03</totfact>
</mgrwt>
</event>
<event>
 7    1  0.5107591E-006  0.1322859E+03  0.7546771E-02  0.1237822E+00
          1   -1    0    0  501    0  0.00000000000E+00  0.00000000000E+00  0.49845455791E+03  0.49845455791E+03  0.00000000000E+00 0. -1.
         -1   -1    0    0    0  501 -0.00000000000E+00 -0.00000000000E+00 -0.29089293426E+02  0.29089293426E+02  0.00000000000E+00 0.  1.
         23    2    1    2    0    0  0.17357663856E+02  0.39676146875E+02  0.27427925434E+03  0.29183614657E+03  0.89798340488E+02 0.  0.
          5    1    1    2  502    0  0.17962593079E+02  0.39076596579E+02  0.44418069661E+02  0.62005564772E+02  0.47000000000E+01 0. -1.
         -5    1    1    2    0  502 -0.35320256934E+02 -0.78752743454E+02  0.15066794048E+03  0.17370214000E+03  0.47000000000E+01 0. -1.
        -11    1    3    3    0    0 -0.36482282972E+02  0.10856252976E+02  0.90590490944E+02  0.98262160820E+02  0.00000000000E+00 0.  1.
         11    1    3    3    0    0  0.53839946828E+02  0.28819893899E+02  0.18368876340E+03  0.19357398575E+03  0.00000000000E+00 0. -1.
<mgrwt>
<rscale>  0 0.12325494E+03</rscale>
<asrwt>0</asrwt>
<pdfrwt beam="1">  1        1 0.76685310E-01 0.13228594E+03</pdfrwt>
<pdfrwt beam="2">  1       -1 0.44752763E-02 0.13228594E+03</pdfrwt>
<totfact> 0.89781696E+03</totfact>
</mgrwt>
</event>
<event>
 7    1  0.5107591E-006  0.1366289E+03  0.7546771E-02  0.1229621E+00
         -1   -1    0    0    0  501 -0.00000000000E+00  0.00000000000E+00  0.10970407352E+03  0.10970407352E+03  0.00000000000E+00 0.  1.
          1   -1    0    0  501    0  0.00000000000E+00 -0.00000000000E+00 -0.13582558779E+03  0.13582558779E+03  0.00000000000E+00 0. -1.
         23    2    1    2    0    0  0.23881365309E+02  0.49713090123E+02 -0.18752891445E+02  0.10870216787E+03  0.91775701708E+02 0.  0.
          5    1    1    2  502    0 -0.40357215638E+02 -0.74167181563E+02 -0.39176628995E+02  0.93200718530E+02  0.47000000000E+01 0. -1.
         -5    1    1    2    0  502  0.16475850330E+02  0.24454091439E+02  0.31808006167E+02  0.43626774904E+02  0.47000000000E+01 0. -1.
        -11    1    3    3    0    0 -0.32269674818E+02  0.36711969868E+02 -0.14133614591E+02  0.50880838297E+02  0.00000000000E+00 0. -1.
         11    1    3    3    0    0  0.56151040126E+02  0.13001120256E+02 -0.46192768540E+01  0.57821329575E+02  0.00000000000E+00 0.  1.
<mgrwt>
<rscale>  0 0.12855127E+03</rscale>
<asrwt>0</asrwt>
<pdfrwt beam="2">  1        1 0.20896244E-01 0.13662894E+03</pdfrwt>
<pdfrwt beam="1">  1       -1 0.16877550E-01 0.13662894E+03</pdfrwt>
<totfact> 0.61002664E+03</totfact>
</mgrwt>
</event>
<event>
 7    1  0.5107591E-006  0.2191982E+03  0.7546771E-02  0.1155414E+00
          1   -1    0    0  501    0  0.00000000000E+00  0.00000000000E+00  0.15350949584E+03  0.15350949584E+03  0.00000000000E+00 0. -1.
         -1   -1    0    0    0  501 -0.00000000000E+00 -0.00000000000E+00 -0.25521653865E+03  0.25521653865E+03  0.00000000000E+00 0.  1.
         23    2    1    2    0    0 -0.32484228919E+02 -0.73275045134E+02  0.50184044770E+02  0.14204503397E+03  0.10599007481E+03 0.  0.
          5    1    1    2  502    0  0.36827505655E+02  0.69033349567E+02  0.30514743360E+02  0.84113661717E+02  0.47000000000E+01 0. -1.
         -5    1    1    2    0  502 -0.43432767352E+01  0.42416955668E+01 -0.18240583095E+03  0.18256733880E+03  0.47000000000E+01 0.  1.
        -11    1    3    3    0    0  0.38552490979E+01  0.23135171043E+02 -0.66486916475E+01  0.24378354854E+02  0.00000000000E+00 0.  1.
         11    1    3    3    0    0 -0.36339478017E+02 -0.96410216176E+02  0.56832736417E+02  0.11766667912E+03  0.00000000000E+00 0. -1.
<mgrwt>
<rscale>  0 0.19341784E+03</rscale>
<asrwt>0</asrwt>
<pdfrwt beam="1">  1        1 0.23616846E-01 0.21919821E+03</pdfrwt>
<pdfrwt beam="2">  1       -1 0.39264083E-01 0.21919821E+03</pdfrwt>
<totfact> 0.13078011E+03</totfact>
</mgrwt>
</event>
<event>
 7    1  0.5107591E-006  0.1282588E+03  0.7546771E-02  0.1244259E+00
         -2   -1    0    0    0  501 -0.00000000000E+00  0.00000000000E+00  0.69673816292E+03  0.69673816292E+03  0.00000000000E+00 0.  1.
          2   -1    0    0  501    0  0.00000000000E+00 -0.00000000000E+00 -0.18193771835E+02  0.18193771835E+02  0.00000000000E+00 0. -1.
         23    2    1    2    0    0  0.87447717957E+01 -0.27362057028E+02  0.25894553858E+03  0.27616830826E+03  0.91602343508E+02 0.  0.
          5    1    1    2  502    0  0.17209043118E+02  0.43547719535E+02  0.53067345888E+02  0.70928049750E+02  0.47000000000E+01 0. -1.
         -5    1    1    2    0  502 -0.25953814914E+02 -0.16185662507E+02  0.36653150661E+03  0.36783557674E+03  0.47000000000E+01 0. -1.
        -11    1    3    3    0    0 -0.23353195972E+02 -0.48113219099E+02  0.18946577323E+03  0.19686932935E+03  0.00000000000E+00 0.  1.
         11    1    3    3    0    0  0.32097967768E+02  0.20751162071E+02  0.69479765359E+02  0.79298978912E+02  0.00000000000E+00 0. -1.
<mgrwt>
<rscale>  0 0.11929825E+03</rscale>
<asrwt>0</asrwt>
<pdfrwt beam="2">  1        2 0.27990424E-02 0.12825881E+03</pdfrwt>
<pdfrwt beam="1">  1       -2 0.10719047E+00 0.12825881E+03</pdfrwt>
<totfact> 0.23876858E+03</totfact>
</mgrwt>
</event>
<event>
 6    1  0.5107591E-006  0.2685940E+03  0.7546771E-02  0.1102087E+00
          2   -1    0    0  501    0  0.00000000000E+00  0.00000000000E+00  0.10962480692E+03  0.10962480692E+03  0.00000000000E+00 0. -1.
         -2   -1    0    0    0  501 -0.00000000000E+00 -0.00000000000E+00 -0.16452197204E+03  0.16452197204E+03  0.00000000000E+00 0.  1.
          5    1    1    2  502    0  0.58674337826E+02 -0.49187325426E+02 -0.27881336196E+02  0.81618195336E+02  0.47000000000E+01 0.  1.
         -5    1    1    2    0  502 -0.49540035562E+02  0.17008884494E+02 -0.14825907991E+02  0.54638949688E+02  0.47000000000E+01 0.  1.
        -11    1    1    2    0    0 -0.56512802895E+02  0.53902030754E+02 -0.28719190387E+02  0.83210081763E+02  0.00000000000E+00 0.  1.
         11    1    1    2    0    0  0.47378500631E+02 -0.21723589822E+02  0.16529269461E+02  0.54679552172E+02  0.00000000000E+00 0. -1.
<mgrwt>
<rscale>  0 0.26859404E+03</rscale>
<asrwt>0</asrwt>
<pdfrwt beam="1">  1        2 0.16865355E-01 0.26859404E+03</pdfrwt>
<pdfrwt beam="2">  1       -2 0.25311073E-01 0.26859404E+03</pdfrwt>
<totfact> 0.46776148E+03</totfact>
</mgrwt>
</event>
<event>
 7    1  0.5107591E-006  0.1269845E+03  0.7546771E-02  0.1246812E+00
          2   -1    0    0  501    0  0.00000000000E+00  0.00000000000E+00  0.76594973310E+02  0.76594973310E+02  0.00000000000E+00 0.  1.
         -2   -1    0    0    0  501 -0.00000000000E+00 -0.00000000000E+00 -0.16412979936E+03  0.16412979936E+03  0.00000000000E+00 0. -1.
         23    2    1    2    0    0 -0.47739968712E+01 -0.21957572069E+02 -0.17082724774E+02  0.95505724249E+02  0.91239234222E+02 0.  0.
          5    1    1    2  502    0  0.58581566445E+02  0.16356982108E+02 -0.65398502674E+01  0.61353161551E+02  0.47000000000E+01 0.  1.
         -5    1    1    2    0  502 -0.53807569574E+02  0.56005899617E+01 -0.63912251005E+02  0.83865886866E+02  0.47000000000E+01 0.  1.
        -11    1    3    3    0    0  0.43900131411E+01 -0.10320389517E+02  0.37399993988E+02  0.39045386481E+02  0.00000000000E+00 0.  1.
         11    1    3    3    0    0 -0.91640100123E+01 -0.11637182552E+02 -0.54482718762E+02  0.56460337769E+02  0.00000000000E+00 0. -1.
<mgrwt>
<rscale>  0 0.11777559E+03</rscale>
<asrwt>0</asrwt>
<pdfrwt beam="1">  1        2 0.11783842E-01 0.12698454E+03</pdfrwt>
<pdfrwt beam="2">  1       -2 0.25250738E-01 0.12698454E+03</pdfrwt>
<totfact> 0.68650127E+03</totfact>
</mgrwt>
</event>
<event>
 7    1  0.5107591E-006  0.1498178E+03  0.7546771E-02  0.1210123E+00
          1   -1    0    0  501    0  0.00000000000E+00  0.00000000000E+00  0.35367530577E+03  0.35367530577E+03  0.00000000000E+00 0. -1.
         -1   -1    0    0    0  501 -0.00000000000E+00 -0.00000000000E+00 -0.53710240071E+02  0.53710240071E+02  0.00000000000E+00 0.  1.
         23    2    1    2    0    0 -0.78679426958E+02 -0.24880222699E+02  0.16750952701E+03  0.20741091995E+03  0.90279401686E+02 0.  0.
          5    1    1    2  502    0  0.50208003988E+02 -0.18948684324E+02 -0.37596532104E+01  0.54001123084E+02  0.47000000000E+01 0.  1.
         -5    1    1    2    0  502  0.28471422970E+02  0.43828907023E+02  0.13621519190E+03  0.14597350280E+03  0.47000000000E+01 0.  1.
        -11    1    3    3    0    0 -0.17135363296E+02 -0.51978549638E+02  0.67583039057E+02  0.86964690915E+02  0.00000000000E+00 0.  1.
         11    1    3    3    0    0 -0.61544063662E+02  0.27098326939E+02  0.99926487954E+02  0.12044622904E+03  0.00000000000E+00 0. -1.
<mgrwt>
<rscale>  0 0.14240935E+03</rscale>
<asrwt>0</asrwt>
<pdfrwt beam="1">  1        1 0.54411584E-01 0.14981783E+03</pdfrwt>
<pdfrwt beam="2">  1       -1 0.82631141E-02 0.14981783E+03</pdfrwt>
<totfact> 0.56058216E+03</totfact>
</mgrwt>
</event>
<event>
 7    1  0.5107591E-006  0.2198657E+03  0.7546771E-02  0.1133983E+00
          1   -1    0    0  501    0  0.00000000000E+00  0.00000000000E+00  0.42570803704E+03  0.42570803704E+03  0.00000000000E+00 0. -1.
         -1   -1    0    0    0  501 -0.00000000000E+00 -0.00000000000E+00 -0.28388531930E+02  0.28388531930E+02  0.00000000000E+00 0.  1.
         23    2    1    2    0    0  0.14287719600E+02 -0.15160661762E+01  0.15425032389E+03  0.18039209374E+03  0.92421359414E+02 0.  0.
          5    1    1    2  502    0 -0.52055236550E+02 -0.38755880416E+02  0.16981391043E+03  0.18185329278E+03  0.47000000000E+01 0.  1.
         -5    1    1    2    0  502  0.37767516951E+02  0.40271946592E+02  0.73255270790E+02  0.91851182450E+02  0.47000000000E+01 0.  1.
        -11    1    3    3    0    0 -0.29530259860E+02  0.27833509986E+02  0.61098624148E+02  0.73346999927E+02  0.00000000000E+00 0. -1.
         11    1    3    3    0    0  0.43817979459E+02 -0.29349576162E+02  0.93151699739E+02  0.10704509381E+03  0.00000000000E+00 0.  1.
<mgrwt>
<rscale>  0 0.21986565E+03</rscale>
<asrwt>0</asrwt>
<pdfrwt beam="1">  1        1 0.65493540E-01 0.21986565E+03</pdfrwt>
<pdfrwt beam="2">  1       -1 0.43674667E-02 0.21986565E+03</pdfrwt>
<totfact> 0.11808587E+04</totfact>
</mgrwt>
</event>
<event>
 7    1  0.5107591E-006  0.2212293E+03  0.7546771E-02  0.1132970E+00
         -2   -1    0    0    0  501 -0.00000000000E+00  0.00000000000E+00  0.39430024918E+03  0.39430024918E+03  0.00000000000E+00 0. -1.
          2   -1    0    0  501    0  0.00000000000E+00 -0.00000000000E+00 -0.31031189550E+02  0.31031189550E+02  0.00000000000E+00 0.  1.
         23    2    1    2    0    0 -0.22781662159E+02  0.45337115093E+01  0.14654854957E+03  0.17407030233E+03  0.91018866724E+02 0.  0.
          5    1    1    2  502    0 -0.42819840645E+02 -0.24476748945E+02  0.13871951154E+03  0.14730187668E+03  0.47000000000E+01 0. -1.
         -5    1    1    2    0  502  0.65601502804E+02  0.19943037436E+02  0.78000998517E+02  0.10395925972E+03  0.47000000000E+01 0. -1.
        -11    1    3    3    0    0 -0.46152516071E+02  0.32294453793E+02  0.10288341104E+03  0.11729442763E+03  0.00000000000E+00 0. -1.
         11    1    3    3    0    0  0.23370853913E+02 -0.27760742284E+02  0.43665138533E+02  0.56775874699E+02  0.00000000000E+00 0.  1.
<mgrwt>
<rscale>  0 0.22122934E+03</rscale>
<asrwt>0</asrwt>
<pdfrwt beam="2">  1        2 0.47740294E-02 0.22122934E+03</pdfrwt>
<pdfrwt beam="1">  1       -2 0.60661573E-01 0.22122934E+03</pdfrwt>
<totfact> 0.42507474E+03</totfact>
</mgrwt>
</event>
<event>
 7    1  0.5107591E-006  0.3295691E+03  0.7546771E-02  0.1071328E+00
          1   -1    0    0  501    0  0.00000000000E+00  0.00000000000E+00  0.35457111395E+03  0.35457111395E+03  0.00000000000E+00 0. -1.
         -1   -1    0    0    0  501 -0.00000000000E+00 -0.00000000000E+00 -0.76582538075E+02  0.76582538075E+02  0.00000000000E+00 0.  1.
         23    2    1    2    0    0  0.87369381834E+01 -0.73517806748E+02  0.13235839104E+03  0.17661660819E+03  0.90517846930E+02 0.  0.
          5    1    1    2  502    0 -0.34424441910E+02 -0.61643480985E+02  0.42649258362E+02  0.82619671916E+02  0.47000000000E+01 0. -1.
         -5    1    1    2    0  502  0.25687503727E+02  0.13516128773E+03  0.10298092647E+03  0.17191737192E+03  0.47000000000E+01 0.  1.
        -11    1    3    3    0    0  0.37308652914E+02 -0.21958871902E+02  0.15952735288E+02  0.46136941822E+02  0.00000000000E+00 0.  1.
         11    1    3    3    0    0 -0.28571714731E+02 -0.51558934845E+02  0.11640565575E+03  0.13047966637E+03  0.00000000000E+00 0. -1.
<mgrwt>
<rscale>  0 0.32956915E+03</rscale>
<asrwt>0</asrwt>
<pdfrwt beam="1">  1        1 0.54549401E-01 0.32956915E+03</pdfrwt>
<pdfrwt beam="2">  1       -1 0.11781929E-01 0.32956915E+03</pdfrwt>
<totfact> 0.33420121E+03</totfact>
</mgrwt>
</event>
<event>
 7    1  0.5107591E-006  0.1275051E+03  0.7546771E-02  0.1245893E+00
          2   -1    0    0  501    0  0.00000000000E+00  0.00000000000E+00  0.90111894615E+02  0.90111894615E+02  0.00000000000E+00 0. -1.
         -2   -1    0    0    0  501 -0.00000000000E+00 -0.00000000000E+00 -0.13698390875E+03  0.13698390875E+03  0.00000000000E+00 0.  1.
         23    2    1    2    0    0 -0.25136513502E+02 -0.11732774219E+01 -0.15820752637E+02  0.95864163919E+02  0.91139567801E+02 0.  0.
          5    1    1    2  502    0  0.10917741720E+02  0.30131401220E+02  0.40939133547E+02  0.52203458500E+02  0.47000000000E+01 0. -1.
         -5    1    1    2    0  502  0.14218771782E+02 -0.28958123798E+02 -0.71990395041E+02  0.79028180942E+02  0.47000000000E+01 0. -1.
        -11    1    3    3    0    0  0.74719942689E+01 -0.37318937841E+02  0.11858800072E+02  0.39864331916E+02  0.00000000000E+00 0. -1.
         11    1    3    3    0    0 -0.32608507771E+02  0.36145660419E+02 -0.27679552709E+02  0.55999832003E+02  0.00000000000E+00 0.  1.
<mgrwt>
<rscale>  0 0.11832072E+03</rscale>
<asrwt>0</asrwt>
<pdfrwt beam="1">  1        2 0.13863368E-01 0.12750515E+03</pdfrwt>
<pdfrwt beam="2">  1       -2 0.21074448E-01 0.12750515E+03</pdfrwt>
<totfact> 0.77276668E+03</totfact>
</mgrwt>
</event>
<event>
 7    1  0.5107591E-006  0.1436488E+03  0.7546771E-02  0.1219150E+00
         -2   -1    0    0    0  501 -0.00000000000E+00  0.00000000000E+00  0.74880380373E+02  0.74880380373E+02  0.00000000000E+00 0.  1.
          2   -1    0    0  501    0  0.00000000000E+00 -0.00000000000E+00 -0.22756620373E+03  0.22756620373E+03  0.00000000000E+00 0. -1.
         23    2    1    2    0    0 -0.16307045126E+02  0.68882387620E+02 -0.89998511267E+02  0.14571536954E+03  0.90125101087E+02 0.  0.
          5    1    1    2  502    0  0.64262987972E+02 -0.55362606129E+02 -0.12520494048E+02  0.85869683542E+02  0.47000000000E+01 0. -1.
         -5    1    1    2    0  502 -0.47955942846E+02 -0.13519781491E+02 -0.50166818046E+02  0.70861531021E+02  0.47000000000E+01 0. -1.
        -11    1    3    3    0    0 -0.29075053163E+02  0.55083898258E+02 -0.94464450445E+01  0.62998649888E+02  0.00000000000E+00 0.  1.
         11    1    3    3    0    0  0.12768008037E+02  0.13798489362E+02 -0.80552066222E+02  0.82716719655E+02  0.00000000000E+00 0. -1.
<mgrwt>
<rscale>  0 0.13576035E+03</rscale>
<asrwt>0</asrwt>
<pdfrwt beam="2">  1        2 0.35010184E-01 0.14364879E+03</pdfrwt>
<pdfrwt beam="1">  1       -2 0.11520059E-01 0.14364879E+03</pdfrwt>
<totfact> 0.74448335E+03</totfact>
</mgrwt>
</event>
<event>
 7    1  0.5107591E-006  0.1926693E+03  0.7546771E-02  0.1160494E+00
          2   -1    0    0  501    0  0.00000000000E+00  0.00000000000E+00  0.18301789893E+04  0.18301789893E+04  0.00000000000E+00 0. -1.
         -2   -1    0    0    0  501 -0.00000000000E+00 -0.00000000000E+00 -0.18358961304E+02  0.18358961304E+02  0.00000000000E+00 0.  1.
         23    2    1    2    0    0 -0.15284398805E+02  0.14581614401E+03  0.83262521307E+03  0.85056803994E+03  0.93302113771E+02 0.  0.
          5    1    1    2  502    0  0.64315815555E+02 -0.54512805344E+02  0.54820376223E+03  0.55466893279E+03  0.47000000000E+01 0.  1.
         -5    1    1    2    0  502 -0.49031416750E+02 -0.91303338665E+02  0.43099105275E+03  0.44330097793E+03  0.47000000000E+01 0.  1.
        -11    1    3    3    0    0  0.33191622076E+02  0.95617698190E+02  0.41580107954E+03  0.42794271314E+03  0.00000000000E+00 0.  1.
         11    1    3    3    0    0 -0.48476020882E+02  0.50198445820E+02  0.41682413352E+03  0.42262532680E+03  0.00000000000E+00 0. -1.
<mgrwt>
<rscale>  0 0.18776407E+03</rscale>
<asrwt>0</asrwt>
<pdfrwt beam="1">  1        2 0.28156586E+00 0.19266929E+03</pdfrwt>
<pdfrwt beam="2">  1       -2 0.28244570E-02 0.19266929E+03</pdfrwt>
<totfact> 0.42179953E+03</totfact>
</mgrwt>
</event>
<event>
 7    1  0.5107591E-006  0.1321077E+03  0.7546771E-02  0.1236456E+00
         -4   -1    0    0    0  501 -0.00000000000E+00  0.00000000000E+00  0.27972005080E+03  0.27972005080E+03  0.00000000000E+00 0.  1.
          4   -1    0    0  501    0  0.00000000000E+00 -0.00000000000E+00 -0.50056287241E+02  0.50056287241E+02  0.00000000000E+00 0. -1.
         23    2    1    2    0    0  0.48636171742E+00 -0.42751893096E+02  0.81655112700E+02  0.13138529724E+03  0.93630005816E+02 0.  0.
          5    1    1    2  502    0  0.58882358792E+02  0.35104920924E+02  0.56587141163E+02  0.89015067236E+02  0.47000000000E+01 0.  1.
         -5    1    1    2    0  502 -0.59368720510E+02  0.76469721721E+01  0.91421509691E+02  0.10937597356E+03  0.47000000000E+01 0.  1.
        -11    1    3    3    0    0 -0.21433067441E+02  0.48939659954E+01  0.75433043572E+02  0.78571441031E+02  0.00000000000E+00 0.  1.
         11    1    3    3    0    0  0.21919429158E+02 -0.47645859092E+02  0.62220691282E+01  0.52813856207E+02  0.00000000000E+00 0. -1.
<mgrwt>
<rscale>  0 0.12411702E+03</rscale>
<asrwt>0</asrwt>
<pdfrwt beam="2">  1        4 0.77009674E-02 0.13210770E+03</pdfrwt>
<pdfrwt beam="1">  1       -4 0.43033853E-01 0.13210770E+03</pdfrwt>
<totfact> 0.10159121E+03</totfact>
</mgrwt>
</event>
<event>
 7    1  0.5107591E-006  0.2635958E+03  0.7546771E-02  0.1121733E+00
         -2   -1    0    0    0  501 -0.00000000000E+00  0.00000000000E+00  0.62138525124E+02  0.62138525124E+02  0.00000000000E+00 0.  1.
          2   -1    0    0  501    0  0.00000000000E+00 -0.00000000000E+00 -0.94028444898E+03  0.94028444898E+03  0.00000000000E+00 0. -1.
         23    2    1    2    0    0  0.11534466898E+03 -0.90046036085E+02 -0.57676707344E+03  0.60203320100E+03  0.91493370427E+02 0.  0.
          5    1    1    2  502    0 -0.24112129677E+02  0.88884804640E+02 -0.29469290121E+03  0.30878455162E+03  0.47000000000E+01 0. -1.
         -5    1    1    2    0  502 -0.91232539301E+02  0.11612314453E+01 -0.66859492051E+01  0.91605221480E+02  0.47000000000E+01 0.  1.
        -11    1    3    3    0    0  0.28170030209E+01 -0.49329958258E+02 -0.22847159850E+03  0.23375339913E+03  0.00000000000E+00 0.  1.
         11    1    3    3    0    0  0.11252766596E+03 -0.40716077827E+02 -0.34829547494E+03  0.36827980187E+03  0.00000000000E+00 0. -1.
<mgrwt>
<rscale>  0 0.23711076E+03</rscale>
<asrwt>0</asrwt>
<pdfrwt beam="2">  1        2 0.14465914E+00 0.26359582E+03</pdfrwt>
<pdfrwt beam="1">  1       -2 0.95597732E-02 0.26359582E+03</pdfrwt>
<totfact> 0.20385623E+03</totfact>
</mgrwt>
</event>
<event>
 7    1  0.5107591E-006  0.1486916E+03  0.7546771E-02  0.1211587E+00
          1   -1    0    0  501    0  0.00000000000E+00  0.00000000000E+00  0.24267930655E+03  0.24267930655E+03  0.00000000000E+00 0. -1.
         -1   -1    0    0    0  501 -0.00000000000E+00 -0.00000000000E+00 -0.82410615961E+02  0.82410615961E+02  0.00000000000E+00 0.  1.
         23    2    1    2    0    0  0.16582261130E+02 -0.78795485368E+02  0.12098442063E+03  0.17129644150E+03  0.90672713299E+02 0.  0.
          5    1    1    2  502    0  0.38460109074E+02  0.79693581792E+02  0.42847190716E+02  0.98428749464E+02  0.47000000000E+01 0.  1.
         -5    1    1    2    0  502 -0.55042370204E+02 -0.89809642442E+00 -0.35629207577E+01  0.55364731547E+02  0.47000000000E+01 0.  1.
        -11    1    3    3    0    0  0.23410486874E+02 -0.10491245594E+02 -0.65365706584E+01  0.26473456249E+02  0.00000000000E+00 0.  1.
         11    1    3    3    0    0 -0.68282257439E+01 -0.68304239774E+02  0.12752099129E+03  0.14482298525E+03  0.00000000000E+00 0. -1.
<mgrwt>
<rscale>  0 0.14130215E+03</rscale>
<asrwt>0</asrwt>
<pdfrwt beam="1">  1        1 0.37335278E-01 0.14869156E+03</pdfrwt>
<pdfrwt beam="2">  1       -1 0.12678556E-01 0.14869156E+03</pdfrwt>
<totfact> 0.46431380E+03</totfact>
</mgrwt>
</event>
<event>
 7    1  0.5107591E-006  0.1551409E+03  0.7546771E-02  0.1202322E+00
         -2   -1    0    0    0  501 -0.00000000000E+00  0.00000000000E+00  0.43664882310E+03  0.43664882310E+03  0.00000000000E+00 0.  1.
          2   -1    0    0  501    0  0.00000000000E+00 -0.00000000000E+00 -0.56367590551E+02  0.56367590551E+02  0.00000000000E+00 0. -1.
         23    2    1    2    0    0 -0.77276670476E+02 -0.49705124420E+02  0.74304397723E+02  0.14995587536E+03  0.92321925026E+02 0.  0.
          5    1    1    2  502    0 -0.66982458487E+01 -0.22342458863E+02  0.78927870606E+01  0.25068666759E+02  0.47000000000E+01 0. -1.
         -5    1    1    2    0  502  0.83974916324E+02  0.72047583283E+02  0.29808404777E+03  0.31799187153E+03  0.47000000000E+01 0. -1.
        -11    1    3    3    0    0  0.43952832541E+01 -0.22391086492E+02  0.57973845041E+02  0.62302856901E+02  0.00000000000E+00 0.  1.
         11    1    3    3    0    0 -0.81671953730E+02 -0.27314037929E+02  0.16330552681E+02  0.87653018459E+02  0.00000000000E+00 0. -1.
<mgrwt>
<rscale>  0 0.14850498E+03</rscale>
<asrwt>0</asrwt>
<pdfrwt beam="2">  1        2 0.86719373E-02 0.15514093E+03</pdfrwt>
<pdfrwt beam="1">  1       -2 0.67176740E-01 0.15514093E+03</pdfrwt>
<totfact> 0.15585335E+03</totfact>
</mgrwt>
</event>
<event>
 7    1  0.5107591E-006  0.1378921E+03  0.7546771E-02  0.1227723E+00
         -1   -1    0    0    0  501 -0.00000000000E+00  0.00000000000E+00  0.18667347225E+02  0.18667347225E+02  0.00000000000E+00 0.  1.
          1   -1    0    0  501    0  0.00000000000E+00 -0.00000000000E+00 -0.81289454328E+03  0.81289454328E+03  0.00000000000E+00 0. -1.
         23    2    1    2    0    0  0.16555207192E+02 -0.55811910307E+02 -0.36378350742E+03  0.37957075163E+03  0.91359022593E+02 0.  0.
          5    1    1    2  502    0  0.36526332221E+02  0.46976909517E+02 -0.94790854859E+02  0.11201963729E+03  0.47000000000E+01 0.  1.
         -5    1    1    2    0  502 -0.53081539413E+02  0.88350007893E+01 -0.33565283378E+03  0.33997150159E+03  0.47000000000E+01 0.  1.
        -11    1    3    3    0    0 -0.24981872737E+02 -0.60460949480E+01 -0.29794073588E+02  0.39348901516E+02  0.00000000000E+00 0.  1.
         11    1    3    3    0    0  0.41537079929E+02 -0.49765815359E+02 -0.33398943383E+03  0.34022185012E+03  0.00000000000E+00 0. -1.
<mgrwt>
<rscale>  0 0.12982018E+03</rscale>
<asrwt>0</asrwt>
<pdfrwt beam="2">  1        1 0.12506067E+00 0.13789206E+03</pdfrwt>
<pdfrwt beam="1">  1       -1 0.28719002E-02 0.13789206E+03</pdfrwt>
<totfact> 0.87164790E+03</totfact>
</mgrwt>
</event>
<event>
 7    1  0.5107591E-006  0.1502631E+03  0.7546771E-02  0.1209311E+00
         -4   -1    0    0    0  501 -0.00000000000E+00  0.00000000000E+00  0.21410519683E+03  0.21410519683E+03  0.00000000000E+00 0.  1.
          4   -1    0    0  501    0  0.00000000000E+00 -0.00000000000E+00 -0.10324296513E+03  0.10324296513E+03  0.00000000000E+00 0. -1.
         23    2    1    2    0    0 -0.82940108664E+02  0.86739998904E+01 -0.11058675087E+02  0.12384438222E+03  0.90889145744E+02 0.  0.
          5    1    1    2  502    0  0.92981352624E+02  0.40869714461E+01  0.14036596081E+03  0.16848420764E+03  0.47000000000E+01 0.  1.
         -5    1    1    2    0  502 -0.10041243961E+02 -0.12760971337E+02 -0.18445054021E+02  0.25019572090E+02  0.47000000000E+01 0.  1.
        -11    1    3    3    0    0 -0.98273464958E+02 -0.92066301438E+01 -0.23515702354E+01  0.98731787363E+02  0.00000000000E+00 0.  1.
         11    1    3    3    0    0  0.15333356294E+02  0.17880630034E+02 -0.87071048511E+01  0.25112594859E+02  0.00000000000E+00 0. -1.
<mgrwt>
<rscale>  0 0.14302890E+03</rscale>
<asrwt>0</asrwt>
<pdfrwt beam="2">  1        4 0.15883533E-01 0.15026312E+03</pdfrwt>
<pdfrwt beam="1">  1       -4 0.32939261E-01 0.15026312E+03</pdfrwt>
<totfact> 0.51229771E+02</totfact>
</mgrwt>
</event>
<event>
 7    1  0.5107591E-006  0.1256704E+03  0.7546771E-02  0.1250624E+00
          2   -1    0    0  501    0  0.00000000000E+00  0.00000000000E+00  0.29118102167E+02  0.29118102167E+02  0.00000000000E+00 0. -1.
         -2   -1    0    0    0  501 -0.00000000000E+00 -0.00000000000E+00 -0.39874049667E+03  0.39874049667E+03  0.00000000000E+00 0.  1.
         23    2    1    2    0    0  0.10917005619E+02  0.70761422093E+01 -0.15637997233E+03  0.18034015686E+03  0.88874201148E+02 0.  0.
          5    1    1    2  502    0 -0.20233796331E+02 -0.43439230478E+02 -0.22657095987E+02  0.53214727821E+02  0.47000000000E+01 0.  1.
         -5    1    1    2    0  502  0.93167907120E+01  0.36363088269E+02 -0.19058532619E+03  0.19430371416E+03  0.47000000000E+01 0.  1.
        -11    1    3    3    0    0 -0.12130599833E+02  0.43836589670E+02 -0.93066425615E+02  0.10358647413E+03  0.00000000000E+00 0. -1.
         11    1    3    3    0    0  0.23047605452E+02 -0.36760447461E+02 -0.63313546716E+02  0.76753682729E+02  0.00000000000E+00 0.  1.
<mgrwt>
<rscale>  0 0.11554992E+03</rscale>
<asrwt>0</asrwt>
<pdfrwt beam="1">  1        2 0.44797077E-02 0.12567040E+03</pdfrwt>
<pdfrwt beam="2">  1       -2 0.61344696E-01 0.12567040E+03</pdfrwt>
<totfact> 0.43391728E+03</totfact>
</mgrwt>
</event>
<event>
 6    1  0.1035575E-005  0.2767753E+03  0.7546771E-02  0.1172840E+00
          2   -1    0    0  501    0  0.00000000000E+00  0.00000000000E+00  0.10473725433E+03  0.10473725433E+03  0.00000000000E+00 0. -1.
         -2   -1    0    0    0  501 -0.00000000000E+00 -0.00000000000E+00 -0.29888740527E+03  0.29888740527E+03  0.00000000000E+00 0.  1.
          5    1    1    2  502    0  0.10133441452E+03 -0.99924845910E+02 -0.39936071159E+02  0.14788718057E+03  0.47000000000E+01 0. -1.
         -5    1    1    2    0  502 -0.69884707149E+02  0.71218830797E+02 -0.17910318184E+03  0.20507567847E+03  0.47000000000E+01 0.  1.
        -11    1    1    2    0    0 -0.41965666428E+01  0.93103246469E+01  0.90736565034E+01  0.13661059950E+02  0.00000000000E+00 0.  1.
         11    1    1    2    0    0 -0.27253140729E+02  0.19395690466E+02  0.15815445554E+02  0.37000740618E+02  0.00000000000E+00 0. -1.
<mgrwt>
<rscale>  0 0.17489222E+03</rscale>
<asrwt>0</asrwt>
<pdfrwt beam="1">  1        2 0.16113424E-01 0.27677533E+03</pdfrwt>
<pdfrwt beam="2">  1       -2 0.45982677E-01 0.27677533E+03</pdfrwt>
<totfact> 0.16217194E+03</totfact>
</mgrwt>
</event>
<event>
 7    1  0.5107591E-006  0.1399847E+03  0.7546771E-02  0.1231144E+00
          2   -1    0    0  501    0  0.00000000000E+00  0.00000000000E+00  0.62435257381E+02  0.62435257381E+02  0.00000000000E+00 0. -1.
         -2   -1    0    0    0  501 -0.00000000000E+00 -0.00000000000E+00 -0.22803993446E+03  0.22803993446E+03  0.00000000000E+00 0.  1.
         23    2    1    2    0    0  0.24105363123E+02 -0.58227347846E+02 -0.87119872383E+02  0.12998972856E+03  0.73047688519E+02 0.  0.
          5    1    1    2  502    0  0.49117269497E+02  0.29148079965E+02 -0.51574843302E+02  0.77098451282E+02  0.47000000000E+01 0. -1.
         -5    1    1    2    0  502 -0.73222632619E+02  0.29079267881E+02 -0.26909961396E+02  0.83387012001E+02  0.47000000000E+01 0. -1.
        -11    1    3    3    0    0  0.41387136401E+02 -0.10475890915E+02 -0.56047012844E+02  0.70454999814E+02  0.00000000000E+00 0.  1.
         11    1    3    3    0    0 -0.17281773279E+02 -0.47751456931E+02 -0.31072859538E+02  0.59534728744E+02  0.00000000000E+00 0. -1.
<mgrwt>
<rscale>  0 0.12754526E+03</rscale>
<asrwt>0</asrwt>
<pdfrwt beam="1">  1        2 0.96054240E-02 0.13998471E+03</pdfrwt>
<pdfrwt beam="2">  1       -2 0.35083067E-01 0.13998471E+03</pdfrwt>
<totfact> 0.49133041E+03</totfact>
</mgrwt>
</event>
<event>
 7    1  0.5107591E-006  0.1669490E+03  0.7546771E-02  0.1188110E+00
         -2   -1    0    0    0  501 -0.00000000000E+00  0.00000000000E+00  0.51331982353E+02  0.51331982353E+02  0.00000000000E+00 0.  1.
          2   -1    0    0  501    0  0.00000000000E+00 -0.00000000000E+00 -0.56728634352E+03  0.56728634352E+03  0.00000000000E+00 0. -1.
         23    2    1    2    0    0 -0.82118656650E+02  0.74184102443E+02 -0.37110806026E+03  0.39759246994E+03  0.90065670132E+02 0.  0.
          5    1    1    2  502    0  0.38369513293E+02 -0.10633846508E+02  0.15529374345E+02  0.42994763745E+02  0.47000000000E+01 0. -1.
         -5    1    1    2    0  502  0.43749143357E+02 -0.63550255935E+02 -0.16037567525E+03  0.17803109219E+03  0.47000000000E+01 0. -1.
        -11    1    3    3    0    0 -0.31828060575E+02  0.59268850075E+02 -0.94178056650E+02  0.11573818896E+03  0.00000000000E+00 0.  1.
         11    1    3    3    0    0 -0.50290596074E+02  0.14915252369E+02 -0.27693000361E+03  0.28185428098E+03  0.00000000000E+00 0. -1.
<mgrwt>
<rscale>  0 0.16052082E+03</rscale>
<asrwt>0</asrwt>
<pdfrwt beam="2">  1        2 0.87274821E-01 0.16694903E+03</pdfrwt>
<pdfrwt beam="1">  1       -2 0.78972282E-02 0.16694903E+03</pdfrwt>
<totfact> 0.50708705E+03</totfact>
</mgrwt>
</event>
<event>
 7    1  0.5107591E-006  0.1286850E+03  0.7546771E-02  0.1243504E+00
          2   -1    0    0  501    0  0.00000000000E+00  0.00000000000E+00  0.99770206668E+02  0.99770206668E+02  0.00000000000E+00 0. -1.
         -2   -1    0    0    0  501 -0.00000000000E+00 -0.00000000000E+00 -0.15207321216E+03  0.15207321216E+03  0.00000000000E+00 0.  1.
         23    2    1    2    0    0  0.26231023949E+02 -0.15712419057E+02  0.27587904588E+02  0.10037599170E+03  0.91538519217E+02 0.  0.
          5    1    1    2  502    0 -0.52072977130E+02 -0.23918993693E+01 -0.10062322347E+03  0.11342151133E+03  0.47000000000E+01 0. -1.
         -5    1    1    2    0  502  0.25841953181E+02  0.18104318427E+02  0.20732313397E+02  0.38045915795E+02  0.47000000000E+01 0. -1.
        -11    1    3    3    0    0  0.59341761981E+02 -0.46222702612E+01  0.72372463044E+01  0.59959885186E+02  0.00000000000E+00 0.  1.
         11    1    3    3    0    0 -0.33110738032E+02 -0.11090148796E+02  0.20350658284E+02  0.40416106516E+02  0.00000000000E+00 0. -1.
<mgrwt>
<rscale>  0 0.11975382E+03</rscale>
<asrwt>0</asrwt>
<pdfrwt beam="1">  1        2 0.15349263E-01 0.12868498E+03</pdfrwt>
<pdfrwt beam="2">  1       -2 0.23395879E-01 0.12868498E+03</pdfrwt>
<totfact> 0.57372564E+03</totfact>
</mgrwt>
</event>
<event>
 7    1  0.5107591E-006  0.1417605E+03  0.7546771E-02  0.1221546E+00
         -1   -1    0    0    0  501 -0.00000000000E+00  0.00000000000E+00  0.20179362548E+02  0.20179362548E+02  0.00000000000E+00 0.  1.
          1   -1    0    0  501    0  0.00000000000E+00 -0.00000000000E+00 -0.83734070912E+03  0.83734070912E+03  0.00000000000E+00 0. -1.
         23    2    1    2    0    0 -0.53383582671E+02  0.40338903852E+02 -0.44652448240E+03  0.46069802986E+03  0.91550681460E+02 0.  0.
          5    1    1    2  502    0  0.32415749542E+01 -0.72224260809E+02 -0.12910789671E+03  0.14804658270E+03  0.47000000000E+01 0. -1.
         -5    1    1    2    0  502  0.50142007717E+02  0.31885356956E+02 -0.24152896747E+03  0.24877545911E+03  0.47000000000E+01 0. -1.
        -11    1    3    3    0    0  0.10738778004E+02 -0.15739289679E+02 -0.29906557701E+02  0.35460524336E+02  0.00000000000E+00 0.  1.
         11    1    3    3    0    0 -0.64122360675E+02  0.56078193531E+02 -0.41661792470E+03  0.42523750553E+03  0.00000000000E+00 0. -1.
<mgrwt>
<rscale>  0 0.13406504E+03</rscale>
<asrwt>0</asrwt>
<pdfrwt beam="2">  1        1 0.12882165E+00 0.14176053E+03</pdfrwt>
<pdfrwt beam="1">  1       -1 0.31045173E-02 0.14176053E+03</pdfrwt>
<totfact> 0.74479482E+03</totfact>
</mgrwt>
</event>
<event>
 7    1  0.5107591E-006  0.2105622E+03  0.7546771E-02  0.1172845E+00
         -1   -1    0    0    0  501 -0.00000000000E+00  0.00000000000E+00  0.10578385344E+03  0.10578385344E+03  0.00000000000E+00 0.  1.
          1   -1    0    0  501    0  0.00000000000E+00 -0.00000000000E+00 -0.23405750689E+03  0.23405750689E+03  0.00000000000E+00 0. -1.
         23    2    1    2    0    0 -0.43040516886E+02 -0.24966504208E+01 -0.67014023088E+02  0.12054886767E+03  0.90456789955E+02 0.  0.
          5    1    1    2  502    0  0.34287910541E+02 -0.72667217853E+02  0.42315355400E+02  0.90933297875E+02  0.47000000000E+01 0. -1.
         -5    1    1    2    0  502  0.87526063443E+01  0.75163868274E+02 -0.10357498576E+03  0.12835919479E+03  0.47000000000E+01 0.  1.
        -11    1    3    3    0    0 -0.62511960494E+02  0.19029727685E+02 -0.26054183981E+02  0.70346970393E+02  0.00000000000E+00 0.  1.
         11    1    3    3    0    0  0.19471443608E+02 -0.21526378106E+02 -0.40959839108E+02  0.50201897278E+02  0.00000000000E+00 0. -1.
<mgrwt>
<rscale>  0 0.17488731E+03</rscale>
<asrwt>0</asrwt>
<pdfrwt beam="2">  1        1 0.36008846E-01 0.21056224E+03</pdfrwt>
<pdfrwt beam="1">  1       -1 0.16274439E-01 0.21056224E+03</pdfrwt>
<totfact> 0.33347041E+03</totfact>
</mgrwt>
</event>
<event>
 7    1  0.5107591E-006  0.1554544E+03  0.7546771E-02  0.1202385E+00
         -1   -1    0    0    0  501 -0.00000000000E+00  0.00000000000E+00  0.86757122787E+03  0.86757122787E+03  0.00000000000E+00 0.  1.
          1   -1    0    0  501    0  0.00000000000E+00 -0.00000000000E+00 -0.23448588090E+02  0.23448588090E+02  0.00000000000E+00 0. -1.
         23    2    1    2    0    0 -0.85004655548E+02  0.36282591218E+02  0.35673989231E+03  0.37944574915E+03  0.90407454851E+02 0.  0.
          5    1    1    2  502    0  0.42079860814E+02 -0.72295916009E+02  0.39198427500E+03  0.40083809201E+03  0.47000000000E+01 0. -1.
         -5    1    1    2    0  502  0.42924794734E+02  0.36013324791E+02  0.95398472469E+02  0.11073597480E+03  0.47000000000E+01 0. -1.
        -11    1    3    3    0    0 -0.10120391777E+03  0.43906968274E+02  0.28779855619E+03  0.30821755917E+03  0.00000000000E+00 0. -1.
         11    1    3    3    0    0  0.16199262222E+02 -0.76243770562E+01  0.68941336116E+02  0.71228189978E+02  0.00000000000E+00 0.  1.
<mgrwt>
<rscale>  0 0.14845438E+03</rscale>
<asrwt>0</asrwt>
<pdfrwt beam="2">  1        1 0.36074758E-02 0.15545444E+03</pdfrwt>
<pdfrwt beam="1">  1       -1 0.13347247E+00 0.15545444E+03</pdfrwt>
<totfact> 0.13169822E+03</totfact>
</mgrwt>
</event>
<event>
 7    1  0.5107591E-006  0.2163456E+03  0.7546771E-02  0.1139580E+00
          2   -1    0    0  501    0  0.00000000000E+00  0.00000000000E+00  0.69593393185E+03  0.69593393185E+03  0.00000000000E+00 0.  1.
         -2   -1    0    0    0  501 -0.00000000000E+00 -0.00000000000E+00 -0.63833413818E+02  0.63833413818E+02  0.00000000000E+00 0. -1.
         23    2    1    2    0    0  0.88151325250E+02  0.15299708994E+03  0.35533691881E+03  0.40847900964E+03  0.97015513031E+02 0.  0.
          5    1    1    2  502    0 -0.14471588013E+01 -0.32110527469E+02 -0.47687838955E+01  0.32833086099E+02  0.47000000000E+01 0.  1.
         -5    1    1    2    0  502 -0.86704166449E+02 -0.12088656247E+03  0.28153238311E+03  0.31845524993E+03  0.47000000000E+01 0.  1.
        -11    1    3    3    0    0  0.82443820711E+02  0.46170491433E+02  0.16608995402E+03  0.19108786115E+03  0.00000000000E+00 0.  1.
         11    1    3    3    0    0  0.57075045389E+01  0.10682659851E+03  0.18924696480E+03  0.21739114849E+03  0.00000000000E+00 0. -1.
<mgrwt>
<rscale>  0 0.21252715E+03</rscale>
<asrwt>0</asrwt>
<pdfrwt beam="1">  1        2 0.10706675E+00 0.21634557E+03</pdfrwt>
<pdfrwt beam="2">  1       -2 0.98205257E-02 0.21634557E+03</pdfrwt>
<totfact> 0.28636711E+03</totfact>
</mgrwt>
</event>
<event>
 7    1  0.5107591E-006  0.1805514E+03  0.7546771E-02  0.1172871E+00
          2   -1    0    0  501    0  0.00000000000E+00  0.00000000000E+00  0.35878176548E+03  0.35878176548E+03  0.00000000000E+00 0. -1.
         -2   -1    0    0    0  501 -0.00000000000E+00 -0.00000000000E+00 -0.91626171300E+02  0.91626171300E+02  0.00000000000E+00 0.  1.
         23    2    1    2    0    0 -0.60831000266E+02  0.11520114238E+03  0.20525533882E+03  0.25954033017E+03  0.90882974595E+02 0.  0.
          5    1    1    2  502    0  0.71009734998E+02 -0.77418125512E+02  0.93219510296E+02  0.14052727750E+03  0.47000000000E+01 0.  1.
         -5    1    1    2    0  502 -0.10178734731E+02 -0.37783016871E+02 -0.31319254939E+02  0.50340329106E+02  0.47000000000E+01 0.  1.
        -11    1    3    3    0    0 -0.60686076477E+02  0.79225691909E+02  0.76194606036E+02  0.12555926141E+03  0.00000000000E+00 0.  1.
         11    1    3    3    0    0 -0.14492378987E+00  0.35975450475E+02  0.12906073279E+03  0.13398106876E+03  0.00000000000E+00 0. -1.
<mgrwt>
<rscale>  0 0.17486116E+03</rscale>
<asrwt>0</asrwt>
<pdfrwt beam="1">  1        2 0.55197194E-01 0.18055138E+03</pdfrwt>
<pdfrwt beam="2">  1       -2 0.14096334E-01 0.18055138E+03</pdfrwt>
<totfact> 0.33467759E+03</totfact>
</mgrwt>
</event>
<event>
 6    1  0.5107591E-006  0.1280224E+03  0.7546771E-02  0.1273951E+00
         -3   -1    0    0    0  501 -0.00000000000E+00  0.00000000000E+00  0.47566648787E+02  0.47566648787E+02  0.00000000000E+00 0.  1.
          3   -1    0    0  501    0  0.00000000000E+00 -0.00000000000E+00 -0.17716081440E+03  0.17716081440E+03  0.00000000000E+00 0. -1.
          5    1    1    2  502    0 -0.15160237290E+02  0.70383542891E+02 -0.30328993761E+02  0.78266300328E+02  0.47000000000E+01 0.  1.
         -5    1    1    2    0  502  0.27817656173E+02 -0.45770381788E+02 -0.46176878556E+02  0.70874141667E+02  0.47000000000E+01 0.  1.
        -11    1    1    2    0    0 -0.15527182071E+02 -0.55379235667E+01  0.25667643023E+01  0.16683832278E+02  0.00000000000E+00 0.  1.
         11    1    1    2    0    0  0.28697631888E+01 -0.19075237536E+02 -0.55655057603E+02  0.58903188918E+02  0.00000000000E+00 0. -1.
<mgrwt>
<rscale>  0 0.10307919E+03</rscale>
<asrwt>0</asrwt>
<pdfrwt beam="2">  1        3 0.27255510E-01 0.12802235E+03</pdfrwt>
<pdfrwt beam="1">  1       -3 0.73179459E-02 0.12802235E+03</pdfrwt>
<totfact> 0.35718055E+03</totfact>
</mgrwt>
</event>
<event>
 7    1  0.5107591E-006  0.1655419E+03  0.7546771E-02  0.1189452E+00
          1   -1    0    0  501    0  0.00000000000E+00  0.00000000000E+00  0.69196957942E+03  0.69196957942E+03  0.00000000000E+00 0. -1.
         -1   -1    0    0    0  501 -0.00000000000E+00 -0.00000000000E+00 -0.34604349256E+02  0.34604349256E+02  0.00000000000E+00 0.  1.
         23    2    1    2    0    0  0.14402140347E+01 -0.10852241791E+03  0.34372218294E+03  0.37192468967E+03  0.91672494959E+02 0.  0.
          5    1    1    2  502    0 -0.47799004896E+01  0.60461253510E+02  0.31728256209E+02  0.68608912444E+02  0.47000000000E+01 0. -1.
         -5    1    1    2    0  502  0.33396864549E+01  0.48061164403E+02  0.28191479102E+03  0.28604032657E+03  0.47000000000E+01 0. -1.
        -11    1    3    3    0    0  0.39773719206E+02 -0.41538431464E+02  0.20789250259E+03  0.21570044660E+03  0.00000000000E+00 0. -1.
         11    1    3    3    0    0 -0.38333505171E+02 -0.66983986449E+02  0.13582968035E+03  0.15622424307E+03  0.00000000000E+00 0.  1.
<mgrwt>
<rscale>  0 0.15933246E+03</rscale>
<asrwt>0</asrwt>
<pdfrwt beam="1">  1        1 0.10645685E+00 0.16554190E+03</pdfrwt>
<pdfrwt beam="2">  1       -1 0.53237466E-02 0.16554190E+03</pdfrwt>
<totfact> 0.44960661E+03</totfact>
</mgrwt>
</event>
<event>
 7    1  0.5107591E-006  0.1559966E+03  0.7546771E-02  0.1201780E+00
          1   -1    0    0  501    0  0.00000000000E+00  0.00000000000E+00  0.36150842934E+03  0.36150842934E+03  0.00000000000E+00 0. -1.
         -1   -1    0    0    0  501 -0.00000000000E+00 -0.00000000000E+00 -0.56560018523E+02  0.56560018523E+02  0.00000000000E+00 0.  1.
         23    2    1    2    0    0  0.72079283605E+02  0.59261605317E+02  0.14882731923E+03  0.19736786561E+03  0.89984123232E+02 0.  0.
          5    1    1    2  502    0 -0.40561472427E+01 -0.75115402007E+02  0.40565818008E+02  0.85594693409E+02  0.47000000000E+01 0. -1.
         -5    1    1    2    0  502 -0.68023136363E+02  0.15853796690E+02  0.11555527357E+03  0.13510588884E+03  0.47000000000E+01 0. -1.
        -11    1    3    3    0    0  0.62549798586E+02  0.10430715400E+02  0.12912630089E+03  0.14385714688E+03  0.00000000000E+00 0. -1.
         11    1    3    3    0    0  0.95294850194E+01  0.48830889918E+02  0.19701018344E+02  0.53510718727E+02  0.00000000000E+00 0.  1.
<mgrwt>
<rscale>  0 0.14894113E+03</rscale>
<asrwt>0</asrwt>
<pdfrwt beam="1">  1        1 0.55616680E-01 0.15599664E+03</pdfrwt>
<pdfrwt beam="2">  1       -1 0.87015415E-02 0.15599664E+03</pdfrwt>
<totfact> 0.50537476E+03</totfact>
</mgrwt>
</event>
<event>
 7    1  0.5107591E-006  0.1281404E+03  0.7546771E-02  0.1245202E+00
         -1   -1    0    0    0  501 -0.00000000000E+00  0.00000000000E+00  0.73026013760E+02  0.73026013760E+02  0.00000000000E+00 0.  1.
          1   -1    0    0  501    0  0.00000000000E+00 -0.00000000000E+00 -0.17056691830E+03  0.17056691830E+03  0.00000000000E+00 0. -1.
         23    2    1    2    0    0  0.89547907780E+01  0.26728465283E+02 -0.50360956456E+02  0.10704293756E+03  0.90151901880E+02 0.  0.
          5    1    1    2  502    0 -0.10176767987E+02  0.71410238076E+00 -0.87123794623E+02  0.87844875425E+02  0.47000000000E+01 0.  1.
         -5    1    1    2    0  502  0.12219772086E+01 -0.27442567663E+02  0.39943846536E+02  0.48705119077E+02  0.47000000000E+01 0.  1.
        -11    1    3    3    0    0  0.44854511515E+02  0.21685935502E+02 -0.66634257094E+01  0.50265378184E+02  0.00000000000E+00 0.  1.
         11    1    3    3    0    0 -0.35899720737E+02  0.50425297809E+01 -0.43697530747E+02  0.56777559378E+02  0.00000000000E+00 0. -1.
<mgrwt>
<rscale>  0 0.11873316E+03</rscale>
<asrwt>0</asrwt>
<pdfrwt beam="2">  1        1 0.26241064E-01 0.12814037E+03</pdfrwt>
<pdfrwt beam="1">  1       -1 0.11234771E-01 0.12814037E+03</pdfrwt>
<totfact> 0.85902486E+03</totfact>
</mgrwt>
</event>
<event>
 7    1  0.5107591E-006  0.1544194E+03  0.7546771E-02  0.1210373E+00
         -1   -1    0    0    0  501 -0.00000000000E+00  0.00000000000E+00  0.18601646846E+03  0.18601646846E+03  0.00000000000E+00 0.  1.
          1   -1    0    0  501    0  0.00000000000E+00 -0.00000000000E+00 -0.11532039795E+03  0.11532039795E+03  0.00000000000E+00 0. -1.
         23    2    1    2    0    0  0.60948882824E+01 -0.63971613527E+02 -0.32318646494E+02  0.11570986579E+03  0.90635330471E+02 0.  0.
          5    1    1    2  502    0  0.15493820186E+02 -0.15859467739E+02 -0.24623968732E+02  0.33466565659E+02  0.47000000000E+01 0. -1.
         -5    1    1    2    0  502 -0.21588708468E+02  0.79831081266E+02  0.12763868574E+03  0.15216043496E+03  0.47000000000E+01 0.  1.
        -11    1    3    3    0    0  0.47228711622E+02 -0.45852620191E+02 -0.23573419362E+02  0.69919382722E+02  0.00000000000E+00 0. -1.
         11    1    3    3    0    0 -0.41133823339E+02 -0.18118993336E+02 -0.87452271317E+01  0.45790483068E+02  0.00000000000E+00 0.  1.
<mgrwt>
<rscale>  0 0.14221965E+03</rscale>
<asrwt>0</asrwt>
<pdfrwt beam="2">  1        1 0.17741600E-01 0.15441940E+03</pdfrwt>
<pdfrwt beam="1">  1       -1 0.28617918E-01 0.15441940E+03</pdfrwt>
<totfact> 0.32103066E+03</totfact>
</mgrwt>
</event>
<event>
 7    1  0.5107591E-006  0.1768667E+03  0.7546771E-02  0.1176746E+00
         -1   -1    0    0    0  501 -0.00000000000E+00  0.00000000000E+00  0.11200624349E+03  0.11200624349E+03  0.00000000000E+00 0.  1.
          1   -1    0    0  501    0  0.00000000000E+00 -0.00000000000E+00 -0.24579410371E+03  0.24579410371E+03  0.00000000000E+00 0. -1.
         23    2    1    2    0    0 -0.12450579931E+03  0.12505990440E+02 -0.68911743626E+02  0.16941048948E+03  0.91065864491E+02 0.  0.
          5    1    1    2  502    0  0.13506047167E+03 -0.42834150928E+02 -0.64943498467E+02  0.15593538241E+03  0.47000000000E+01 0.  1.
         -5    1    1    2    0  502 -0.10554672358E+02  0.30328160488E+02  0.67381874779E-01  0.32454475307E+02  0.47000000000E+01 0.  1.
        -11    1    3    3    0    0 -0.57126315954E+02 -0.22775831566E+01  0.16609825686E+02  0.59535616809E+02  0.00000000000E+00 0.  1.
         11    1    3    3    0    0 -0.67379483358E+02  0.14783573597E+02 -0.85521569312E+02  0.10987487267E+03  0.00000000000E+00 0. -1.
<mgrwt>
<rscale>  0 0.17106068E+03</rscale>
<asrwt>0</asrwt>
<pdfrwt beam="2">  1        1 0.37814477E-01 0.17686670E+03</pdfrwt>
<pdfrwt beam="1">  1       -1 0.17231730E-01 0.17686670E+03</pdfrwt>
<totfact> 0.28437858E+03</totfact>
</mgrwt>
</event>
<event>
 7    1  0.5107591E-006  0.1285886E+03  0.7546771E-02  0.1239384E+00
         -3   -1    0    0    0  501 -0.00000000000E+00  0.00000000000E+00  0.14113885369E+03  0.14113885369E+03  0.00000000000E+00 0.  1.
          3   -1    0    0  501    0  0.00000000000E+00 -0.00000000000E+00 -0.97088539226E+02  0.97088539226E+02  0.00000000000E+00 0. -1.
         23    2    1    2    0    0 -0.35087592361E+01 -0.44456305779E+02  0.13041824102E+02  0.10595283404E+03  0.95222052852E+02 0.  0.
          5    1    1    2  502    0  0.15253917051E+02 -0.37686691976E+02 -0.58741806781E+01  0.41346883028E+02  0.47000000000E+01 0. -1.
         -5    1    1    2    0  502 -0.11745157815E+02  0.82142997755E+02  0.36882671036E+02  0.90927675848E+02  0.47000000000E+01 0.  1.
        -11    1    3    3    0    0 -0.29728708958E+02 -0.62486416276E+02  0.22486596389E+02  0.72759847254E+02  0.00000000000E+00 0.  1.
         11    1    3    3    0    0  0.26219949722E+02  0.18030110496E+02 -0.94447722873E+01  0.33192986782E+02  0.00000000000E+00 0. -1.
<mgrwt>
<rscale>  0 0.12227882E+03</rscale>
<asrwt>0</asrwt>
<pdfrwt beam="2">  1        3 0.14936698E-01 0.12858862E+03</pdfrwt>
<pdfrwt beam="1">  1       -3 0.21713670E-01 0.12858862E+03</pdfrwt>
<totfact> 0.16484562E+03</totfact>
</mgrwt>
</event>
<event>
 7    1  0.5107591E-006  0.1271258E+03  0.7546771E-02  0.1247537E+00
          1   -1    0    0  501    0  0.00000000000E+00  0.00000000000E+00  0.16964625285E+03  0.16964625285E+03  0.00000000000E+00 0. -1.
         -1   -1    0    0    0  501 -0.00000000000E+00 -0.00000000000E+00 -0.71391852244E+02  0.71391852244E+02  0.00000000000E+00 0.  1.
         23    2    1    2    0    0  0.13199394829E+02 -0.11784911638E+02  0.50704389832E+02  0.10531052134E+03  0.90588424159E+02 0.  0.
          5    1    1    2  502    0  0.46724125622E+02 -0.11398704458E+02 -0.99942481772E+01  0.49346219461E+02  0.47000000000E+01 0.  1.
         -5    1    1    2    0  502 -0.59923520450E+02  0.23183616096E+02  0.57544258955E+02  0.86381364293E+02  0.47000000000E+01 0.  1.
        -11    1    3    3    0    0  0.27056217353E+02  0.72569117346E+00  0.72042157806E+02  0.76958677396E+02  0.00000000000E+00 0. -1.
         11    1    3    3    0    0 -0.13856822525E+02 -0.12510602811E+02 -0.21337767974E+02  0.28351843949E+02  0.00000000000E+00 0.  1.
<mgrwt>
<rscale>  0 0.11734815E+03</rscale>
<asrwt>0</asrwt>
<pdfrwt beam="1">  1        1 0.26099423E-01 0.12712582E+03</pdfrwt>
<pdfrwt beam="2">  1       -1 0.10983362E-01 0.12712582E+03</pdfrwt>
<totfact> 0.89483127E+03</totfact>
</mgrwt>
</event>
<event>
 7    1  0.5107591E-006  0.1384502E+03  0.7546771E-02  0.1225662E+00
          4   -1    0    0  501    0  0.00000000000E+00  0.00000000000E+00  0.42037015670E+03  0.42037015670E+03  0.00000000000E+00 0. -1.
         -4   -1    0    0    0  501 -0.00000000000E+00 -0.00000000000E+00 -0.43877143600E+02  0.43877143600E+02  0.00000000000E+00 0.  1.
         23    2    1    2    0    0  0.47126302985E+02  0.36350003591E+02  0.26118267807E+03  0.28406701423E+03  0.94527594154E+02 0.  0.
          5    1    1    2  502    0 -0.66046261409E+02  0.13835884808E+02  0.19700656582E+02  0.70453858831E+02  0.47000000000E+01 0.  1.
         -5    1    1    2    0  502  0.18919958424E+02 -0.50185888399E+02  0.95609678450E+02  0.10972642724E+03  0.47000000000E+01 0.  1.
        -11    1    3    3    0    0  0.59542151300E+02 -0.11008427441E+02  0.11602065780E+03  0.13087110564E+03  0.00000000000E+00 0. -1.
         11    1    3    3    0    0 -0.12415848315E+02  0.47358431032E+02  0.14516202027E+03  0.15319590858E+03  0.00000000000E+00 0.  1.
<mgrwt>
<rscale>  0 0.13121605E+03</rscale>
<asrwt>0</asrwt>
<pdfrwt beam="1">  1        4 0.64672329E-01 0.13845022E+03</pdfrwt>
<pdfrwt beam="2">  1       -4 0.67503301E-02 0.13845022E+03</pdfrwt>
<totfact> 0.55123111E+02</totfact>
</mgrwt>
</event>
<event>
 7    1  0.5107591E-006  0.1895195E+03  0.7546771E-02  0.1163879E+00
         -4   -1    0    0    0  501 -0.00000000000E+00  0.00000000000E+00  0.69982219843E+02  0.69982219843E+02  0.00000000000E+00 0.  1.
          4   -1    0    0  501    0  0.00000000000E+00 -0.00000000000E+00 -0.50233011281E+03  0.50233011281E+03  0.00000000000E+00 0. -1.
         23    2    1    2    0    0  0.13618727397E+03 -0.41753892080E+02 -0.28898158768E+03  0.33467494608E+03  0.90590288786E+02 0.  0.
          5    1    1    2  502    0 -0.79281174469E+02  0.39876343483E+02 -0.62423468264E+01  0.89088070406E+02  0.47000000000E+01 0.  1.
         -5    1    1    2    0  502 -0.56906099501E+02  0.18775485963E+01 -0.13712395846E+03  0.14854931617E+03  0.47000000000E+01 0.  1.
        -11    1    3    3    0    0  0.18659902576E+02 -0.24904759090E+02 -0.12061225828E+02  0.33375322589E+02  0.00000000000E+00 0.  1.
         11    1    3    3    0    0  0.11752737139E+03 -0.16849132990E+02 -0.27692036185E+03  0.30129962349E+03  0.00000000000E+00 0. -1.
<mgrwt>
<rscale>  0 0.18411543E+03</rscale>
<asrwt>0</asrwt>
<pdfrwt beam="2">  1        4 0.77281554E-01 0.18951947E+03</pdfrwt>
<pdfrwt beam="1">  1       -4 0.10766496E-01 0.18951947E+03</pdfrwt>
<totfact> 0.18118634E+02</totfact>
</mgrwt>
</event>
<event>
 7    1  0.5107591E-006  0.1537292E+03  0.7546771E-02  0.1204215E+00
          1   -1    0    0  501    0  0.00000000000E+00  0.00000000000E+00  0.22750178738E+03  0.22750178738E+03  0.00000000000E+00 0. -1.
         -1   -1    0    0    0  501 -0.00000000000E+00 -0.00000000000E+00 -0.88112559486E+02  0.88112559486E+02  0.00000000000E+00 0.  1.
         23    2    1    2    0    0 -0.97435734934E+00 -0.89481756389E+02  0.76204595301E+02  0.14940671585E+03  0.92234984137E+02 0.  0.
          5    1    1    2  502    0 -0.13775454021E+02  0.56061394995E+02  0.99086487541E+02  0.11477310293E+03  0.47000000000E+01 0. -1.
         -5    1    1    2    0  502  0.14749811370E+02  0.33420361394E+02 -0.35901854945E+02  0.51434528088E+02  0.47000000000E+01 0. -1.
        -11    1    3    3    0    0 -0.27758571539E+02 -0.49176617099E+02 -0.30424275951E+01  0.56552049731E+02  0.00000000000E+00 0.  1.
         11    1    3    3    0    0  0.26784214189E+02 -0.40305139290E+02  0.79247022896E+02  0.92854666123E+02  0.00000000000E+00 0. -1.
<mgrwt>
<rscale>  0 0.14699512E+03</rscale>
<asrwt>0</asrwt>
<pdfrwt beam="1">  1        1 0.35000275E-01 0.15372924E+03</pdfrwt>
<pdfrwt beam="2">  1       -1 0.13555778E-01 0.15372924E+03</pdfrwt>
<totfact> 0.45417628E+03</totfact>
</mgrwt>
</event>
<event>
 7    1  0.5107591E-006  0.1388672E+03  0.7546771E-02  0.1222803E+00
         -2   -1    0    0    0  501 -0.00000000000E+00  0.00000000000E+00  0.25242930691E+03  0.25242930691E+03  0.00000000000E+00 0.  1.
          2   -1    0    0  501    0  0.00000000000E+00 -0.00000000000E+00 -0.91765690729E+02  0.91765690729E+02  0.00000000000E+00 0. -1.
         23    2    1    2    0    0 -0.57575197895E+02  0.18563380470E+02 -0.16973750028E+02  0.11871961830E+03  0.10073101346E+03 0.  0.
          5    1    1    2  502    0  0.91663616388E+02 -0.22562294021E+02  0.16180180307E+03  0.18738513591E+03  0.47000000000E+01 0.  1.
         -5    1    1    2    0  502 -0.34088418494E+02  0.39989135512E+01  0.15835563138E+02  0.38090243434E+02  0.47000000000E+01 0.  1.
        -11    1    3    3    0    0  0.19540473762E+01  0.45301942013E+02  0.12615447537E+02  0.47066269959E+02  0.00000000000E+00 0.  1.
         11    1    3    3    0    0 -0.59529245271E+02 -0.26738561543E+02 -0.29589197565E+02  0.71653348341E+02  0.00000000000E+00 0. -1.
<mgrwt>
<rscale>  0 0.13318622E+03</rscale>
<asrwt>0</asrwt>
<pdfrwt beam="2">  1        2 0.14117799E-01 0.13886725E+03</pdfrwt>
<pdfrwt beam="1">  1       -2 0.38835278E-01 0.13886725E+03</pdfrwt>
<totfact> 0.25526537E+03</totfact>
</mgrwt>
</event>
<event>
 7    1  0.5107591E-006  0.1524457E+03  0.7546771E-02  0.1206175E+00
         -1   -1    0    0    0  501 -0.00000000000E+00  0.00000000000E+00  0.22468671501E+03  0.22468671501E+03  0.00000000000E+00 0.  1.
          1   -1    0    0  501    0  0.00000000000E+00 -0.00000000000E+00 -0.14297540790E+03  0.14297540790E+03  0.00000000000E+00 0. -1.
         23    2    1    2    0    0 -0.60751770404E+02 -0.62656057126E+02 -0.76710744209E+02  0.14780481426E+03  0.91351878685E+02 0.  0.
          5    1    1    2  502    0  0.13913809828E+02  0.36859420605E+02 -0.11781722547E+02  0.41389732754E+02  0.47000000000E+01 0.  1.
         -5    1    1    2    0  502  0.46837960575E+02  0.25796636521E+02  0.17020377387E+03  0.17846757589E+03  0.47000000000E+01 0.  1.
        -11    1    3    3    0    0 -0.20872865814E+01 -0.15313254101E+02  0.19942134738E+02  0.25229769209E+02  0.00000000000E+00 0.  1.
         11    1    3    3    0    0 -0.58664483822E+02 -0.47342803025E+02 -0.96652878947E+02  0.12257504505E+03  0.00000000000E+00 0. -1.
<mgrwt>
<rscale>  0 0.14545255E+03</rscale>
<asrwt>0</asrwt>
<pdfrwt beam="2">  1        1 0.21996217E-01 0.15244569E+03</pdfrwt>
<pdfrwt beam="1">  1       -1 0.34567187E-01 0.15244569E+03</pdfrwt>
<totfact> 0.17701930E+03</totfact>
</mgrwt>
</event>
<event>
 7    1  0.5107591E-006  0.1267413E+03  0.7546771E-02  0.1247700E+00
          1   -1    0    0  501    0  0.00000000000E+00  0.00000000000E+00  0.80906501570E+02  0.80906501570E+02  0.00000000000E+00 0. -1.
         -1   -1    0    0    0  501 -0.00000000000E+00 -0.00000000000E+00 -0.21698861440E+03  0.21698861440E+03  0.00000000000E+00 0.  1.
         23    2    1    2    0    0 -0.16610312567E+02  0.12658953705E+02  0.21870127606E+02  0.95380278659E+02  0.90459623496E+02 0.  0.
          5    1    1    2  502    0  0.24359348368E+02  0.46076164931E+02 -0.12275497866E+03  0.13344386690E+03  0.47000000000E+01 0.  1.
         -5    1    1    2    0  502 -0.77490358002E+01 -0.58735118635E+02 -0.35197261777E+02  0.69070970411E+02  0.47000000000E+01 0.  1.
        -11    1    3    3    0    0  0.12319020211E+02  0.45389698066E+02  0.21457400160E+02  0.51695289642E+02  0.00000000000E+00 0. -1.
         11    1    3    3    0    0 -0.28929332778E+02 -0.32730744362E+02  0.41272744653E+00  0.43684989017E+02  0.00000000000E+00 0.  1.
<mgrwt>
<rscale>  0 0.11725227E+03</rscale>
<asrwt>0</asrwt>
<pdfrwt beam="1">  1        1 0.12447154E-01 0.12674127E+03</pdfrwt>
<pdfrwt beam="2">  1       -1 0.33382863E-01 0.12674127E+03</pdfrwt>
<totfact> 0.38770079E+03</totfact>
</mgrwt>
</event>
<event>
 7    1  0.5107591E-006  0.1374925E+03  0.7546771E-02  0.1228002E+00
         -2   -1    0    0    0  501 -0.00000000000E+00  0.00000000000E+00  0.34016197083E+02  0.34016197083E+02  0.00000000000E+00 0.  1.
          2   -1    0    0  501    0  0.00000000000E+00 -0.00000000000E+00 -0.45971946156E+03  0.45971946156E+03  0.00000000000E+00 0. -1.
         23    2    1    2    0    0 -0.54072957417E+02 -0.18854613930E+02 -0.23217358126E+03  0.25633742462E+03  0.92330505445E+02 0.  0.
          5    1    1    2  502    0  0.87849167192E+01  0.31661213122E+02  0.47727202812E+01  0.33533207973E+02  0.47000000000E+01 0. -1.
         -5    1    1    2    0  502  0.45288040698E+02 -0.12806599191E+02 -0.19830240350E+03  0.20386502605E+03  0.47000000000E+01 0. -1.
        -11    1    3    3    0    0 -0.77214171468E+00  0.33137755255E+02 -0.88743692926E+02  0.94731990691E+02  0.00000000000E+00 0. -1.
         11    1    3    3    0    0 -0.53300815702E+02 -0.51992369185E+02 -0.14342988833E+03  0.16160543393E+03  0.00000000000E+00 0.  1.
<mgrwt>
<rscale>  0 0.12963261E+03</rscale>
<asrwt>0</asrwt>
<pdfrwt beam="2">  1        2 0.70726070E-01 0.13749248E+03</pdfrwt>
<pdfrwt beam="1">  1       -2 0.52332612E-02 0.13749248E+03</pdfrwt>
<totfact> 0.11858891E+04</totfact>
</mgrwt>
</event>
<event>
 7    1  0.5107591E-006  0.1284600E+03  0.7546771E-02  0.1244099E+00
          3   -1    0    0  501    0  0.00000000000E+00  0.00000000000E+00  0.52276463628E+03  0.52276463628E+03  0.00000000000E+00 0. -1.
         -3   -1    0    0    0  501 -0.00000000000E+00 -0.00000000000E+00 -0.24151341878E+02  0.24151341878E+02  0.00000000000E+00 0.  1.
         23    2    1    2    0    0  0.46868278690E+01  0.29228797769E+02  0.22948671172E+03  0.24870279927E+03  0.91173694294E+02 0.  0.
          5    1    1    2  502    0  0.52443887112E+02 -0.27496105556E+02  0.74328344440E+02  0.95148252235E+02  0.47000000000E+01 0. -1.
         -5    1    1    2    0  502 -0.57130714981E+02 -0.17326922130E+01  0.19479823825E+03  0.20306492666E+03  0.47000000000E+01 0. -1.
        -11    1    3    3    0    0 -0.30227972933E+02  0.39736480321E+02  0.75911263990E+02  0.90858341480E+02  0.00000000000E+00 0.  1.
         11    1    3    3    0    0  0.34914800802E+02 -0.10507682552E+02  0.15357544773E+03  0.15784445779E+03  0.00000000000E+00 0. -1.
<mgrwt>
<rscale>  0 0.11939446E+03</rscale>
<asrwt>0</asrwt>
<pdfrwt beam="1">  1        3 0.80425320E-01 0.12846004E+03</pdfrwt>
<pdfrwt beam="2">  1       -3 0.37155914E-02 0.12846004E+03</pdfrwt>
<totfact> 0.12284961E+03</totfact>
</mgrwt>
</event>
<event>
 7    1  0.5107591E-006  0.1719141E+03  0.7546771E-02  0.1182303E+00
          2   -1    0    0  501    0  0.00000000000E+00  0.00000000000E+00  0.24704035492E+03  0.24704035492E+03  0.00000000000E+00 0. -1.
         -2   -1    0    0    0  501 -0.00000000000E+00 -0.00000000000E+00 -0.16470581900E+03  0.16470581900E+03  0.00000000000E+00 0.  1.
         23    2    1    2    0    0 -0.63642427556E+02 -0.99391908734E+02  0.16402626547E+03  0.22140962950E+03  0.90490320840E+02 0.  0.
          5    1    1    2  502    0  0.76563345175E+02  0.59036209176E+02 -0.10412045146E+03  0.14216320984E+03  0.47000000000E+01 0.  1.
         -5    1    1    2    0  502 -0.12920917619E+02  0.40355699558E+02  0.22428721914E+02  0.48173334591E+02  0.47000000000E+01 0.  1.
        -11    1    3    3    0    0 -0.20253521575E+02 -0.34984814879E+02  0.55343874041E+00  0.40428315606E+02  0.00000000000E+00 0.  1.
         11    1    3    3    0    0 -0.43388905981E+02 -0.64407093855E+02  0.16347282673E+03  0.18098131390E+03  0.00000000000E+00 0. -1.
<mgrwt>
<rscale>  0 0.16579671E+03</rscale>
<asrwt>0</asrwt>
<pdfrwt beam="1">  1        2 0.38006208E-01 0.17191411E+03</pdfrwt>
<pdfrwt beam="2">  1       -2 0.25339357E-01 0.17191411E+03</pdfrwt>
<totfact> 0.18468142E+03</totfact>
</mgrwt>
</event>
<event>
 7    1  0.5107591E-006  0.1519190E+03  0.7546771E-02  0.1206645E+00
         -2   -1    0    0    0  501 -0.00000000000E+00  0.00000000000E+00  0.74989824245E+02  0.74989824245E+02  0.00000000000E+00 0.  1.
          2   -1    0    0  501    0  0.00000000000E+00 -0.00000000000E+00 -0.59443381638E+03  0.59443381638E+03  0.00000000000E+00 0. -1.
         23    2    1    2    0    0  0.85855037073E+02 -0.92021971932E+01 -0.50064141980E+03  0.51634547143E+03  0.92277011344E+02 0.  0.
          5    1    1    2  502    0  0.25853615466E+01  0.27745249045E+02 -0.49943383326E+02  0.57383921764E+02  0.47000000000E+01 0.  1.
         -5    1    1    2    0  502 -0.88440398619E+02 -0.18543051852E+02  0.31140811001E+02  0.95694247422E+02  0.47000000000E+01 0.  1.
        -11    1    3    3    0    0  0.60342587171E+01  0.33266962102E+02 -0.18250468033E+03  0.18560997114E+03  0.00000000000E+00 0. -1.
         11    1    3    3    0    0  0.79820778356E+02 -0.42469159295E+02 -0.31813673947E+03  0.33073550029E+03  0.00000000000E+00 0.  1.
<mgrwt>
<rscale>  0 0.14508583E+03</rscale>
<asrwt>0</asrwt>
<pdfrwt beam="2">  1        2 0.91451357E-01 0.15191902E+03</pdfrwt>
<pdfrwt beam="1">  1       -2 0.11536896E-01 0.15191902E+03</pdfrwt>
<totfact> 0.26405584E+03</totfact>
</mgrwt>
</event>
<event>
 7    1  0.5107591E-006  0.1363441E+03  0.7546771E-02  0.1228706E+00
         -1   -1    0    0    0  501 -0.00000000000E+00  0.00000000000E+00  0.30309977942E+02  0.30309977942E+02  0.00000000000E+00 0.  1.
          1   -1    0    0  501    0  0.00000000000E+00 -0.00000000000E+00 -0.58511634352E+03  0.58511634352E+03  0.00000000000E+00 0. -1.
         23    2    1    2    0    0  0.37241765640E+02 -0.39726282293E+02 -0.36881373726E+03  0.38481197841E+03  0.95349668716E+02 0.  0.
          5    1    1    2  502    0 -0.82520495422E+02  0.30806708971E+02 -0.13867195482E+03  0.16434928213E+03  0.47000000000E+01 0. -1.
         -5    1    1    2    0  502  0.45278729782E+02  0.89195733219E+01 -0.47320673499E+02  0.66265060925E+02  0.47000000000E+01 0. -1.
        -11    1    3    3    0    0 -0.29563312639E+02 -0.12224809976E+02 -0.17650973923E+03  0.17938540486E+03  0.00000000000E+00 0. -1.
         11    1    3    3    0    0  0.66805078279E+02 -0.27501472317E+02 -0.19230399803E+03  0.20542657355E+03  0.00000000000E+00 0.  1.
<mgrwt>
<rscale>  0 0.12916082E+03</rscale>
<asrwt>0</asrwt>
<pdfrwt beam="2">  1        1 0.90017898E-01 0.13634411E+03</pdfrwt>
<pdfrwt beam="1">  1       -1 0.46630736E-02 0.13634411E+03</pdfrwt>
<totfact> 0.68452077E+03</totfact>
</mgrwt>
</event>
<event>
 7    1  0.5107591E-006  0.1628630E+03  0.7546771E-02  0.1194622E+00
         -2   -1    0    0    0  501 -0.00000000000E+00  0.00000000000E+00  0.30000609043E+03  0.30000609043E+03  0.00000000000E+00 0.  1.
          2   -1    0    0  501    0  0.00000000000E+00 -0.00000000000E+00 -0.90296494549E+02  0.90296494549E+02  0.00000000000E+00 0. -1.
         23    2    1    2    0    0  0.10118098595E+03  0.25688668217E+02  0.11317841288E+02  0.13362447172E+03  0.82643247252E+02 0.  0.
          5    1    1    2  502    0 -0.10630797668E+03 -0.55522179884E+02  0.10881797583E+03  0.16201092627E+03  0.47000000000E+01 0.  1.
         -5    1    1    2    0  502  0.51269907295E+01  0.29833511667E+02  0.89573778766E+02  0.94667187001E+02  0.47000000000E+01 0.  1.
        -11    1    3    3    0    0  0.73669591925E+02 -0.18397494431E+01 -0.27499686469E+02  0.78656380595E+02  0.00000000000E+00 0. -1.
         11    1    3    3    0    0  0.27511394028E+02  0.27528417660E+02  0.38817527756E+02  0.54968091120E+02  0.00000000000E+00 0.  1.
<mgrwt>
<rscale>  0 0.15486295E+03</rscale>
<asrwt>0</asrwt>
<pdfrwt beam="2">  1        2 0.13891769E-01 0.16286303E+03</pdfrwt>
<pdfrwt beam="1">  1       -2 0.46154783E-01 0.16286303E+03</pdfrwt>
<totfact> 0.18829416E+03</totfact>
</mgrwt>
</event>
<event>
 7    1  0.5107591E-006  0.1312465E+03  0.7546771E-02  0.1240015E+00
         -2   -1    0    0    0  501 -0.00000000000E+00  0.00000000000E+00  0.12156491943E+03  0.12156491943E+03  0.00000000000E+00 0.  1.
          2   -1    0    0  501    0  0.00000000000E+00 -0.00000000000E+00 -0.10773929382E+03  0.10773929382E+03  0.00000000000E+00 0. -1.
         23    2    1    2    0    0 -0.13635788709E+02  0.37608134712E+02  0.70334494246E+01  0.97882030445E+02  0.89056813007E+02 0.  0.
          5    1    1    2  502    0  0.49400297668E+02  0.27214862899E+02 -0.25442220368E+01  0.56653342691E+02  0.47000000000E+01 0.  1.
         -5    1    1    2    0  502 -0.35764508958E+02 -0.64822997612E+02  0.93363982148E+01  0.74768840114E+02  0.47000000000E+01 0.  1.
        -11    1    3    3    0    0  0.23080376987E+02  0.65897975121E+01 -0.29120623228E+02  0.37737778555E+02  0.00000000000E+00 0. -1.
         11    1    3    3    0    0 -0.36716165696E+02  0.31018337200E+02  0.36154072652E+02  0.60144251890E+02  0.00000000000E+00 0.  1.
<mgrwt>
<rscale>  0 0.12188791E+03</rscale>
<asrwt>0</asrwt>
<pdfrwt beam="2">  1        2 0.16575276E-01 0.13124655E+03</pdfrwt>
<pdfrwt beam="1">  1       -2 0.18702295E-01 0.13124655E+03</pdfrwt>
<totfact> 0.76919689E+03</totfact>
</mgrwt>
</event>
<event>
 7    1  0.5107591E-006  0.2543461E+03  0.7546771E-02  0.1112865E+00
         -2   -1    0    0    0  501 -0.00000000000E+00  0.00000000000E+00  0.59355147856E+02  0.59355147856E+02  0.00000000000E+00 0. -1.
          2   -1    0    0  501    0  0.00000000000E+00 -0.00000000000E+00 -0.10403528166E+04  0.10403528166E+04  0.00000000000E+00 0.  1.
         23    2    1    2    0    0  0.21178297453E+03 -0.64923889984E+02 -0.53244657572E+03  0.58406270235E+03  0.92535098717E+02 0.  0.
          5    1    1    2  502    0 -0.45420104495E+02 -0.35078352669E+02 -0.74039958829E+02  0.93794894433E+02  0.47000000000E+01 0. -1.
         -5    1    1    2    0  502 -0.16636287003E+03  0.10000224265E+03 -0.37451113415E+03  0.42185036762E+03  0.47000000000E+01 0. -1.
        -11    1    3    3    0    0  0.76863664262E+02 -0.32055217559E+02 -0.31687496184E+03  0.32763592797E+03  0.00000000000E+00 0.  1.
         11    1    3    3    0    0  0.13491931027E+03 -0.32868672425E+02 -0.21557161388E+03  0.25642677439E+03  0.00000000000E+00 0. -1.
<mgrwt>
<rscale>  0 0.25069739E+03</rscale>
<asrwt>0</asrwt>
<pdfrwt beam="2">  1        2 0.16005428E+00 0.25434613E+03</pdfrwt>
<pdfrwt beam="1">  1       -2 0.91315613E-02 0.25434613E+03</pdfrwt>
<totfact> 0.19013472E+03</totfact>
</mgrwt>
</event>
<event>
 7    1  0.5107591E-006  0.1513713E+03  0.7546771E-02  0.1208201E+00
          2   -1    0    0  501    0  0.00000000000E+00  0.00000000000E+00  0.27071903368E+03  0.27071903368E+03  0.00000000000E+00 0. -1.
         -2   -1    0    0    0  501 -0.00000000000E+00 -0.00000000000E+00 -0.88568407074E+02  0.88568407074E+02  0.00000000000E+00 0.  1.
         23    2    1    2    0    0  0.14685383208E+02  0.84103675907E+02  0.16617229496E+03  0.20707517232E+03  0.89318568036E+02 0.  0.
          5    1    1    2  502    0  0.75894600919E+01  0.27103240549E+02 -0.17980999053E+02  0.33728205995E+02  0.47000000000E+01 0.  1.
         -5    1    1    2    0  502 -0.22274843300E+02 -0.11120691646E+03  0.33959330701E+02  0.11848406244E+03  0.47000000000E+01 0.  1.
        -11    1    3    3    0    0 -0.30108362009E+02  0.67111105248E+02  0.11861264078E+03  0.13956852247E+03  0.00000000000E+00 0.  1.
         11    1    3    3    0    0  0.44793745217E+02  0.16992570659E+02  0.47559654180E+02  0.67506649850E+02  0.00000000000E+00 0. -1.
<mgrwt>
<rscale>  0 0.14388035E+03</rscale>
<asrwt>0</asrwt>
<pdfrwt beam="1">  1        2 0.41649082E-01 0.15137129E+03</pdfrwt>
<pdfrwt beam="2">  1       -2 0.13625909E-01 0.15137129E+03</pdfrwt>
<totfact> 0.47372056E+03</totfact>
</mgrwt>
</event>
<event>
 7    1  0.5107591E-006  0.1348113E+03  0.7546771E-02  0.1232519E+00
         -1   -1    0    0    0  501 -0.00000000000E+00  0.00000000000E+00  0.77240734844E+02  0.77240734844E+02  0.00000000000E+00 0.  1.
          1   -1    0    0  501    0  0.00000000000E+00 -0.00000000000E+00 -0.19890849783E+03  0.19890849783E+03  0.00000000000E+00 0. -1.
         23    2    1    2    0    0  0.17326276293E+02 -0.47421808751E+02 -0.88491579216E+02  0.13731571381E+03  0.92064205153E+02 0.  0.
          5    1    1    2  502    0 -0.31257866446E+01  0.86128875775E+02 -0.42639567872E+02  0.96271369226E+02  0.47000000000E+01 0. -1.
         -5    1    1    2    0  502 -0.14200489648E+02 -0.38707067023E+02  0.94633840987E+01  0.42562149645E+02  0.47000000000E+01 0. -1.
        -11    1    3    3    0    0  0.42219491635E+02  0.99536428650E-01 -0.67690052329E+02  0.79777431431E+02  0.00000000000E+00 0. -1.
         11    1    3    3    0    0 -0.24893215342E+02 -0.47521345180E+02 -0.20801526887E+02  0.57538282375E+02  0.00000000000E+00 0.  1.
<mgrwt>
<rscale>  0 0.12664595E+03</rscale>
<asrwt>0</asrwt>
<pdfrwt beam="2">  1        1 0.30601307E-01 0.13481130E+03</pdfrwt>
<pdfrwt beam="1">  1       -1 0.11883190E-01 0.13481130E+03</pdfrwt>
<totfact> 0.65306991E+03</totfact>
</mgrwt>
</event>
<event>
 7    1  0.5107591E-006  0.1286789E+03  0.7546771E-02  0.1243198E+00
         -1   -1    0    0    0  501 -0.00000000000E+00  0.00000000000E+00  0.24289382425E+03  0.24289382425E+03  0.00000000000E+00 0.  1.
          1   -1    0    0  501    0  0.00000000000E+00 -0.00000000000E+00 -0.10062597456E+03  0.10062597456E+03  0.00000000000E+00 0. -1.
         23    2    1    2    0    0 -0.22828899897E+02  0.20287236219E+02 -0.52255006822E+02  0.11028727518E+03  0.92195264008E+02 0.  0.
          5    1    1    2  502    0 -0.31101383410E+02 -0.39562133231E+02  0.29570172651E+02  0.58557181851E+02  0.47000000000E+01 0.  1.
         -5    1    1    2    0  502  0.53930283306E+02  0.19274897012E+02  0.16495268386E+03  0.17467534177E+03  0.47000000000E+01 0.  1.
        -11    1    3    3    0    0  0.18629741302E+02  0.33316913361E+02 -0.54766686283E+02  0.66756826642E+02  0.00000000000E+00 0. -1.
         11    1    3    3    0    0 -0.41458641199E+02 -0.13029677142E+02  0.25116794606E+01  0.43530448541E+02  0.00000000000E+00 0.  1.
<mgrwt>
<rscale>  0 0.11993891E+03</rscale>
<asrwt>0</asrwt>
<pdfrwt beam="2">  1        1 0.15480919E-01 0.12867894E+03</pdfrwt>
<pdfrwt beam="1">  1       -1 0.37368281E-01 0.12867894E+03</pdfrwt>
<totfact> 0.24090412E+03</totfact>
</mgrwt>
</event>
<event>
 7    1  0.5107591E-006  0.1262496E+03  0.7546771E-02  0.1249098E+00
          2   -1    0    0  501    0  0.00000000000E+00  0.00000000000E+00  0.22995353160E+03  0.22995353160E+03  0.00000000000E+00 0. -1.
         -2   -1    0    0    0  501 -0.00000000000E+00 -0.00000000000E+00 -0.74510960369E+02  0.74510960369E+02  0.00000000000E+00 0.  1.
         23    2    1    2    0    0  0.12797803502E+02  0.12225662334E+02  0.15300426375E+03  0.17819138563E+03  0.89602536749E+02 0.  0.
          5    1    1    2  502    0 -0.21567042820E+02 -0.46157100785E+02  0.46939762967E+02  0.69433757181E+02  0.47000000000E+01 0. -1.
         -5    1    1    2    0  502  0.87692393177E+01  0.33931438451E+02 -0.44501455482E+02  0.56839349165E+02  0.47000000000E+01 0. -1.
        -11    1    3    3    0    0  0.22378300342E+02 -0.18085619322E+02  0.14148237836E+03  0.14437846564E+03  0.00000000000E+00 0. -1.
         11    1    3    3    0    0 -0.95804968393E+01  0.30311281656E+02  0.11521885386E+02  0.33812919988E+02  0.00000000000E+00 0.  1.
<mgrwt>
<rscale>  0 0.11643413E+03</rscale>
<asrwt>0</asrwt>
<pdfrwt beam="1">  1        2 0.35377466E-01 0.12624956E+03</pdfrwt>
<pdfrwt beam="2">  1       -2 0.11463225E-01 0.12624956E+03</pdfrwt>
<totfact> 0.73540164E+03</totfact>
</mgrwt>
</event>
<event>
 7    1  0.5107591E-006  0.1334864E+03  0.7546771E-02  0.1235330E+00
          2   -1    0    0  501    0  0.00000000000E+00  0.00000000000E+00  0.28154442452E+03  0.28154442452E+03  0.00000000000E+00 0. -1.
         -2   -1    0    0    0  501 -0.00000000000E+00 -0.00000000000E+00 -0.50673532287E+02  0.50673532287E+02  0.00000000000E+00 0.  1.
         23    2    1    2    0    0  0.26530450136E+02 -0.38549120499E+02  0.12777202441E+03  0.16355264344E+03  0.90740715670E+02 0.  0.
          5    1    1    2  502    0 -0.70521783021E+02  0.51008573033E+02  0.73314692992E+02  0.11389613958E+03  0.47000000000E+01 0. -1.
         -5    1    1    2    0  502  0.43991332884E+02 -0.12459452534E+02  0.29784174836E+02  0.54769173785E+02  0.47000000000E+01 0. -1.
        -11    1    3    3    0    0 -0.13224484632E+02 -0.36352321383E+02  0.11055569701E+02  0.40231876481E+02  0.00000000000E+00 0.  1.
         11    1    3    3    0    0  0.39754934768E+02 -0.21967991155E+01  0.11671645471E+03  0.12332076696E+03  0.00000000000E+00 0. -1.
<mgrwt>
<rscale>  0 0.12483341E+03</rscale>
<asrwt>0</asrwt>
<pdfrwt beam="1">  1        2 0.43314526E-01 0.13348637E+03</pdfrwt>
<pdfrwt beam="2">  1       -2 0.77959282E-02 0.13348637E+03</pdfrwt>
<totfact> 0.10878834E+04</totfact>
</mgrwt>
</event>
<event>
 7    1  0.5107591E-006  0.1302312E+03  0.7546771E-02  0.1242882E+00
         -1   -1    0    0    0  501 -0.00000000000E+00  0.00000000000E+00  0.82246105524E+02  0.82246105524E+02  0.00000000000E+00 0.  1.
          1   -1    0    0  501    0  0.00000000000E+00 -0.00000000000E+00 -0.15447296042E+03  0.15447296042E+03  0.00000000000E+00 0. -1.
         23    2    1    2    0    0  0.35642181469E+02 -0.80458450231E+01 -0.19889495275E+02  0.96364612482E+02  0.86922067362E+02 0.  0.
          5    1    1    2  502    0 -0.20919568934E+02  0.56265224953E+02  0.89301927765E+01  0.60870701051E+02  0.47000000000E+01 0.  1.
         -5    1    1    2    0  502 -0.14722612535E+02 -0.48219379930E+02 -0.61267552398E+02  0.79483752412E+02  0.47000000000E+01 0.  1.
        -11    1    3    3    0    0 -0.49184335327E-01 -0.34056623509E+02  0.17689328046E+02  0.38376664142E+02  0.00000000000E+00 0.  1.
         11    1    3    3    0    0  0.35691365804E+02  0.26010778486E+02 -0.37578823322E+02  0.57987948340E+02  0.00000000000E+00 0. -1.
<mgrwt>
<rscale>  0 0.12013026E+03</rscale>
<asrwt>0</asrwt>
<pdfrwt beam="2">  1        1 0.23765071E-01 0.13023123E+03</pdfrwt>
<pdfrwt beam="1">  1       -1 0.12653247E-01 0.13023123E+03</pdfrwt>
<totfact> 0.81089213E+03</totfact>
</mgrwt>
</event>
<event>
 7    1  0.5107591E-006  0.1653198E+03  0.7546771E-02  0.1189787E+00
         -1   -1    0    0    0  501 -0.00000000000E+00  0.00000000000E+00  0.11007807692E+03  0.11007807692E+03  0.00000000000E+00 0.  1.
          1   -1    0    0  501    0  0.00000000000E+00 -0.00000000000E+00 -0.27736466000E+03  0.27736466000E+03  0.00000000000E+00 0. -1.
         23    2    1    2    0    0 -0.10604718928E+03 -0.21440164101E+02 -0.17108984422E+03  0.22207920293E+03  0.91333184484E+02 0.  0.
          5    1    1    2  502    0  0.49776910816E+02  0.38287135873E+02  0.57770900698E+02  0.85458835653E+02  0.47000000000E+01 0. -1.
         -5    1    1    2    0  502  0.56270278465E+02 -0.16846971771E+02 -0.53967639565E+02  0.79904698339E+02  0.47000000000E+01 0. -1.
        -11    1    3    3    0    0 -0.69939707992E+02 -0.35305780457E+02 -0.45348927019E+02  0.90523953015E+02  0.00000000000E+00 0.  1.
         11    1    3    3    0    0 -0.36107481290E+02  0.13865616356E+02 -0.12574091720E+03  0.13155524991E+03  0.00000000000E+00 0. -1.
<mgrwt>
<rscale>  0 0.15903803E+03</rscale>
<asrwt>0</asrwt>
<pdfrwt beam="2">  1        1 0.42671486E-01 0.16531979E+03</pdfrwt>
<pdfrwt beam="1">  1       -1 0.16935089E-01 0.16531979E+03</pdfrwt>
<totfact> 0.25089021E+03</totfact>
</mgrwt>
</event>
<event>
 7    1  0.5107591E-006  0.1253887E+03  0.7546771E-02  0.1249893E+00
          3   -1    0    0  501    0  0.00000000000E+00  0.00000000000E+00  0.36810945986E+03  0.36810945986E+03  0.00000000000E+00 0. -1.
         -3   -1    0    0    0  501 -0.00000000000E+00 -0.00000000000E+00 -0.53465621748E+02  0.53465621748E+02  0.00000000000E+00 0.  1.
         23    2    1    2    0    0  0.32394629453E+00 -0.98914728094E+01  0.27525297770E+03  0.29014465128E+03  0.91223740076E+02 0.  0.
          5    1    1    2  502    0 -0.14396036067E+02  0.45430754673E+02 -0.26780599291E+02  0.54867930734E+02  0.47000000000E+01 0. -1.
         -5    1    1    2    0  502  0.14072089773E+02 -0.35539281864E+02  0.66171459701E+02  0.76562499600E+02  0.47000000000E+01 0. -1.
        -11    1    3    3    0    0 -0.36313299739E+02 -0.16627164621E+02  0.21942183861E+03  0.22302704231E+03  0.00000000000E+00 0. -1.
         11    1    3    3    0    0  0.36637246034E+02  0.67356918120E+01  0.55831139095E+02  0.67117608969E+02  0.00000000000E+00 0.  1.
<mgrwt>
<rscale>  0 0.11597274E+03</rscale>
<asrwt>0</asrwt>
<pdfrwt beam="1">  1        3 0.56632223E-01 0.12538867E+03</pdfrwt>
<pdfrwt beam="2">  1       -3 0.82254805E-02 0.12538867E+03</pdfrwt>
<totfact> 0.72250139E+02</totfact>
</mgrwt>
</event>
<event>
 7    1  0.5107591E-006  0.1334022E+03  0.7546771E-02  0.1232336E+00
         -1   -1    0    0    0  501 -0.00000000000E+00  0.00000000000E+00  0.33184306388E+02  0.33184306388E+02  0.00000000000E+00 0.  1.
          1   -1    0    0  501    0  0.00000000000E+00 -0.00000000000E+00 -0.44258354738E+03  0.44258354738E+03  0.00000000000E+00 0. -1.
         23    2    1    2    0    0 -0.43025133270E+02 -0.17888322481E+02 -0.19368237443E+03  0.22213443724E+03  0.98283731457E+02 0.  0.
          5    1    1    2  502    0  0.59374702616E+02  0.27544714638E+02 -0.40043176735E+02  0.76874004828E+02  0.47000000000E+01 0.  1.
         -5    1    1    2    0  502 -0.16349569347E+02 -0.96563921573E+01 -0.17567368982E+03  0.17675941170E+03  0.47000000000E+01 0.  1.
        -11    1    3    3    0    0  0.30180045377E+02 -0.18758595339E+02 -0.65519407678E+02  0.74535312574E+02  0.00000000000E+00 0. -1.
         11    1    3    3    0    0 -0.73205178647E+02  0.87027285823E+00 -0.12816296676E+03  0.14759912467E+03  0.00000000000E+00 0.  1.
<mgrwt>
<rscale>  0 0.12676495E+03</rscale>
<asrwt>0</asrwt>
<pdfrwt beam="2">  1        1 0.68089769E-01 0.13340219E+03</pdfrwt>
<pdfrwt beam="1">  1       -1 0.51052784E-02 0.13340219E+03</pdfrwt>
<totfact> 0.86203913E+03</totfact>
</mgrwt>
</event>
<event>
 7    1  0.5107591E-006  0.4963900E+03  0.7546771E-02  0.1015277E+00
         -1   -1    0    0    0  501 -0.00000000000E+00  0.00000000000E+00  0.20116369779E+03  0.20116369779E+03  0.00000000000E+00 0.  1.
          1   -1    0    0  501    0  0.00000000000E+00 -0.00000000000E+00 -0.16530749618E+04  0.16530749618E+04  0.00000000000E+00 0. -1.
         23    2    1    2    0    0  0.22384163295E+03  0.42505662416E+03 -0.12044456797E+04  0.12995835537E+04  0.86312266553E+02 0.  0.
          5    1    1    2  502    0 -0.46428635387E+01 -0.40264326852E+02 -0.62654373469E+02  0.74769196288E+02  0.47000000000E+01 0.  1.
         -5    1    1    2    0  502 -0.21919876941E+03 -0.38479229730E+03 -0.18481121088E+03  0.47988590961E+03  0.47000000000E+01 0.  1.
        -11    1    3    3    0    0  0.20058648220E+02  0.10508836296E+03 -0.22175717546E+03  0.24621567429E+03  0.00000000000E+00 0. -1.
         11    1    3    3    0    0  0.20378298473E+03  0.31996826119E+03 -0.98268850421E+03  0.10533678794E+04  0.00000000000E+00 0.  1.
<mgrwt>
<rscale>  0 0.49430090E+03</rscale>
<asrwt>0</asrwt>
<pdfrwt beam="2">  1        1 0.25431923E+00 0.49639004E+03</pdfrwt>
<pdfrwt beam="1">  1       -1 0.30948260E-01 0.49639004E+03</pdfrwt>
<totfact> 0.52811605E+01</totfact>
</mgrwt>
</event>
<event>
 7    1  0.5107591E-006  0.2462652E+03  0.7546771E-02  0.1152451E+00
          2   -1    0    0  501    0  0.00000000000E+00  0.00000000000E+00  0.62372800443E+02  0.62372800443E+02  0.00000000000E+00 0. -1.
         -2   -1    0    0    0  501 -0.00000000000E+00 -0.00000000000E+00 -0.51112749063E+03  0.51112749063E+03  0.00000000000E+00 0.  1.
         23    2    1    2    0    0  0.15376754573E+02  0.10601658327E+01 -0.72830625387E+02  0.12409461483E+03  0.99285471757E+02 0.  0.
          5    1    1    2  502    0 -0.80360786868E+02  0.34707310441E+02 -0.25656292424E+02  0.91338867986E+02  0.47000000000E+01 0. -1.
         -5    1    1    2    0  502  0.64984032295E+02 -0.35767476274E+02 -0.35026777238E+03  0.35806680826E+03  0.47000000000E+01 0.  1.
        -11    1    3    3    0    0  0.38250000222E+02 -0.24319389497E+01 -0.88301450958E+02  0.96260703744E+02  0.00000000000E+00 0.  1.
         11    1    3    3    0    0 -0.22873245649E+02  0.34921047824E+01  0.15470825571E+02  0.27833911083E+02  0.00000000000E+00 0. -1.
<mgrwt>
<rscale>  0 0.19681878E+03</rscale>
<asrwt>0</asrwt>
<pdfrwt beam="1">  1        2 0.95958150E-02 0.24626522E+03</pdfrwt>
<pdfrwt beam="2">  1       -2 0.78635002E-01 0.24626522E+03</pdfrwt>
<totfact> 0.99482745E+02</totfact>
</mgrwt>
</event>
<event>
 7    1  0.5107591E-006  0.1327838E+03  0.7546771E-02  0.1236148E+00
          2   -1    0    0  501    0  0.00000000000E+00  0.00000000000E+00  0.57886093984E+02  0.57886093984E+02  0.00000000000E+00 0. -1.
         -2   -1    0    0    0  501 -0.00000000000E+00 -0.00000000000E+00 -0.24430835078E+03  0.24430835078E+03  0.00000000000E+00 0.  1.
         23    2    1    2    0    0  0.22932537402E+02 -0.38493287649E+02 -0.57380099422E+02  0.11703659875E+03  0.91637629670E+02 0.  0.
          5    1    1    2  502    0  0.28516376756E+02 -0.24105062269E+02 -0.65259469958E+01  0.38195755713E+02  0.47000000000E+01 0.  1.
         -5    1    1    2    0  502 -0.51448914158E+02  0.62598349918E+02 -0.12251621038E+03  0.14696209031E+03  0.47000000000E+01 0.  1.
        -11    1    3    3    0    0  0.44238047112E+02 -0.14319486070E+02 -0.68637152367E+02  0.82904228955E+02  0.00000000000E+00 0.  1.
         11    1    3    3    0    0 -0.21305509710E+02 -0.24173801579E+02  0.11257052945E+02  0.34132369795E+02  0.00000000000E+00 0. -1.
<mgrwt>
<rscale>  0 0.12431246E+03</rscale>
<asrwt>0</asrwt>
<pdfrwt beam="1">  1        2 0.89055529E-02 0.13278385E+03</pdfrwt>
<pdfrwt beam="2">  1       -2 0.37585900E-01 0.13278385E+03</pdfrwt>
<totfact> 0.47294557E+03</totfact>
</mgrwt>
</event>
<event>
 7    1  0.5107591E-006  0.1449384E+03  0.7546771E-02  0.1217643E+00
          3   -1    0    0  501    0  0.00000000000E+00  0.00000000000E+00  0.19193201177E+03  0.19193201177E+03  0.00000000000E+00 0. -1.
         -3   -1    0    0    0  501 -0.00000000000E+00 -0.00000000000E+00 -0.89109101082E+02  0.89109101082E+02  0.00000000000E+00 0.  1.
         23    2    1    2    0    0  0.65349531413E+02 -0.33384565756E+02  0.60276937457E+02  0.12998714702E+03  0.88759555628E+02 0.  0.
          5    1    1    2  502    0  0.19035503859E+02  0.43032004957E+02  0.45929520316E+02  0.65922034967E+02  0.47000000000E+01 0.  1.
         -5    1    1    2    0  502 -0.84385035271E+02 -0.96474392011E+01 -0.33835470873E+01  0.85131930859E+02  0.47000000000E+01 0.  1.
        -11    1    3    3    0    0  0.48396664067E+02 -0.14849229272E+02 -0.13215947837E+02  0.52320148892E+02  0.00000000000E+00 0.  1.
         11    1    3    3    0    0  0.16952867345E+02 -0.18535336484E+02  0.73492885294E+02  0.77666998130E+02  0.00000000000E+00 0. -1.
<mgrwt>
<rscale>  0 0.13684195E+03</rscale>
<asrwt>0</asrwt>
<pdfrwt beam="1">  1        3 0.29528002E-01 0.14493840E+03</pdfrwt>
<pdfrwt beam="2">  1       -3 0.13709093E-01 0.14493840E+03</pdfrwt>
<totfact> 0.11153184E+03</totfact>
</mgrwt>
</event>
<event>
 7    1  0.5107591E-006  0.1320605E+03  0.7546771E-02  0.1237538E+00
         -2   -1    0    0    0  501 -0.00000000000E+00  0.00000000000E+00  0.22732752786E+03  0.22732752786E+03  0.00000000000E+00 0. -1.
          2   -1    0    0  501    0  0.00000000000E+00 -0.00000000000E+00 -0.59998201028E+02  0.59998201028E+02  0.00000000000E+00 0.  1.
         23    2    1    2    0    0 -0.31910924934E+02 -0.28324530858E+02  0.61292507047E+02  0.11796286173E+03  0.91311987979E+02 0.  0.
          5    1    1    2  502    0  0.39309535960E+02 -0.91989563490E+01 -0.14238160793E+02  0.43065945225E+02  0.47000000000E+01 0. -1.
         -5    1    1    2    0  502 -0.73986110264E+01  0.37523487207E+02  0.12027498058E+03  0.12629692193E+03  0.47000000000E+01 0. -1.
        -11    1    3    3    0    0 -0.39861559609E+02 -0.72885190043E+01 -0.11216871860E+02  0.42046220497E+02  0.00000000000E+00 0.  1.
         11    1    3    3    0    0  0.79506346754E+01 -0.21036011853E+02  0.72509378906E+02  0.75916641231E+02  0.00000000000E+00 0. -1.
<mgrwt>
<rscale>  0 0.12343354E+03</rscale>
<asrwt>0</asrwt>
<pdfrwt beam="2">  1        2 0.92304926E-02 0.13206049E+03</pdfrwt>
<pdfrwt beam="1">  1       -2 0.34973465E-01 0.13206049E+03</pdfrwt>
<totfact> 0.51697084E+03</totfact>
</mgrwt>
</event>
<event>
 7    1  0.5107591E-006  0.1726300E+03  0.7546771E-02  0.1181641E+00
          1   -1    0    0  501    0  0.00000000000E+00  0.00000000000E+00  0.10832060561E+03  0.10832060561E+03  0.00000000000E+00 0. -1.
         -1   -1    0    0    0  501 -0.00000000000E+00 -0.00000000000E+00 -0.26360993441E+03  0.26360993441E+03  0.00000000000E+00 0.  1.
         23    2    1    2    0    0  0.46890568389E+02  0.10944092331E+03 -0.15644982694E+02  0.14989076732E+03  0.89701926107E+02 0.  0.
          5    1    1    2  502    0 -0.54953501759E+02  0.66350895622E+01 -0.54130615594E+02  0.77563685534E+02  0.47000000000E+01 0.  1.
         -5    1    1    2    0  502  0.80629333695E+01 -0.11607601287E+03 -0.85513730512E+02  0.14447608717E+03  0.47000000000E+01 0.  1.
        -11    1    3    3    0    0  0.59352687834E+02  0.89858014452E+02 -0.41259308368E+02  0.11532360921E+03  0.00000000000E+00 0.  1.
         11    1    3    3    0    0 -0.12462119445E+02  0.19582908854E+02  0.25614325674E+02  0.34567158112E+02  0.00000000000E+00 0. -1.
<mgrwt>
<rscale>  0 0.16641262E+03</rscale>
<asrwt>0</asrwt>
<pdfrwt beam="1">  1        1 0.16664709E-01 0.17263000E+03</pdfrwt>
<pdfrwt beam="2">  1       -1 0.40555375E-01 0.17263000E+03</pdfrwt>
<totfact> 0.19206876E+03</totfact>
</mgrwt>
</event>
<event>
 7    1  0.5107591E-006  0.2150333E+03  0.7546771E-02  0.1141124E+00
          2   -1    0    0  501    0  0.00000000000E+00  0.00000000000E+00  0.19276678543E+03  0.19276678543E+03  0.00000000000E+00 0. -1.
         -2   -1    0    0    0  501 -0.00000000000E+00 -0.00000000000E+00 -0.25406953010E+03  0.25406953010E+03  0.00000000000E+00 0.  1.
         23    2    1    2    0    0 -0.14394246110E+03 -0.99471568945E+02  0.51116572573E+02  0.20418960517E+03  0.92013399741E+02 0.  0.
          5    1    1    2  502    0  0.16839389133E+02  0.82383939649E+02 -0.62800941286E+02  0.10505582690E+03  0.47000000000E+01 0.  1.
         -5    1    1    2    0  502  0.12710307197E+03  0.17087629297E+02 -0.49618375964E+02  0.13759088346E+03  0.47000000000E+01 0.  1.
        -11    1    3    3    0    0 -0.11126173196E+03 -0.11543048396E+03  0.33529544181E+02  0.16379133054E+03  0.00000000000E+00 0.  1.
         11    1    3    3    0    0 -0.32680729143E+02  0.15958915016E+02  0.17587028392E+02  0.40398274635E+02  0.00000000000E+00 0. -1.
<mgrwt>
<rscale>  0 0.21055924E+03</rscale>
<asrwt>0</asrwt>
<pdfrwt beam="1">  1        2 0.29656429E-01 0.21503331E+03</pdfrwt>
<pdfrwt beam="2">  1       -2 0.39087620E-01 0.21503331E+03</pdfrwt>
<totfact> 0.11016108E+03</totfact>
</mgrwt>
</event>
<event>
 7    1  0.5107591E-006  0.1551890E+03  0.7546771E-02  0.1202747E+00
          2   -1    0    0  501    0  0.00000000000E+00  0.00000000000E+00  0.38378356955E+02  0.38378356955E+02  0.00000000000E+00 0. -1.
         -2   -1    0    0    0  501 -0.00000000000E+00 -0.00000000000E+00 -0.11439831993E+04  0.11439831993E+04  0.00000000000E+00 0.  1.
         23    2    1    2    0    0  0.88995974654E+02  0.23284840576E+02 -0.95627413876E+02  0.16053082497E+03  0.90349743643E+02 0.  0.
          5    1    1    2  502    0 -0.11684884611E+03  0.83025930814E+00 -0.71069977876E+03  0.72025732047E+03  0.47000000000E+01 0.  1.
         -5    1    1    2    0  502  0.27852871459E+02 -0.24115099884E+02 -0.29927764976E+03  0.30157341085E+03  0.47000000000E+01 0.  1.
        -11    1    3    3    0    0  0.74365387376E+02  0.39282100687E+02 -0.10696283622E+03  0.13606741934E+03  0.00000000000E+00 0.  1.
         11    1    3    3    0    0  0.14630587278E+02 -0.15997260111E+02  0.11335422347E+02  0.24463405629E+02  0.00000000000E+00 0. -1.
<mgrwt>
<rscale>  0 0.14816402E+03</rscale>
<asrwt>0</asrwt>
<pdfrwt beam="1">  1        2 0.59043621E-02 0.15518904E+03</pdfrwt>
<pdfrwt beam="2">  1       -2 0.17599743E+00 0.15518904E+03</pdfrwt>
<totfact> 0.25947208E+02</totfact>
</mgrwt>
</event>
<event>
 7    1  0.5107591E-006  0.1583731E+03  0.7546771E-02  0.1198216E+00
          2   -1    0    0  501    0  0.00000000000E+00  0.00000000000E+00  0.41806030608E+02  0.41806030608E+02  0.00000000000E+00 0. -1.
         -2   -1    0    0    0  501 -0.00000000000E+00 -0.00000000000E+00 -0.70086770628E+03  0.70086770628E+03  0.00000000000E+00 0.  1.
         23    2    1    2    0    0  0.82456734523E+01 -0.96927613477E+02 -0.11644282808E+03  0.17741517267E+03  0.91947038535E+02 0.  0.
          5    1    1    2  502    0  0.14926012957E+02  0.12078676373E+03 -0.46494111933E+03  0.48062934013E+03  0.47000000000E+01 0. -1.
         -5    1    1    2    0  502 -0.23171686409E+02 -0.23859150252E+02 -0.77677728266E+02  0.84629224091E+02  0.47000000000E+01 0. -1.
        -11    1    3    3    0    0 -0.29099649252E+02 -0.21056905675E+02 -0.75182877697E+02  0.83322553741E+02  0.00000000000E+00 0.  1.
         11    1    3    3    0    0  0.37345322704E+02 -0.75870707803E+02 -0.41259950384E+02  0.94092618925E+02  0.00000000000E+00 0. -1.
<mgrwt>
<rscale>  0 0.15185175E+03</rscale>
<asrwt>0</asrwt>
<pdfrwt beam="1">  1        2 0.64316971E-02 0.15837307E+03</pdfrwt>
<pdfrwt beam="2">  1       -2 0.10782580E+00 0.15837307E+03</pdfrwt>
<totfact> 0.79489772E+02</totfact>
</mgrwt>
</event>
<event>
 7    1  0.5107591E-006  0.1243217E+03  0.7546771E-02  0.1248338E+00
          2   -1    0    0  501    0  0.00000000000E+00  0.00000000000E+00  0.33474543540E+03  0.33474543540E+03  0.00000000000E+00 0. -1.
         -2   -1    0    0    0  501 -0.00000000000E+00 -0.00000000000E+00 -0.40116121605E+02  0.40116121605E+02  0.00000000000E+00 0.  1.
         23    2    1    2    0    0 -0.18795205868E+02  0.24047615253E+02  0.18573359839E+03  0.20959161314E+03  0.92196134199E+02 0.  0.
          5    1    1    2  502    0  0.14399231231E+01 -0.71250341204E+02  0.79326515958E+02  0.10674020158E+03  0.47000000000E+01 0. -1.
         -5    1    1    2    0  502  0.17355282745E+02  0.47202725950E+02  0.29569199442E+02  0.58529742285E+02  0.47000000000E+01 0.  1.
        -11    1    3    3    0    0 -0.43313942199E+02 -0.14782095107E+02  0.58184726377E+02  0.74027496974E+02  0.00000000000E+00 0. -1.
         11    1    3    3    0    0  0.24518736331E+02  0.38829710360E+02  0.12754887202E+03  0.13556411616E+03  0.00000000000E+00 0.  1.
<mgrwt>
<rscale>  0 0.11687826E+03</rscale>
<asrwt>0</asrwt>
<pdfrwt beam="1">  1        2 0.51499296E-01 0.12432167E+03</pdfrwt>
<pdfrwt beam="2">  1       -2 0.61717113E-02 0.12432167E+03</pdfrwt>
<totfact> 0.12870117E+04</totfact>
</mgrwt>
</event>
<event>
 7    1  0.5107591E-006  0.1774289E+03  0.7546771E-02  0.1175599E+00
          4   -1    0    0  501    0  0.00000000000E+00  0.00000000000E+00  0.20753299480E+03  0.20753299480E+03  0.00000000000E+00 0. -1.
         -4   -1    0    0    0  501 -0.00000000000E+00 -0.00000000000E+00 -0.17816675744E+03  0.17816675744E+03  0.00000000000E+00 0.  1.
         23    2    1    2    0    0 -0.65429655598E+02 -0.10758427982E+03  0.10881830482E+03  0.19129388625E+03  0.94321314433E+02 0.  0.
          5    1    1    2  502    0  0.66836222197E+02  0.12453907639E+03 -0.95424151053E+02  0.17060164345E+03  0.47000000000E+01 0.  1.
         -5    1    1    2    0  502 -0.14065665990E+01 -0.16954796568E+02  0.15972083588E+02  0.23804222533E+02  0.47000000000E+01 0.  1.
        -11    1    3    3    0    0  0.14089548515E+01 -0.76847542841E+02  0.83506553449E+02  0.11349394021E+03  0.00000000000E+00 0. -1.
         11    1    3    3    0    0 -0.66838610450E+02 -0.30736736977E+02  0.25311751375E+02  0.77799946044E+02  0.00000000000E+00 0.  1.
<mgrwt>
<rscale>  0 0.17217472E+03</rscale>
<asrwt>0</asrwt>
<pdfrwt beam="1">  1        4 0.31928153E-01 0.17742889E+03</pdfrwt>
<pdfrwt beam="2">  1       -4 0.27410270E-01 0.17742889E+03</pdfrwt>
<totfact> 0.20779376E+02</totfact>
</mgrwt>
</event>
<event>
 7    1  0.5107591E-006  0.2195156E+03  0.7546771E-02  0.1138744E+00
          1   -1    0    0  501    0  0.00000000000E+00  0.00000000000E+00  0.17201729559E+03  0.17201729559E+03  0.00000000000E+00 0. -1.
         -1   -1    0    0    0  501 -0.00000000000E+00 -0.00000000000E+00 -0.28567701341E+03  0.28567701341E+03  0.00000000000E+00 0.  1.
         23    2    1    2    0    0  0.13493017612E+03 -0.11981523129E+03  0.24495925789E+02  0.19832181571E+03  0.78547120431E+02 0.  0.
          5    1    1    2  502    0 -0.64310043244E+02 -0.43151043247E+01 -0.85306738469E+02  0.10702210713E+03  0.47000000000E+01 0. -1.
         -5    1    1    2    0  502 -0.70620132875E+02  0.12413033562E+03 -0.52848905132E+02  0.15235038616E+03  0.47000000000E+01 0. -1.
        -11    1    3    3    0    0  0.88344581667E+02 -0.11158030783E+03  0.41180690909E+02  0.14815795459E+03  0.00000000000E+00 0.  1.
         11    1    3    3    0    0  0.46585594452E+02 -0.82349234641E+01 -0.16684765120E+02  0.50163861115E+02  0.00000000000E+00 0. -1.
<mgrwt>
<rscale>  0 0.21360288E+03</rscale>
<asrwt>0</asrwt>
<pdfrwt beam="1">  1        1 0.26464200E-01 0.21951562E+03</pdfrwt>
<pdfrwt beam="2">  1       -1 0.43950309E-01 0.21951562E+03</pdfrwt>
<totfact> 0.92521804E+02</totfact>
</mgrwt>
</event>
<event>
 7    1  0.5107591E-006  0.1600601E+03  0.7546771E-02  0.1196264E+00
          4   -1    0    0  501    0  0.00000000000E+00  0.00000000000E+00  0.66869350351E+03  0.66869350351E+03  0.00000000000E+00 0. -1.
         -4   -1    0    0    0  501 -0.00000000000E+00 -0.00000000000E+00 -0.33021406397E+02  0.33021406397E+02  0.00000000000E+00 0.  1.
         23    2    1    2    0    0  0.68151590329E+01 -0.99740036683E+02  0.33023418613E+03  0.35687938351E+03  0.91179796994E+02 0.  0.
          5    1    1    2  502    0 -0.40501254688E+02  0.61695468526E+02  0.63192120020E+02  0.97272897050E+02  0.47000000000E+01 0.  1.
         -5    1    1    2    0  502  0.33686095655E+02  0.38044568157E+02  0.24224579096E+03  0.24756262934E+03  0.47000000000E+01 0.  1.
        -11    1    3    3    0    0  0.77513538416E+01 -0.56506463187E+02  0.29676619545E+03  0.30219735047E+03  0.00000000000E+00 0. -1.
         11    1    3    3    0    0 -0.93619480870E+00 -0.43233573497E+02  0.33467990677E+02  0.54682033045E+02  0.00000000000E+00 0.  1.
<mgrwt>
<rscale>  0 0.15347695E+03</rscale>
<asrwt>0</asrwt>
<pdfrwt beam="1">  1        4 0.10287591E+00 0.16006006E+03</pdfrwt>
<pdfrwt beam="2">  1       -4 0.50802169E-02 0.16006006E+03</pdfrwt>
<totfact> 0.31984845E+02</totfact>
</mgrwt>
</event>
<event>
 7    1  0.5107591E-006  0.1375945E+03  0.7546771E-02  0.1228694E+00
          2   -1    0    0  501    0  0.00000000000E+00  0.00000000000E+00  0.33029033308E+03  0.33029033308E+03  0.00000000000E+00 0. -1.
         -2   -1    0    0    0  501 -0.00000000000E+00 -0.00000000000E+00 -0.54207014199E+02  0.54207014199E+02  0.00000000000E+00 0.  1.
         23    2    1    2    0    0  0.28566537669E+02  0.49911743954E+02  0.20126682131E+03  0.22787759831E+03  0.90070179268E+02 0.  0.
          5    1    1    2  502    0 -0.12412816861E+02 -0.89123736021E+01  0.10291269571E+03  0.10414711405E+03  0.47000000000E+01 0. -1.
         -5    1    1    2    0  502 -0.16153720808E+02 -0.40999370352E+02 -0.28096198143E+02  0.52472634918E+02  0.47000000000E+01 0. -1.
        -11    1    3    3    0    0  0.38732603097E+02  0.57836086704E+02  0.20324749674E+03  0.21483661792E+03  0.00000000000E+00 0. -1.
         11    1    3    3    0    0 -0.10166065428E+02 -0.79243427501E+01 -0.19806754350E+01  0.13040980388E+02  0.00000000000E+00 0.  1.
<mgrwt>
<rscale>  0 0.12916902E+03</rscale>
<asrwt>0</asrwt>
<pdfrwt beam="1">  1        2 0.50813896E-01 0.13759447E+03</pdfrwt>
<pdfrwt beam="2">  1       -2 0.83395408E-02 0.13759447E+03</pdfrwt>
<totfact> 0.82949655E+03</totfact>
</mgrwt>
</event>
<event>
 7    1  0.5107591E-006  0.1355605E+03  0.7546771E-02  0.1231945E+00
          1   -1    0    0  501    0  0.00000000000E+00  0.00000000000E+00  0.25911360900E+03  0.25911360900E+03  0.00000000000E+00 0. -1.
         -1   -1    0    0    0  501 -0.00000000000E+00 -0.00000000000E+00 -0.62494078128E+02  0.62494078128E+02  0.00000000000E+00 0.  1.
         23    2    1    2    0    0  0.29276981688E+02  0.43534219650E+02  0.14000132805E+03  0.17469862732E+03  0.90370728634E+02 0.  0.
          5    1    1    2  502    0 -0.44246038022E+02 -0.49629881336E+02  0.88537638725E+02  0.11082346535E+03  0.47000000000E+01 0.  1.
         -5    1    1    2    0  502  0.14969056334E+02  0.60956616852E+01 -0.31919435903E+02  0.36085594456E+02  0.47000000000E+01 0.  1.
        -11    1    3    3    0    0  0.28093648912E+02  0.92561605690E+01  0.13712585325E+03  0.14027982481E+03  0.00000000000E+00 0. -1.
         11    1    3    3    0    0  0.11833327759E+01  0.34278059081E+02  0.28754747946E+01  0.34418802509E+02  0.00000000000E+00 0.  1.
<mgrwt>
<rscale>  0 0.12702053E+03</rscale>
<asrwt>0</asrwt>
<pdfrwt beam="1">  1        1 0.39863632E-01 0.13556051E+03</pdfrwt>
<pdfrwt beam="2">  1       -1 0.96144737E-02 0.13556051E+03</pdfrwt>
<totfact> 0.65136931E+03</totfact>
</mgrwt>
</event>
<event>
 7    1  0.5107591E-006  0.1503048E+03  0.7546771E-02  0.1209078E+00
          1   -1    0    0  501    0  0.00000000000E+00  0.00000000000E+00  0.21386650300E+02  0.21386650300E+02  0.00000000000E+00 0. -1.
         -1   -1    0    0    0  501 -0.00000000000E+00 -0.00000000000E+00 -0.88126834457E+03  0.88126834457E+03  0.00000000000E+00 0.  1.
         23    2    1    2    0    0 -0.78981209529E+02  0.27027701248E+02 -0.36419794733E+03  0.38468404002E+03  0.91504850767E+02 0.  0.
          5    1    1    2  502    0  0.58051278675E+02 -0.73338099665E+02 -0.38274124534E+03  0.39403220516E+03  0.47000000000E+01 0.  1.
         -5    1    1    2    0  502  0.20929930854E+02  0.46310398417E+02 -0.11294250159E+03  0.12393874968E+03  0.47000000000E+01 0.  1.
        -11    1    3    3    0    0 -0.12377491980E+02  0.46793429658E+02 -0.94415241672E+02  0.10609931775E+03  0.00000000000E+00 0.  1.
         11    1    3    3    0    0 -0.66603717549E+02 -0.19765728410E+02 -0.26978270566E+03  0.27858472227E+03  0.00000000000E+00 0. -1.
<mgrwt>
<rscale>  0 0.14320682E+03</rscale>
<asrwt>0</asrwt>
<pdfrwt beam="1">  1        1 0.32902540E-02 0.15030480E+03</pdfrwt>
<pdfrwt beam="2">  1       -1 0.13557974E+00 0.15030480E+03</pdfrwt>
<totfact> 0.14376137E+03</totfact>
</mgrwt>
</event>
<event>
 7    1  0.5107591E-006  0.1534641E+03  0.7546771E-02  0.1208756E+00
          1   -1    0    0  501    0  0.00000000000E+00  0.00000000000E+00  0.85701044197E+02  0.85701044197E+02  0.00000000000E+00 0. -1.
         -1   -1    0    0    0  501 -0.00000000000E+00 -0.00000000000E+00 -0.22154893525E+03  0.22154893525E+03  0.00000000000E+00 0.  1.
         23    2    1    2    0    0  0.58757417504E+02  0.46012305970E+02 -0.30407539495E+02  0.12105413206E+03  0.90332264541E+02 0.  0.
          5    1    1    2  502    0 -0.67809963117E+02 -0.56942318821E+01  0.47923597786E+01  0.68378886266E+02  0.47000000000E+01 0. -1.
         -5    1    1    2    0  502  0.90525456129E+01 -0.40318074088E+02 -0.11023271134E+03  0.11781696112E+03  0.47000000000E+01 0.  1.
        -11    1    3    3    0    0 -0.10324711833E+01 -0.19378606507E+02 -0.25861471000E+02  0.32332832681E+02  0.00000000000E+00 0.  1.
         11    1    3    3    0    0  0.59789888688E+02  0.65390912478E+02 -0.45460684949E+01  0.88721299375E+02  0.00000000000E+00 0. -1.
<mgrwt>
<rscale>  0 0.14345373E+03</rscale>
<asrwt>0</asrwt>
<pdfrwt beam="1">  1        1 0.13184776E-01 0.15346409E+03</pdfrwt>
<pdfrwt beam="2">  1       -1 0.34084452E-01 0.15346409E+03</pdfrwt>
<totfact> 0.35078572E+03</totfact>
</mgrwt>
</event>
<event>
 7    1  0.5107591E-006  0.1284819E+03  0.7546771E-02  0.1244281E+00
         -1   -1    0    0    0  501 -0.00000000000E+00  0.00000000000E+00  0.11194903504E+03  0.11194903504E+03  0.00000000000E+00 0.  1.
          1   -1    0    0  501    0  0.00000000000E+00 -0.00000000000E+00 -0.16389720156E+03  0.16389720156E+03  0.00000000000E+00 0. -1.
         23    2    1    2    0    0 -0.21656361856E+02  0.20318329109E+02 -0.10039429407E+03  0.13853409824E+03  0.90724029826E+02 0.  0.
          5    1    1    2  502    0  0.50741264537E+02  0.35357627657E+02  0.82032380776E+01  0.62563734506E+02  0.47000000000E+01 0.  1.
         -5    1    1    2    0  502 -0.29084902681E+02 -0.55675956766E+02  0.40242889469E+02  0.74748403853E+02  0.47000000000E+01 0.  1.
        -11    1    3    3    0    0 -0.54130838818E+02  0.25691946999E+02 -0.48530023339E+02  0.77106335777E+02  0.00000000000E+00 0. -1.
         11    1    3    3    0    0  0.32474476962E+02 -0.53736178902E+01 -0.51864270730E+02  0.61427762466E+02  0.00000000000E+00 0.  1.
<mgrwt>
<rscale>  0 0.11928538E+03</rscale>
<asrwt>0</asrwt>
<pdfrwt beam="2">  1        1 0.25214954E-01 0.12848189E+03</pdfrwt>
<pdfrwt beam="1">  1       -1 0.17222929E-01 0.12848189E+03</pdfrwt>
<totfact> 0.46442208E+03</totfact>
</mgrwt>
</event>
<event>
 7    1  0.5107591E-006  0.1112567E+03  0.7546771E-02  0.1268181E+00
          2   -1    0    0  501    0  0.00000000000E+00  0.00000000000E+00  0.12620302930E+03  0.12620302930E+03  0.00000000000E+00 0. -1.
         -2   -1    0    0    0  501 -0.00000000000E+00 -0.00000000000E+00 -0.12305596660E+03  0.12305596660E+03  0.00000000000E+00 0.  1.
         23    2    1    2    0    0 -0.10814370707E+02  0.39051665557E+01  0.73630186749E+02  0.11755506317E+03  0.90915276694E+02 0.  0.
          5    1    1    2  502    0 -0.32109681544E+01  0.51641676916E+02 -0.21672464287E+02  0.56293506015E+02  0.47000000000E+01 0. -1.
         -5    1    1    2    0  502  0.14025338861E+02 -0.55546843471E+02 -0.48810659762E+02  0.75410426708E+02  0.47000000000E+01 0.  1.
        -11    1    3    3    0    0 -0.56417235882E+01  0.34653788280E+02  0.78502272222E+02  0.85996051254E+02  0.00000000000E+00 0. -1.
         11    1    3    3    0    0 -0.51726471187E+01 -0.30748621725E+02 -0.48720854732E+01  0.31559011915E+02  0.00000000000E+00 0.  1.
<mgrwt>
<rscale>  0 0.10599009E+03</rscale>
<asrwt>0</asrwt>
<pdfrwt beam="1">  1        2 0.19415851E-01 0.11125671E+03</pdfrwt>
<pdfrwt beam="2">  1       -2 0.18931687E-01 0.11125671E+03</pdfrwt>
<totfact> 0.62131311E+03</totfact>
</mgrwt>
</event>
<event>
 7    1  0.5107591E-006  0.1313034E+03  0.7546771E-02  0.1237991E+00
         -1   -1    0    0    0  501 -0.00000000000E+00  0.00000000000E+00  0.10966388830E+03  0.10966388830E+03  0.00000000000E+00 0.  1.
          1   -1    0    0  501    0  0.00000000000E+00 -0.00000000000E+00 -0.19035536823E+03  0.19035536823E+03  0.00000000000E+00 0. -1.
         23    2    1    2    0    0  0.42167915859E+02 -0.17747594271E+02 -0.12532704950E+03  0.16133647135E+03  0.90716467197E+02 0.  0.
          5    1    1    2  502    0 -0.81382990121E+02  0.12232405011E+02  0.51953579262E+01  0.82594821614E+02  0.47000000000E+01 0.  1.
         -5    1    1    2    0  502  0.39215074262E+02  0.55151892601E+01  0.39440211642E+02  0.56087963560E+02  0.47000000000E+01 0.  1.
        -11    1    3    3    0    0  0.38348543563E+02  0.31284114542E+02 -0.43618148971E+02  0.65968549596E+02  0.00000000000E+00 0.  1.
         11    1    3    3    0    0  0.38193722961E+01 -0.49031708813E+02 -0.81708900533E+02  0.95367921757E+02  0.00000000000E+00 0. -1.
<mgrwt>
<rscale>  0 0.12314890E+03</rscale>
<asrwt>0</asrwt>
<pdfrwt beam="2">  1        1 0.29285441E-01 0.13130339E+03</pdfrwt>
<pdfrwt beam="1">  1       -1 0.16871368E-01 0.13130339E+03</pdfrwt>
<totfact> 0.39859156E+03</totfact>
</mgrwt>
</event>
<event>
 7    1  0.5107591E-006  0.1274100E+03  0.7546771E-02  0.1246503E+00
         -2   -1    0    0    0  501 -0.00000000000E+00  0.00000000000E+00  0.62821797117E+02  0.62821797117E+02  0.00000000000E+00 0. -1.
          2   -1    0    0  501    0  0.00000000000E+00 -0.00000000000E+00 -0.20866700373E+03  0.20866700373E+03  0.00000000000E+00 0.  1.
         23    2    1    2    0    0 -0.23719788349E+02  0.67577899873E+01 -0.97646280176E+02  0.13526679116E+03  0.90299571835E+02 0.  0.
          5    1    1    2  502    0 -0.34263997171E+02 -0.35802889990E+02 -0.50832383768E+02  0.71146958285E+02  0.47000000000E+01 0. -1.
         -5    1    1    2    0  502  0.57983785520E+02  0.29045100003E+02  0.26334573323E+01  0.65075051401E+02  0.47000000000E+01 0. -1.
        -11    1    3    3    0    0 -0.44896294749E+02  0.34418500904E+02 -0.74070917002E+02  0.93203064500E+02  0.00000000000E+00 0. -1.
         11    1    3    3    0    0  0.21176506400E+02 -0.27660710916E+02 -0.23575363174E+02  0.42063726660E+02  0.00000000000E+00 0.  1.
<mgrwt>
<rscale>  0 0.11795867E+03</rscale>
<asrwt>0</asrwt>
<pdfrwt beam="2">  1        2 0.32102615E-01 0.12740997E+03</pdfrwt>
<pdfrwt beam="1">  1       -2 0.96648921E-02 0.12740997E+03</pdfrwt>
<totfact> 0.10685412E+04</totfact>
</mgrwt>
</event>
<event>
 7    1  0.5107591E-006  0.1496593E+03  0.7546771E-02  0.1209566E+00
         -1   -1    0    0    0  501 -0.00000000000E+00  0.00000000000E+00  0.62676501415E+03  0.62676501415E+03  0.00000000000E+00 0.  1.
          1   -1    0    0  501    0  0.00000000000E+00 -0.00000000000E+00 -0.29986056426E+02  0.29986056426E+02  0.00000000000E+00 0. -1.
         23    2    1    2    0    0 -0.79423578269E+02  0.21572125597E+02  0.28730716827E+03  0.31299144088E+03  0.92977264625E+02 0.  0.
          5    1    1    2  502    0  0.15243553573E+02  0.47347732160E+02  0.15427372819E+03  0.16216240895E+03  0.47000000000E+01 0. -1.
         -5    1    1    2    0  502  0.64180024697E+02 -0.68919857757E+02  0.15519806126E+03  0.18159722075E+03  0.47000000000E+01 0. -1.
        -11    1    3    3    0    0 -0.68099528976E+02  0.13565419348E+02  0.29056377225E+03  0.29874549736E+03  0.00000000000E+00 0.  1.
         11    1    3    3    0    0 -0.11324049293E+02  0.80067062496E+01 -0.32566039782E+01  0.14245943522E+02  0.00000000000E+00 0. -1.
<mgrwt>
<rscale>  0 0.14283414E+03</rscale>
<asrwt>0</asrwt>
<pdfrwt beam="2">  1        1 0.46132399E-02 0.14965926E+03</pdfrwt>
<pdfrwt beam="1">  1       -1 0.96425377E-01 0.14965926E+03</pdfrwt>
<totfact> 0.19855667E+03</totfact>
</mgrwt>
</event>
<event>
 7    1  0.5107591E-006  0.1762885E+03  0.7546771E-02  0.1178347E+00
          1   -1    0    0  501    0  0.00000000000E+00  0.00000000000E+00  0.86555700790E+03  0.86555700790E+03  0.00000000000E+00 0. -1.
         -1   -1    0    0    0  501 -0.00000000000E+00 -0.00000000000E+00 -0.31033208513E+02  0.31033208513E+02  0.00000000000E+00 0.  1.
         23    2    1    2    0    0 -0.62206049741E+02 -0.10762578722E+03  0.41513836292E+03  0.44165967667E+03  0.85267267623E+02 0.  0.
          5    1    1    2  502    0  0.35997682260E+02  0.12117215777E+03  0.22377720281E+03  0.25705417998E+03  0.47000000000E+01 0.  1.
         -5    1    1    2    0  502  0.26208367481E+02 -0.13546370550E+02  0.19560823366E+03  0.19787635977E+03  0.47000000000E+01 0.  1.
        -11    1    3    3    0    0 -0.44180478542E+02 -0.11639619211E+02  0.75398427871E+02  0.88160752861E+02  0.00000000000E+00 0.  1.
         11    1    3    3    0    0 -0.18025571199E+02 -0.95986168006E+02  0.33973993505E+03  0.35349892381E+03  0.00000000000E+00 0. -1.
<mgrwt>
<rscale>  0 0.16952247E+03</rscale>
<asrwt>0</asrwt>
<pdfrwt beam="1">  1        1 0.13316260E+00 0.17628855E+03</pdfrwt>
<pdfrwt beam="2">  1       -1 0.47743404E-02 0.17628855E+03</pdfrwt>
<totfact> 0.37871084E+03</totfact>
</mgrwt>
</event>
<event>
 7    1  0.5107591E-006  0.1395737E+03  0.7546771E-02  0.1224566E+00
          3   -1    0    0  501    0  0.00000000000E+00  0.00000000000E+00  0.42928249639E+03  0.42928249639E+03  0.00000000000E+00 0. -1.
         -3   -1    0    0    0  501 -0.00000000000E+00 -0.00000000000E+00 -0.37179328322E+02  0.37179328322E+02  0.00000000000E+00 0.  1.
         23    2    1    2    0    0 -0.12950425264E+02 -0.60732078507E+02  0.20008323495E+03  0.22907506534E+03  0.92660594524E+02 0.  0.
          5    1    1    2  502    0  0.43555261573E+02  0.64902408333E+02  0.52174697197E+02  0.94093955415E+02  0.47000000000E+01 0.  1.
         -5    1    1    2    0  502 -0.30604836309E+02 -0.41703298254E+01  0.13984523592E+03  0.14329280395E+03  0.47000000000E+01 0.  1.
        -11    1    3    3    0    0 -0.28531498467E+02 -0.15160526162E+01  0.14141929301E+03  0.14427668299E+03  0.00000000000E+00 0. -1.
         11    1    3    3    0    0  0.15581073203E+02 -0.59216025891E+02  0.58663941945E+02  0.84798382349E+02  0.00000000000E+00 0.  1.
<mgrwt>
<rscale>  0 0.13196670E+03</rscale>
<asrwt>0</asrwt>
<pdfrwt beam="1">  1        3 0.66043458E-01 0.13957370E+03</pdfrwt>
<pdfrwt beam="2">  1       -3 0.57198970E-02 0.13957370E+03</pdfrwt>
<totfact> 0.96014535E+02</totfact>
</mgrwt>
</event>
<event>
 7    1  0.5107591E-006  0.1443531E+03  0.7546771E-02  0.1217649E+00
          2   -1    0    0  501    0  0.00000000000E+00  0.00000000000E+00  0.36951082392E+03  0.36951082392E+03  0.00000000000E+00 0. -1.
         -2   -1    0    0    0  501 -0.00000000000E+00 -0.00000000000E+00 -0.49553185162E+02  0.49553185162E+02  0.00000000000E+00 0.  1.
         23    2    1    2    0    0  0.34274101669E+02 -0.63546053495E+02  0.19950092221E+03  0.23105432383E+03  0.91502282157E+02 0.  0.
          5    1    1    2  502    0  0.11436645414E+02  0.32737891533E+02 -0.17679005667E+02  0.39207188648E+02  0.47000000000E+01 0.  1.
         -5    1    1    2    0  502 -0.45710747083E+02  0.30808161963E+02  0.13813572221E+03  0.14880249660E+03  0.47000000000E+01 0.  1.
        -11    1    3    3    0    0 -0.19383691184E+02 -0.14054253848E+01  0.10086447955E+03  0.10271974464E+03  0.00000000000E+00 0. -1.
         11    1    3    3    0    0  0.53657792854E+02 -0.62140628110E+02  0.98636442658E+02  0.12833457919E+03  0.00000000000E+00 0.  1.
<mgrwt>
<rscale>  0 0.13683714E+03</rscale>
<asrwt>0</asrwt>
<pdfrwt beam="1">  1        2 0.56847817E-01 0.14435311E+03</pdfrwt>
<pdfrwt beam="2">  1       -2 0.76235672E-02 0.14435311E+03</pdfrwt>
<totfact> 0.84842246E+03</totfact>
</mgrwt>
</event>
<event>
 7    1  0.5107591E-006  0.1484224E+03  0.7546771E-02  0.1211138E+00
         -2   -1    0    0    0  501 -0.00000000000E+00  0.00000000000E+00  0.67184335154E+02  0.67184335154E+02  0.00000000000E+00 0.  1.
          2   -1    0    0  501    0  0.00000000000E+00 -0.00000000000E+00 -0.28168661912E+03  0.28168661912E+03  0.00000000000E+00 0. -1.
         23    2    1    2    0    0 -0.54765208219E+02  0.58354398547E+02 -0.12556577249E+03  0.17584233936E+03  0.93537699505E+02 0.  0.
          5    1    1    2  502    0  0.27433245489E+02 -0.26434486369E+01 -0.10508077837E+03  0.10873651991E+03  0.47000000000E+01 0.  1.
         -5    1    1    2    0  502  0.27331962730E+02 -0.55710949910E+02  0.16144266898E+02  0.64292095006E+02  0.47000000000E+01 0.  1.
        -11    1    3    3    0    0 -0.19280302264E+02 -0.67098226809E+01  0.89276291898E+01  0.22281255322E+02  0.00000000000E+00 0.  1.
         11    1    3    3    0    0 -0.35484905955E+02  0.65064221228E+02 -0.13449340168E+03  0.15356108404E+03  0.00000000000E+00 0. -1.
<mgrwt>
<rscale>  0 0.14164119E+03</rscale>
<asrwt>0</asrwt>
<pdfrwt beam="2">  1        2 0.43336402E-01 0.14842237E+03</pdfrwt>
<pdfrwt beam="1">  1       -2 0.10336052E-01 0.14842237E+03</pdfrwt>
<totfact> 0.70565580E+03</totfact>
</mgrwt>
</event>
<event>
 7    1  0.5107591E-006  0.1388741E+03  0.7546771E-02  0.1226159E+00
          1   -1    0    0  501    0  0.00000000000E+00  0.00000000000E+00  0.14309602213E+03  0.14309602213E+03  0.00000000000E+00 0. -1.
         -1   -1    0    0    0  501 -0.00000000000E+00 -0.00000000000E+00 -0.15706967818E+03  0.15706967818E+03  0.00000000000E+00 0.  1.
         23    2    1    2    0    0  0.60494638490E+02  0.11130579576E+01  0.77219261164E+02  0.13402670314E+03  0.91320877542E+02 0.  0.
          5    1    1    2  502    0  0.30526430110E+02 -0.68789950921E+01  0.66114219078E+01  0.32326218591E+02  0.47000000000E+01 0. -1.
         -5    1    1    2    0  502 -0.91021068600E+02  0.57659371346E+01 -0.97804339120E+02  0.13381277858E+03  0.47000000000E+01 0. -1.
        -11    1    3    3    0    0 -0.23961059006E+02 -0.15561227128E+01  0.98245730942E+01  0.25943710280E+02  0.00000000000E+00 0. -1.
         11    1    3    3    0    0  0.84455697496E+02  0.26691806703E+01  0.67394688070E+02  0.10808299286E+03  0.00000000000E+00 0.  1.
<mgrwt>
<rscale>  0 0.13087755E+03</rscale>
<asrwt>0</asrwt>
<pdfrwt beam="1">  1        1 0.22014773E-01 0.13887411E+03</pdfrwt>
<pdfrwt beam="2">  1       -1 0.24164566E-01 0.13887411E+03</pdfrwt>
<totfact> 0.32092028E+03</totfact>
</mgrwt>
</event>
<event>
 7    1  0.5107591E-006  0.1385163E+03  0.7546771E-02  0.1222175E+00
         -2   -1    0    0    0  501 -0.00000000000E+00  0.00000000000E+00  0.16300310171E+04  0.16300310171E+04  0.00000000000E+00 0.  1.
          2   -1    0    0  501    0  0.00000000000E+00 -0.00000000000E+00 -0.12131753420E+02  0.12131753420E+02  0.00000000000E+00 0. -1.
         23    2    1    2    0    0  0.65624312089E+02 -0.43122701781E+02  0.43696298090E+03  0.45313070119E+03  0.90689954975E+02 0.  0.
          5    1    1    2  502    0  0.33865605802E+01 -0.33981017203E+02  0.25482055895E+03  0.25714156721E+03  0.47000000000E+01 0. -1.
         -5    1    1    2    0  502 -0.69010872670E+02  0.77103718983E+02  0.92611572384E+03  0.93189050213E+03  0.47000000000E+01 0.  1.
        -11    1    3    3    0    0 -0.17905241056E+02 -0.24313092308E+02  0.17339058267E+03  0.17600005191E+03  0.00000000000E+00 0.  1.
         11    1    3    3    0    0  0.83529553145E+02 -0.18809609473E+02  0.26357239823E+03  0.27713064928E+03  0.00000000000E+00 0. -1.
<mgrwt>
<rscale>  0 0.13362452E+03</rscale>
<asrwt>0</asrwt>
<pdfrwt beam="2">  1        2 0.18664249E-02 0.13851627E+03</pdfrwt>
<pdfrwt beam="1">  1       -2 0.25077383E+00 0.13851627E+03</pdfrwt>
<totfact> 0.42126859E+02</totfact>
</mgrwt>
</event>
<event>
 7    1  0.5107591E-006  0.1345480E+03  0.7546771E-02  0.1232574E+00
         -1   -1    0    0    0  501 -0.00000000000E+00  0.00000000000E+00  0.12269899928E+02  0.12269899928E+02  0.00000000000E+00 0.  1.
          1   -1    0    0  501    0  0.00000000000E+00 -0.00000000000E+00 -0.11791783854E+04  0.11791783854E+04  0.00000000000E+00 0. -1.
         23    2    1    2    0    0  0.43606813848E+02 -0.24083193336E+02 -0.55216872981E+03  0.56215651506E+03  0.92995090312E+02 0.  0.
          5    1    1    2  502    0  0.34485119640E+02  0.40948442495E+02 -0.28076564214E+03  0.28586261425E+03  0.47000000000E+01 0.  1.
         -5    1    1    2    0  502 -0.78091933488E+02 -0.16865249159E+02 -0.33397411351E+03  0.34342915601E+03  0.47000000000E+01 0.  1.
        -11    1    3    3    0    0  0.31887357581E+02  0.33464793318E+02 -0.21523379652E+03  0.22014150706E+03  0.00000000000E+00 0.  1.
         11    1    3    3    0    0  0.11719456267E+02 -0.57547986655E+02 -0.33693493330E+03  0.34201500800E+03  0.00000000000E+00 0. -1.
<mgrwt>
<rscale>  0 0.12661002E+03</rscale>
<asrwt>0</asrwt>
<pdfrwt beam="2">  1        1 0.18141206E+00 0.13454800E+03</pdfrwt>
<pdfrwt beam="1">  1       -1 0.18876769E-02 0.13454800E+03</pdfrwt>
<totfact> 0.85714327E+03</totfact>
</mgrwt>
</event>
<event>
 7    1  0.5107591E-006  0.1324541E+03  0.7546771E-02  0.1235308E+00
          1   -1    0    0  501    0  0.00000000000E+00  0.00000000000E+00  0.15319572956E+03  0.15319572956E+03  0.00000000000E+00 0. -1.
         -1   -1    0    0    0  501 -0.00000000000E+00 -0.00000000000E+00 -0.10384346697E+03  0.10384346697E+03  0.00000000000E+00 0.  1.
         23    2    1    2    0    0 -0.38343518062E+02  0.21217940535E+02  0.65854052744E+02  0.12356107902E+03  0.94921850005E+02 0.  0.
          5    1    1    2  502    0 -0.27722547068E+02  0.35477336500E+02 -0.54528272126E+01  0.45596100115E+02  0.47000000000E+01 0. -1.
         -5    1    1    2    0  502  0.66066065131E+02 -0.56695277034E+02 -0.11048962935E+02  0.87882017397E+02  0.47000000000E+01 0. -1.
        -11    1    3    3    0    0 -0.39375632408E+02 -0.20053733174E+02 -0.18898381694E+01  0.44228544291E+02  0.00000000000E+00 0.  1.
         11    1    3    3    0    0  0.10321143457E+01  0.41271673709E+02  0.67743890913E+02  0.79332534731E+02  0.00000000000E+00 0. -1.
<mgrwt>
<rscale>  0 0.12484742E+03</rscale>
<asrwt>0</asrwt>
<pdfrwt beam="1">  1        1 0.23568574E-01 0.13245414E+03</pdfrwt>
<pdfrwt beam="2">  1       -1 0.15975918E-01 0.13245414E+03</pdfrwt>
<totfact> 0.57027217E+03</totfact>
</mgrwt>
</event>
<event>
 7    1  0.5107591E-006  0.1599298E+03  0.7546771E-02  0.1196416E+00
         -1   -1    0    0    0  501 -0.00000000000E+00  0.00000000000E+00  0.10439075637E+03  0.10439075637E+03  0.00000000000E+00 0.  1.
          1   -1    0    0  501    0  0.00000000000E+00 -0.00000000000E+00 -0.20862057448E+03  0.20862057448E+03  0.00000000000E+00 0. -1.
         23    2    1    2    0    0 -0.78118784945E+02 -0.62043426613E+02 -0.49840978953E+02  0.14408622967E+03  0.91240270997E+02 0.  0.
          5    1    1    2  502    0 -0.18509786959E+02 -0.11894887278E+02 -0.40557278929E+02  0.46379773940E+02  0.47000000000E+01 0.  1.
         -5    1    1    2    0  502  0.96628571904E+02  0.73938313891E+02 -0.13831560225E+02  0.12254532724E+03  0.47000000000E+01 0.  1.
        -11    1    3    3    0    0 -0.31105312122E+02 -0.70961077750E+02 -0.36306256928E+01  0.77564144040E+02  0.00000000000E+00 0.  1.
         11    1    3    3    0    0 -0.47013472823E+02  0.89176511372E+01 -0.46210353260E+02  0.66522085635E+02  0.00000000000E+00 0. -1.
<mgrwt>
<rscale>  0 0.15335020E+03</rscale>
<asrwt>0</asrwt>
<pdfrwt beam="2">  1        1 0.32095473E-01 0.15992981E+03</pdfrwt>
<pdfrwt beam="1">  1       -1 0.16060116E-01 0.15992981E+03</pdfrwt>
<totfact> 0.38844282E+03</totfact>
</mgrwt>
</event>
<event>
 7    1  0.5107591E-006  0.1659695E+03  0.7546771E-02  0.1188914E+00
          2   -1    0    0  501    0  0.00000000000E+00  0.00000000000E+00  0.12960901156E+03  0.12960901156E+03  0.00000000000E+00 0.  1.
         -2   -1    0    0    0  501 -0.00000000000E+00 -0.00000000000E+00 -0.18382424970E+03  0.18382424970E+03  0.00000000000E+00 0. -1.
         23    2    1    2    0    0 -0.88304479102E+02  0.64213411385E+02 -0.21519009444E+02  0.14427383622E+03  0.91819544860E+02 0.  0.
          5    1    1    2  502    0  0.83202973864E+02 -0.99312391608E+02 -0.31221226694E+02  0.13335119416E+03  0.47000000000E+01 0.  1.
         -5    1    1    2    0  502  0.51015052382E+01  0.35098980223E+02 -0.14750020074E+01  0.35808230888E+02  0.47000000000E+01 0.  1.
        -11    1    3    3    0    0 -0.79222470043E+02  0.74473825727E+02  0.10705214136E+02  0.10925727476E+03  0.00000000000E+00 0.  1.
         11    1    3    3    0    0 -0.90820090593E+01 -0.10260414342E+02 -0.32224223580E+02  0.35016561458E+02  0.00000000000E+00 0. -1.
<mgrwt>
<rscale>  0 0.15980734E+03</rscale>
<asrwt>0</asrwt>
<pdfrwt beam="1">  1        2 0.19939848E-01 0.16596948E+03</pdfrwt>
<pdfrwt beam="2">  1       -2 0.28280654E-01 0.16596948E+03</pdfrwt>
<totfact> 0.30885853E+03</totfact>
</mgrwt>
</event>
<event>
 7    1  0.5107591E-006  0.3614054E+03  0.7546771E-02  0.1093386E+00
         -2   -1    0    0    0  501 -0.00000000000E+00  0.00000000000E+00  0.54105279195E+03  0.54105279195E+03  0.00000000000E+00 0.  1.
          2   -1    0    0  501    0  0.00000000000E+00 -0.00000000000E+00 -0.12625506024E+03  0.12625506024E+03  0.00000000000E+00 0. -1.
         23    2    1    2    0    0 -0.48386719506E+02 -0.86108055740E+02  0.34246098831E+02  0.14249033888E+03  0.96823703199E+02 0.  0.
          5    1    1    2  502    0  0.33203766386E+02  0.20493698576E+03  0.12458906283E+03  0.24216973967E+03  0.47000000000E+01 0. -1.
         -5    1    1    2    0  502  0.15182953120E+02 -0.11882893002E+03  0.25596257005E+03  0.28264777364E+03  0.47000000000E+01 0.  1.
        -11    1    3    3    0    0  0.13872671324E+02 -0.37469576279E+02  0.47832539623E+02  0.62324730268E+02  0.00000000000E+00 0.  1.
         11    1    3    3    0    0 -0.62259390830E+02 -0.48638479461E+02 -0.13586440792E+02  0.80165608612E+02  0.00000000000E+00 0. -1.
<mgrwt>
<rscale>  0 0.28425778E+03</rscale>
<asrwt>0</asrwt>
<pdfrwt beam="2">  1        2 0.19423856E-01 0.36140542E+03</pdfrwt>
<pdfrwt beam="1">  1       -2 0.83238890E-01 0.36140542E+03</pdfrwt>
<totfact> 0.37576495E+02</totfact>
</mgrwt>
</event>
<event>
 7    1  0.5107591E-006  0.1541322E+03  0.7546771E-02  0.1204448E+00
         -2   -1    0    0    0  501 -0.00000000000E+00  0.00000000000E+00  0.20047863146E+02  0.20047863146E+02  0.00000000000E+00 0.  1.
          2   -1    0    0  501    0  0.00000000000E+00 -0.00000000000E+00 -0.98481496729E+03  0.98481496729E+03  0.00000000000E+00 0. -1.
         23    2    1    2    0    0 -0.84821854218E+02  0.30600257249E+02 -0.42924060425E+03  0.44759685403E+03  0.89243065305E+02 0.  0.
          5    1    1    2  502    0  0.10536314790E+03 -0.53843598611E+01 -0.48919389136E+03  0.50046292331E+03  0.47000000000E+01 0.  1.
         -5    1    1    2    0  502 -0.20541293679E+02 -0.25215897388E+02 -0.46332608529E+02  0.56803053089E+02  0.47000000000E+01 0.  1.
        -11    1    3    3    0    0 -0.13585478264E+02 -0.28794075865E+02 -0.76371098605E+02  0.82741819697E+02  0.00000000000E+00 0.  1.
         11    1    3    3    0    0 -0.71236375954E+02  0.59394333114E+02 -0.35286950565E+03  0.36485503434E+03  0.00000000000E+00 0. -1.
<mgrwt>
<rscale>  0 0.14681077E+03</rscale>
<asrwt>0</asrwt>
<pdfrwt beam="2">  1        2 0.15150999E+00 0.15413220E+03</pdfrwt>
<pdfrwt beam="1">  1       -2 0.30842868E-02 0.15413220E+03</pdfrwt>
<totfact> 0.10577156E+04</totfact>
</mgrwt>
</event>
<event>
 7    1  0.5107591E-006  0.1587643E+03  0.7546771E-02  0.1195633E+00
          1   -1    0    0  501    0  0.00000000000E+00  0.00000000000E+00  0.31006588338E+02  0.31006588338E+02  0.00000000000E+00 0. -1.
         -1   -1    0    0    0  501 -0.00000000000E+00 -0.00000000000E+00 -0.77355980482E+03  0.77355980482E+03  0.00000000000E+00 0.  1.
         23    2    1    2    0    0 -0.10810650376E+03  0.40543679736E+01 -0.24700666652E+03  0.28420836450E+03  0.89769967665E+02 0.  0.
          5    1    1    2  502    0 -0.21246841469E+02 -0.17538263141E+02 -0.70604267553E+02  0.75934653111E+02  0.47000000000E+01 0. -1.
         -5    1    1    2    0  502  0.12935334522E+03  0.13483895168E+02 -0.42494228241E+03  0.44442337554E+03  0.47000000000E+01 0.  1.
        -11    1    3    3    0    0 -0.77465798915E+02 -0.22115568012E+02 -0.84372542740E+02  0.11665665141E+03  0.00000000000E+00 0. -1.
         11    1    3    3    0    0 -0.30640704841E+02  0.26169935986E+02 -0.16263412378E+03  0.16755171309E+03  0.00000000000E+00 0.  1.
<mgrwt>
<rscale>  0 0.15400816E+03</rscale>
<asrwt>0</asrwt>
<pdfrwt beam="1">  1        1 0.47702444E-02 0.15876427E+03</pdfrwt>
<pdfrwt beam="2">  1       -1 0.11900920E+00 0.15876427E+03</pdfrwt>
<totfact> 0.11812174E+03</totfact>
</mgrwt>
</event>
<event>
 7    1  0.5107591E-006  0.1286742E+03  0.7546771E-02  0.1244392E+00
          1   -1    0    0  501    0  0.00000000000E+00  0.00000000000E+00  0.18505660792E+03  0.18505660792E+03  0.00000000000E+00 0. -1.
         -1   -1    0    0    0  501 -0.00000000000E+00 -0.00000000000E+00 -0.46563386781E+03  0.46563386781E+03  0.00000000000E+00 0.  1.
         23    2    1    2    0    0 -0.16747037987E+02  0.26003582752E+02  0.16313935289E+03  0.18869318732E+03  0.89632699850E+02 0.  0.
          5    1    1    2  502    0 -0.29721035371E+02 -0.46004541174E+02 -0.96300548349E+02  0.11088572209E+03  0.47000000000E+01 0. -1.
         -5    1    1    2    0  502  0.46468073358E+02  0.20000958422E+02 -0.34741606442E+03  0.35111156631E+03  0.47000000000E+01 0.  1.
        -11    1    3    3    0    0  0.14967940160E+02 -0.15941815367E+02  0.11609097305E+03  0.11813253038E+03  0.00000000000E+00 0.  1.
         11    1    3    3    0    0 -0.31714978147E+02  0.41945398119E+02  0.47048379834E+02  0.70560656936E+02  0.00000000000E+00 0. -1.
<mgrwt>
<rscale>  0 0.11921825E+03</rscale>
<asrwt>0</asrwt>
<pdfrwt beam="1">  1        1 0.28470248E-01 0.12867425E+03</pdfrwt>
<pdfrwt beam="2">  1       -1 0.71635979E-01 0.12867425E+03</pdfrwt>
<totfact> 0.33573341E+02</totfact>
</mgrwt>
</event>
<event>
 7    1  0.5107591E-006  0.1725542E+03  0.7546771E-02  0.1181179E+00
          2   -1    0    0  501    0  0.00000000000E+00  0.00000000000E+00  0.20385224845E+03  0.20385224845E+03  0.00000000000E+00 0. -1.
         -2   -1    0    0    0  501 -0.00000000000E+00 -0.00000000000E+00 -0.16725054249E+03  0.16725054249E+03  0.00000000000E+00 0.  1.
         23    2    1    2    0    0  0.74796518667E+02  0.92531580782E+02  0.10680870036E+03  0.18481274451E+03  0.92687860133E+02 0.  0.
          5    1    1    2  502    0 -0.26815232142E+02 -0.60635532921E+02  0.28167157009E+02  0.72188664356E+02  0.47000000000E+01 0. -1.
         -5    1    1    2    0  502 -0.47981286525E+02 -0.31896047861E+02 -0.98374151406E+02  0.11410138207E+03  0.47000000000E+01 0. -1.
        -11    1    3    3    0    0  0.33079617228E+02  0.96702601593E+02  0.98756805992E+02  0.14212164142E+03  0.00000000000E+00 0. -1.
         11    1    3    3    0    0  0.41716901439E+02 -0.41710208112E+01  0.80518943647E+01  0.42691103091E+02  0.00000000000E+00 0.  1.
<mgrwt>
<rscale>  0 0.16684426E+03</rscale>
<asrwt>0</asrwt>
<pdfrwt beam="1">  1        2 0.31361884E-01 0.17255422E+03</pdfrwt>
<pdfrwt beam="2">  1       -2 0.25730853E-01 0.17255422E+03</pdfrwt>
<totfact> 0.22125427E+03</totfact>
</mgrwt>
</event>
<event>
 7    1  0.5107591E-006  0.1615445E+03  0.7546771E-02  0.1200734E+00
         -1   -1    0    0    0  501 -0.00000000000E+00  0.00000000000E+00  0.56852795177E+02  0.56852795177E+02  0.00000000000E+00 0.  1.
          1   -1    0    0  501    0  0.00000000000E+00 -0.00000000000E+00 -0.47054009578E+03  0.47054009578E+03  0.00000000000E+00 0. -1.
         23    2    1    2    0    0 -0.21479433014E+02  0.72509040050E+02 -0.31789904453E+03  0.33958441625E+03  0.92405878145E+02 0.  0.
          5    1    1    2  502    0  0.81429935071E+01 -0.10079445896E+03 -0.11307483443E+03  0.15176903335E+03  0.47000000000E+01 0. -1.
         -5    1    1    2    0  502  0.13336439507E+02  0.28285418914E+02  0.17286578361E+02  0.36039441357E+02  0.47000000000E+01 0.  1.
        -11    1    3    3    0    0  0.32738599908E+02  0.58265772693E+01 -0.97970701472E+02  0.10346024973E+03  0.00000000000E+00 0.  1.
         11    1    3    3    0    0 -0.54218032922E+02  0.66682462780E+02 -0.21992834306E+03  0.23612416652E+03  0.00000000000E+00 0. -1.
<mgrwt>
<rscale>  0 0.14978752E+03</rscale>
<asrwt>0</asrwt>
<pdfrwt beam="2">  1        1 0.72390782E-01 0.16154452E+03</pdfrwt>
<pdfrwt beam="1">  1       -1 0.87465841E-02 0.16154452E+03</pdfrwt>
<totfact> 0.35903348E+03</totfact>
</mgrwt>
</event>
<event>
 7    1  0.5107591E-006  0.2453208E+03  0.7546771E-02  0.1147500E+00
         -2   -1    0    0    0  501 -0.00000000000E+00  0.00000000000E+00  0.70719989561E+02  0.70719989561E+02  0.00000000000E+00 0.  1.
          2   -1    0    0  501    0  0.00000000000E+00 -0.00000000000E+00 -0.76690130332E+03  0.76690130332E+03  0.00000000000E+00 0. -1.
         23    2    1    2    0    0 -0.57464965598E+02  0.33873014536E+02 -0.52789912616E+03  0.54012977321E+03  0.92806686877E+02 0.  0.
          5    1    1    2  502    0 -0.78159104117E+02  0.36633911324E+02 -0.30559807539E+02  0.91689044341E+02  0.47000000000E+01 0. -1.
         -5    1    1    2    0  502  0.13562406972E+03 -0.70506925861E+02 -0.13772238006E+03  0.20580247533E+03  0.47000000000E+01 0.  1.
        -11    1    3    3    0    0 -0.53131424966E+02 -0.21926192913E+02 -0.30022731566E+03  0.30567981177E+03  0.00000000000E+00 0. -1.
         11    1    3    3    0    0 -0.43335406327E+01  0.55799207449E+02 -0.22767181050E+03  0.23444996145E+03  0.00000000000E+00 0.  1.
<mgrwt>
<rscale>  0 0.20267719E+03</rscale>
<asrwt>0</asrwt>
<pdfrwt beam="2">  1        2 0.11798482E+00 0.24532083E+03</pdfrwt>
<pdfrwt beam="1">  1       -2 0.10879998E-01 0.24532083E+03</pdfrwt>
<totfact> 0.21634120E+03</totfact>
</mgrwt>
</event>
<event>
 7    1  0.5107591E-006  0.1391528E+03  0.7546771E-02  0.1226832E+00
         -2   -1    0    0    0  501 -0.00000000000E+00  0.00000000000E+00  0.43470561816E+02  0.43470561816E+02  0.00000000000E+00 0.  1.
          2   -1    0    0  501    0  0.00000000000E+00 -0.00000000000E+00 -0.41845240674E+03  0.41845240674E+03  0.00000000000E+00 0. -1.
         23    2    1    2    0    0 -0.53713482866E+02  0.29208502629E+02 -0.26038557958E+03  0.28165705657E+03  0.88271017887E+02 0.  0.
          5    1    1    2  502    0  0.61719616694E+02 -0.62991764362E+02 -0.11528443916E+03  0.14522350146E+03  0.47000000000E+01 0.  1.
         -5    1    1    2    0  502 -0.80061338282E+01  0.33783261734E+02  0.68817381518E+00  0.35042410525E+02  0.47000000000E+01 0.  1.
        -11    1    3    3    0    0  0.12537737617E+01  0.42987759513E+02 -0.62861338279E+02  0.76164737687E+02  0.00000000000E+00 0.  1.
         11    1    3    3    0    0 -0.54967256628E+02 -0.13779256885E+02 -0.19752424130E+03  0.20549231889E+03  0.00000000000E+00 0. -1.
<mgrwt>
<rscale>  0 0.13042108E+03</rscale>
<asrwt>0</asrwt>
<pdfrwt beam="2">  1        2 0.64377292E-01 0.13915278E+03</pdfrwt>
<pdfrwt beam="1">  1       -2 0.66877789E-02 0.13915278E+03</pdfrwt>
<totfact> 0.90581850E+03</totfact>
</mgrwt>
</event>
<event>
 7    1  0.5107591E-006  0.1270440E+03  0.7546771E-02  0.1247670E+00
         -2   -1    0    0    0  501 -0.00000000000E+00  0.00000000000E+00  0.37783641600E+03  0.37783641600E+03  0.00000000000E+00 0.  1.
          2   -1    0    0  501    0  0.00000000000E+00 -0.00000000000E+00 -0.32966404976E+02  0.32966404976E+02  0.00000000000E+00 0. -1.
         23    2    1    2    0    0 -0.10637376783E+02  0.18558096658E+02  0.10808399194E+03  0.14208773630E+03  0.89717438430E+02 0.  0.
          5    1    1    2  502    0 -0.52330966983E+02 -0.24881973964E+02  0.74751116004E+02  0.94696684618E+02  0.47000000000E+01 0. -1.
         -5    1    1    2    0  502  0.62968343765E+02  0.63238773059E+01  0.16203490308E+03  0.17401840006E+03  0.47000000000E+01 0. -1.
        -11    1    3    3    0    0 -0.32830871017E+02 -0.25056194968E+02  0.64314161212E+02  0.76432913921E+02  0.00000000000E+00 0.  1.
         11    1    3    3    0    0  0.22193494235E+02  0.43614291626E+02  0.43769830724E+02  0.65654822382E+02  0.00000000000E+00 0. -1.
<mgrwt>
<rscale>  0 0.11726982E+03</rscale>
<asrwt>0</asrwt>
<pdfrwt beam="2">  1        2 0.50717549E-02 0.12704400E+03</pdfrwt>
<pdfrwt beam="1">  1       -2 0.58128676E-01 0.12704400E+03</pdfrwt>
<totfact> 0.41232180E+03</totfact>
</mgrwt>
</event>
<event>
 7    1  0.5107591E-006  0.1710284E+03  0.7546771E-02  0.1183753E+00
          4   -1    0    0  501    0  0.00000000000E+00  0.00000000000E+00  0.13847105566E+03  0.13847105566E+03  0.00000000000E+00 0. -1.
         -4   -1    0    0    0  501 -0.00000000000E+00 -0.00000000000E+00 -0.22259551143E+03  0.22259551143E+03  0.00000000000E+00 0.  1.
         23    2    1    2    0    0  0.11121387664E+03  0.35449326925E+02  0.37795541831E+02  0.15103037012E+03  0.88070929245E+02 0.  0.
          5    1    1    2  502    0 -0.42265872019E+02  0.28344681965E+02  0.57875058294E+01  0.51433550888E+02  0.47000000000E+01 0. -1.
         -5    1    1    2    0  502 -0.68948004623E+02 -0.63794008890E+02 -0.12770750343E+03  0.15860264608E+03  0.47000000000E+01 0. -1.
        -11    1    3    3    0    0  0.62565488710E+02 -0.25595514402E+02  0.10921228375E+02  0.68475133912E+02  0.00000000000E+00 0.  1.
         11    1    3    3    0    0  0.48648387932E+02  0.61044841327E+02  0.26874313456E+02  0.82555236205E+02  0.00000000000E+00 0. -1.
<mgrwt>
<rscale>  0 0.16445853E+03</rscale>
<asrwt>0</asrwt>
<pdfrwt beam="1">  1        4 0.21303239E-01 0.17102841E+03</pdfrwt>
<pdfrwt beam="2">  1       -4 0.34245463E-01 0.17102841E+03</pdfrwt>
<totfact> 0.28762588E+02</totfact>
</mgrwt>
</event>
<event>
 7    1  0.5107591E-006  0.1357074E+03  0.7546771E-02  0.1230286E+00
         -1   -1    0    0    0  501 -0.00000000000E+00  0.00000000000E+00  0.57374237482E+02  0.57374237482E+02  0.00000000000E+00 0.  1.
          1   -1    0    0  501    0  0.00000000000E+00 -0.00000000000E+00 -0.26117552967E+03  0.26117552967E+03  0.00000000000E+00 0. -1.
         23    2    1    2    0    0  0.50380185031E+02 -0.15930323934E+02 -0.10686439659E+03  0.15177667120E+03  0.93937321650E+02 0.  0.
          5    1    1    2  502    0  0.17013363499E+01  0.33354072822E+02  0.18777453164E+02  0.38601443840E+02  0.47000000000E+01 0. -1.
         -5    1    1    2    0  502 -0.52081521381E+02 -0.17423748888E+02 -0.11571434877E+03  0.12817165212E+03  0.47000000000E+01 0. -1.
        -11    1    3    3    0    0  0.36881888049E+02 -0.51672355715E+02 -0.89698745760E+02  0.10989163299E+03  0.00000000000E+00 0.  1.
         11    1    3    3    0    0  0.13498296982E+02  0.35742031782E+02 -0.17165650826E+02  0.41885038207E+02  0.00000000000E+00 0. -1.
<mgrwt>
<rscale>  0 0.12811073E+03</rscale>
<asrwt>0</asrwt>
<pdfrwt beam="2">  1        1 0.40180851E-01 0.13570742E+03</pdfrwt>
<pdfrwt beam="1">  1       -1 0.88268058E-02 0.13570742E+03</pdfrwt>
<totfact> 0.73453062E+03</totfact>
</mgrwt>
</event>
<event>
 7    1  0.5107591E-006  0.2519878E+03  0.7546771E-02  0.1113879E+00
         -2   -1    0    0    0  501 -0.00000000000E+00  0.00000000000E+00  0.32557584989E+02  0.32557584989E+02  0.00000000000E+00 0. -1.
          2   -1    0    0  501    0  0.00000000000E+00 -0.00000000000E+00 -0.21078790671E+04  0.21078790671E+04  0.00000000000E+00 0.  1.
         23    2    1    2    0    0 -0.80017955279E+02  0.20364264817E+03 -0.13809762363E+04  0.14017803306E+04  0.10009759684E+03 0.  0.
          5    1    1    2  502    0  0.36360625160E+02 -0.17742462917E+03 -0.38979041023E+03  0.42983746697E+03  0.47000000000E+01 0. -1.
         -5    1    1    2    0  502  0.43657330120E+02 -0.26218018998E+02 -0.30455483556E+03  0.30881885444E+03  0.47000000000E+01 0. -1.
        -11    1    3    3    0    0 -0.64313955898E+02  0.21168587202E+03 -0.13152153904E+04  0.13336936367E+04  0.00000000000E+00 0.  1.
         11    1    3    3    0    0 -0.15703999382E+02 -0.80432238441E+01 -0.65760845873E+02  0.68086693974E+02  0.00000000000E+00 0. -1.
<mgrwt>
<rscale>  0 0.24909363E+03</rscale>
<asrwt>0</asrwt>
<pdfrwt beam="2">  1        2 0.32428893E+00 0.25198778E+03</pdfrwt>
<pdfrwt beam="1">  1       -2 0.50088617E-02 0.25198778E+03</pdfrwt>
<totfact> 0.12750458E+03</totfact>
</mgrwt>
</event>
<event>
 7    1  0.5107591E-006  0.1302880E+03  0.7546771E-02  0.1240455E+00
          3   -1    0    0  501    0  0.00000000000E+00  0.00000000000E+00  0.19962716727E+03  0.19962716727E+03  0.00000000000E+00 0. -1.
         -3   -1    0    0    0  501 -0.00000000000E+00 -0.00000000000E+00 -0.69261257925E+02  0.69261257925E+02  0.00000000000E+00 0.  1.
         23    2    1    2    0    0  0.11307405509E+02  0.34958531250E+02  0.86543582434E+02  0.13142800491E+03  0.91834484199E+02 0.  0.
          5    1    1    2  502    0  0.31944003674E+02 -0.17717326445E+02 -0.31713932775E+02  0.48602330799E+02  0.47000000000E+01 0.  1.
         -5    1    1    2    0  502 -0.43251409183E+02 -0.17241204806E+02  0.75536259681E+02  0.88858089480E+02  0.47000000000E+01 0.  1.
        -11    1    3    3    0    0  0.45074584290E+02  0.38013354610E+02  0.31685722390E+02  0.66938167595E+02  0.00000000000E+00 0.  1.
         11    1    3    3    0    0 -0.33767178781E+02 -0.30548233600E+01  0.54857860044E+02  0.64489837317E+02  0.00000000000E+00 0. -1.
<mgrwt>
<rscale>  0 0.12161589E+03</rscale>
<asrwt>0</asrwt>
<pdfrwt beam="1">  1        3 0.30711872E-01 0.13028803E+03</pdfrwt>
<pdfrwt beam="2">  1       -3 0.10655578E-01 0.13028803E+03</pdfrwt>
<totfact> 0.15558572E+03</totfact>
</mgrwt>
</event>
<event>
 7    1  0.5107591E-006  0.2047763E+03  0.7546771E-02  0.1148552E+00
          1   -1    0    0  501    0  0.00000000000E+00  0.00000000000E+00  0.59431793578E+03  0.59431793578E+03  0.00000000000E+00 0. -1.
         -1   -1    0    0    0  501 -0.00000000000E+00 -0.00000000000E+00 -0.70755250761E+02  0.70755250761E+02  0.00000000000E+00 0.  1.
         23    2    1    2    0    0 -0.16112416621E+03 -0.18601112904E+02  0.33886932797E+03  0.38931066866E+03  0.10209494087E+03 0.  0.
          5    1    1    2  502    0  0.36560053805E+02  0.62226748406E+02  0.73540267612E+02  0.10314585165E+03  0.47000000000E+01 0. -1.
         -5    1    1    2    0  502  0.12456411241E+03 -0.43625635502E+02  0.11115308944E+03  0.17261666624E+03  0.47000000000E+01 0. -1.
        -11    1    3    3    0    0 -0.67402671243E+02  0.38035362874E+02  0.99278350423E+02  0.12588089522E+03  0.00000000000E+00 0.  1.
         11    1    3    3    0    0 -0.93721494969E+02 -0.56636475778E+02  0.23959097755E+03  0.26342977343E+03  0.00000000000E+00 0. -1.
<mgrwt>
<rscale>  0 0.20141320E+03</rscale>
<asrwt>0</asrwt>
<pdfrwt beam="1">  1        1 0.91433525E-01 0.20477629E+03</pdfrwt>
<pdfrwt beam="2">  1       -1 0.10885424E-01 0.20477629E+03</pdfrwt>
<totfact> 0.18919540E+03</totfact>
</mgrwt>
</event>
<event>
 7    1  0.5107591E-006  0.1793718E+03  0.7546771E-02  0.1173963E+00
         -2   -1    0    0    0  501 -0.00000000000E+00  0.00000000000E+00  0.11256894034E+03  0.11256894034E+03  0.00000000000E+00 0.  1.
          2   -1    0    0  501    0  0.00000000000E+00 -0.00000000000E+00 -0.29960778181E+03  0.29960778181E+03  0.00000000000E+00 0. -1.
         23    2    1    2    0    0 -0.12806752733E+03 -0.12811813343E+02 -0.16983235962E+03  0.23198150945E+03  0.91689455420E+02 0.  0.
          5    1    1    2  502    0  0.11734893406E+02  0.50259173263E+02  0.14568567072E+02  0.53833310941E+02  0.47000000000E+01 0. -1.
         -5    1    1    2    0  502  0.11633263393E+03 -0.37447359920E+02 -0.31775048913E+02  0.12636190175E+03  0.47000000000E+01 0. -1.
        -11    1    3    3    0    0 -0.39853665723E+02  0.38113553079E+02 -0.47386032606E+02  0.72707590292E+02  0.00000000000E+00 0.  1.
         11    1    3    3    0    0 -0.88213861611E+02 -0.50925366423E+02 -0.12244632702E+03  0.15927391916E+03  0.00000000000E+00 0. -1.
<mgrwt>
<rscale>  0 0.17377936E+03</rscale>
<asrwt>0</asrwt>
<pdfrwt beam="2">  1        2 0.46093504E-01 0.17937183E+03</pdfrwt>
<pdfrwt beam="1">  1       -2 0.17318299E-01 0.17937183E+03</pdfrwt>
<totfact> 0.28881081E+03</totfact>
</mgrwt>
</event>
<event>
 7    1  0.5107591E-006  0.1624328E+03  0.7546771E-02  0.1193423E+00
          4   -1    0    0  501    0  0.00000000000E+00  0.00000000000E+00  0.19356939516E+02  0.19356939516E+02  0.00000000000E+00 0. -1.
         -4   -1    0    0    0  501 -0.00000000000E+00 -0.00000000000E+00 -0.13238481947E+04  0.13238481947E+04  0.00000000000E+00 0.  1.
         23    2    1    2    0    0  0.70526021724E+02  0.76047069049E+02 -0.37251234467E+03  0.39717707266E+03  0.90703382865E+02 0.  0.
          5    1    1    2  502    0 -0.46109182814E+02  0.24730150562E+02 -0.20258978122E+03  0.20929010139E+03  0.47000000000E+01 0. -1.
         -5    1    1    2    0  502 -0.24416838910E+02 -0.10077721961E+03 -0.72938912930E+03  0.73673796017E+03  0.47000000000E+01 0. -1.
        -11    1    3    3    0    0  0.76265133329E+02  0.42567769215E+02 -0.33659325384E+03  0.34774042628E+03  0.00000000000E+00 0.  1.
         11    1    3    3    0    0 -0.57391116045E+01  0.33479299834E+02 -0.35919090834E+02  0.49436646384E+02  0.00000000000E+00 0. -1.
<mgrwt>
<rscale>  0 0.15588496E+03</rscale>
<asrwt>0</asrwt>
<pdfrwt beam="1">  1        4 0.29779890E-02 0.16243277E+03</pdfrwt>
<pdfrwt beam="2">  1       -4 0.20366907E+00 0.16243277E+03</pdfrwt>
<totfact> 0.13037540E+02</totfact>
</mgrwt>
</event>
<event>
 7    1  0.5107591E-006  0.1283424E+03  0.7546771E-02  0.1245295E+00
          1   -1    0    0  501    0  0.00000000000E+00  0.00000000000E+00  0.47733117637E+03  0.47733117637E+03  0.00000000000E+00 0. -1.
         -1   -1    0    0    0  501 -0.00000000000E+00 -0.00000000000E+00 -0.51639177798E+02  0.51639177798E+02  0.00000000000E+00 0.  1.
         23    2    1    2    0    0 -0.86265526016E+01  0.27790844364E+02  0.38205953987E+03  0.39341382700E+03  0.89208737379E+02 0.  0.
          5    1    1    2  502    0 -0.28016683737E+01  0.21955557555E+02 -0.35009121596E+02  0.41684822755E+02  0.47000000000E+01 0.  1.
         -5    1    1    2    0  502  0.11428220975E+02 -0.49746401919E+02  0.78641580295E+02  0.93871704415E+02  0.47000000000E+01 0.  1.
        -11    1    3    3    0    0 -0.37631082493E+01 -0.27487476321E+02  0.54166649033E+02  0.60858427565E+02  0.00000000000E+00 0.  1.
         11    1    3    3    0    0 -0.48634443523E+01  0.55278320685E+02  0.32789289084E+03  0.33255539943E+03  0.00000000000E+00 0. -1.
<mgrwt>
<rscale>  0 0.11867754E+03</rscale>
<asrwt>0</asrwt>
<pdfrwt beam="1">  1        1 0.73435563E-01 0.12834243E+03</pdfrwt>
<pdfrwt beam="2">  1       -1 0.79444892E-02 0.12834243E+03</pdfrwt>
<totfact> 0.40351791E+03</totfact>
</mgrwt>
</event>
<event>
 7    1  0.5107591E-006  0.1971399E+03  0.7546771E-02  0.1156609E+00
          1   -1    0    0  501    0  0.00000000000E+00  0.00000000000E+00  0.15376418167E+03  0.15376418167E+03  0.00000000000E+00 0. -1.
         -1   -1    0    0    0  501 -0.00000000000E+00 -0.00000000000E+00 -0.25860226701E+03  0.25860226701E+03  0.00000000000E+00 0.  1.
         23    2    1    2    0    0  0.52096710677E+02 -0.14326484202E+03  0.20429437471E+02  0.17879399306E+03  0.91164948406E+02 0.  0.
          5    1    1    2  502    0 -0.15060453553E+02  0.96177380660E+02 -0.31997312435E+01  0.97515301835E+02  0.47000000000E+01 0. -1.
         -5    1    1    2    0  502 -0.37036257124E+02  0.47087461360E+02 -0.12206779156E+03  0.13605715378E+03  0.47000000000E+01 0. -1.
        -11    1    3    3    0    0 -0.16751899550E+02 -0.75214100232E+02  0.27290834297E+02  0.81747028379E+02  0.00000000000E+00 0. -1.
         11    1    3    3    0    0  0.68848610227E+02 -0.68050741788E+02 -0.68613968261E+01  0.97046964684E+02  0.00000000000E+00 0.  1.
<mgrwt>
<rscale>  0 0.19206830E+03</rscale>
<asrwt>0</asrwt>
<pdfrwt beam="1">  1        1 0.23656028E-01 0.19713990E+03</pdfrwt>
<pdfrwt beam="2">  1       -1 0.39784964E-01 0.19713990E+03</pdfrwt>
<totfact> 0.12722735E+03</totfact>
</mgrwt>
</event>
<event>
 7    1  0.5107591E-006  0.1784752E+03  0.7546771E-02  0.1174719E+00
         -2   -1    0    0    0  501 -0.00000000000E+00  0.00000000000E+00  0.35589417941E+02  0.35589417941E+02  0.00000000000E+00 0.  1.
          2   -1    0    0  501    0  0.00000000000E+00 -0.00000000000E+00 -0.80886925751E+03  0.80886925751E+03  0.00000000000E+00 0. -1.
         23    2    1    2    0    0 -0.12731086733E+03 -0.48514802312E+01 -0.42064631090E+03  0.44923242629E+03  0.92923948213E+02 0.  0.
          5    1    1    2  502    0  0.13476931131E+03 -0.24842102826E+02 -0.22169125630E+03  0.26067029072E+03  0.47000000000E+01 0.  1.
         -5    1    1    2    0  502 -0.74584439793E+01  0.29693583058E+02 -0.13094227237E+03  0.13455595845E+03  0.47000000000E+01 0.  1.
        -11    1    3    3    0    0 -0.10013064681E+03  0.29486222039E+02 -0.35720579137E+03  0.37214454330E+03  0.00000000000E+00 0. -1.
         11    1    3    3    0    0 -0.27180220516E+02 -0.34337702271E+02 -0.63440519532E+02  0.77087882984E+02  0.00000000000E+00 0.  1.
<mgrwt>
<rscale>  0 0.17303544E+03</rscale>
<asrwt>0</asrwt>
<pdfrwt beam="2">  1        2 0.12444144E+00 0.17847516E+03</pdfrwt>
<pdfrwt beam="1">  1       -2 0.54752946E-02 0.17847516E+03</pdfrwt>
<totfact> 0.58465489E+03</totfact>
</mgrwt>
</event>
<event>
 6    1  0.5107591E-006  0.1305690E+03  0.7546771E-02  0.1262154E+00
          1   -1    0    0  501    0  0.00000000000E+00  0.00000000000E+00  0.75058732160E+02  0.75058732160E+02  0.00000000000E+00 0. -1.
         -1   -1    0    0    0  501 -0.00000000000E+00 -0.00000000000E+00 -0.12919570326E+03  0.12919570326E+03  0.00000000000E+00 0.  1.
          5    1    1    2  502    0 -0.87812160229E+01  0.61674654983E+02  0.16106471466E+02  0.64516519165E+02  0.47000000000E+01 0.  1.
         -5    1    1    2    0  502 -0.13249342926E+02 -0.31051677427E+02 -0.67851602084E+02  0.75932085869E+02  0.47000000000E+01 0.  1.
        -11    1    1    2    0    0  0.36988470710E+02 -0.24244434361E+02  0.73754491497E+01  0.44836779692E+02  0.00000000000E+00 0. -1.
         11    1    1    2    0    0 -0.14957911760E+02 -0.63785431936E+01 -0.97672896301E+01  0.18969050694E+02  0.00000000000E+00 0.  1.
<mgrwt>
<rscale>  0 0.10914873E+03</rscale>
<asrwt>0</asrwt>
<pdfrwt beam="1">  1        1 0.11547497E-01 0.13056896E+03</pdfrwt>
<pdfrwt beam="2">  1       -1 0.19876262E-01 0.13056896E+03</pdfrwt>
<totfact> 0.10076026E+04</totfact>
</mgrwt>
</event>
<event>
 7    1  0.5107591E-006  0.1329943E+03  0.7546771E-02  0.1242193E+00
          3   -1    0    0  501    0  0.00000000000E+00  0.00000000000E+00  0.96676046366E+02  0.96676046366E+02  0.00000000000E+00 0. -1.
         -3   -1    0    0    0  501 -0.00000000000E+00 -0.00000000000E+00 -0.13786407396E+03  0.13786407396E+03  0.00000000000E+00 0.  1.
         23    2    1    2    0    0  0.43898372019E+02  0.11745496267E+02  0.13414980387E+02  0.90773027664E+02  0.77425816780E+02 0.  0.
          5    1    1    2  502    0 -0.85487758041E+02  0.93435307097E+01 -0.35750451338E+02  0.93250432234E+02  0.47000000000E+01 0. -1.
         -5    1    1    2    0  502  0.41589386022E+02 -0.21089026976E+02 -0.18852556638E+02  0.50516660423E+02  0.47000000000E+01 0. -1.
        -11    1    3    3    0    0  0.52499118708E+02  0.26941443807E+02 -0.11726969685E+02  0.60162452389E+02  0.00000000000E+00 0.  1.
         11    1    3    3    0    0 -0.86007466885E+01 -0.15195947541E+02  0.25141950072E+02  0.30610575275E+02  0.00000000000E+00 0. -1.
<mgrwt>
<rscale>  0 0.12054945E+03</rscale>
<asrwt>0</asrwt>
<pdfrwt beam="1">  1        3 0.14873238E-01 0.13299432E+03</pdfrwt>
<pdfrwt beam="2">  1       -3 0.21209857E-01 0.13299432E+03</pdfrwt>
<totfact> 0.17412928E+03</totfact>
</mgrwt>
</event>
<event>
 7    1  0.5107591E-006  0.1641712E+03  0.7546771E-02  0.1190948E+00
          2   -1    0    0  501    0  0.00000000000E+00  0.00000000000E+00  0.13356400781E+04  0.13356400781E+04  0.00000000000E+00 0. -1.
         -2   -1    0    0    0  501 -0.00000000000E+00 -0.00000000000E+00 -0.17754158832E+02  0.17754158832E+02  0.00000000000E+00 0.  1.
         23    2    1    2    0    0 -0.58718126118E+02 -0.88771253441E+02  0.51747794749E+03  0.53632318781E+03  0.92363314561E+02 0.  0.
          5    1    1    2  502    0  0.17111890482E+02  0.10990253192E+03  0.45136896583E+03  0.46489505980E+03  0.47000000000E+01 0.  1.
         -5    1    1    2    0  502  0.41606235637E+02 -0.21131278477E+02  0.34903900591E+03  0.35217598928E+03  0.47000000000E+01 0.  1.
        -11    1    3    3    0    0 -0.80844710420E+02 -0.84543178558E+02  0.40222906091E+03  0.41889334404E+03  0.00000000000E+00 0.  1.
         11    1    3    3    0    0  0.22126584302E+02 -0.42280748823E+01  0.11524888658E+03  0.11742984377E+03  0.00000000000E+00 0. -1.
<mgrwt>
<rscale>  0 0.15802207E+03</rscale>
<asrwt>0</asrwt>
<pdfrwt beam="1">  1        2 0.20548301E+00 0.16417119E+03</pdfrwt>
<pdfrwt beam="2">  1       -2 0.27314101E-02 0.16417119E+03</pdfrwt>
<totfact> 0.80257123E+03</totfact>
</mgrwt>
</event>
<event>
 7    1  0.5107591E-006  0.1366430E+03  0.7546771E-02  0.1230153E+00
         -1   -1    0    0    0  501 -0.00000000000E+00  0.00000000000E+00  0.40478301165E+02  0.40478301165E+02  0.00000000000E+00 0.  1.
          1   -1    0    0  501    0  0.00000000000E+00 -0.00000000000E+00 -0.37099839980E+03  0.37099839980E+03  0.00000000000E+00 0. -1.
         23    2    1    2    0    0 -0.49354116198E+02 -0.24789220931E+02 -0.17425623824E+03  0.20389610242E+03  0.90321922906E+02 0.  0.
          5    1    1    2  502    0  0.21909719460E+00  0.32316679066E+02 -0.15418689848E+03  0.15760744085E+03  0.47000000000E+01 0.  1.
         -5    1    1    2    0  502  0.49135019004E+02 -0.75274581357E+01 -0.20769619147E+01  0.49973157688E+02  0.47000000000E+01 0.  1.
        -11    1    3    3    0    0  0.21480076652E+02  0.10317773461E+02 -0.63460274132E+02  0.67786846328E+02  0.00000000000E+00 0. -1.
         11    1    3    3    0    0 -0.70834192850E+02 -0.35106994392E+02 -0.11079596411E+03  0.13610925609E+03  0.00000000000E+00 0.  1.
<mgrwt>
<rscale>  0 0.12819864E+03</rscale>
<asrwt>0</asrwt>
<pdfrwt beam="2">  1        1 0.57076676E-01 0.13664301E+03</pdfrwt>
<pdfrwt beam="1">  1       -1 0.62274310E-02 0.13664301E+03</pdfrwt>
<totfact> 0.80313301E+03</totfact>
</mgrwt>
</event>
<event>
 7    1  0.5107591E-006  0.1287891E+03  0.7546771E-02  0.1242879E+00
         -1   -1    0    0    0  501 -0.00000000000E+00  0.00000000000E+00  0.26949792910E+02  0.26949792910E+02  0.00000000000E+00 0.  1.
          1   -1    0    0  501    0  0.00000000000E+00 -0.00000000000E+00 -0.53894398981E+03  0.53894398981E+03  0.00000000000E+00 0. -1.
         23    2    1    2    0    0  0.30664444510E+02  0.46969387923E+01 -0.32142256926E+03  0.33588471295E+03  0.92432153378E+02 0.  0.
          5    1    1    2  502    0 -0.67033048514E+02  0.34070042534E+02 -0.10742858483E+03  0.13121428364E+03  0.47000000000E+01 0.  1.
         -5    1    1    2    0  502  0.36368604003E+02 -0.38766981327E+02 -0.83143042809E+02  0.98794786127E+02  0.47000000000E+01 0.  1.
        -11    1    3    3    0    0 -0.26717211437E+02  0.73074215621E+01 -0.39962777273E+02  0.48623362330E+02  0.00000000000E+00 0.  1.
         11    1    3    3    0    0  0.57381655948E+02 -0.26104827698E+01 -0.28145979198E+03  0.28726135062E+03  0.00000000000E+00 0. -1.
<mgrwt>
<rscale>  0 0.12013220E+03</rscale>
<asrwt>0</asrwt>
<pdfrwt beam="2">  1        1 0.82914454E-01 0.12878908E+03</pdfrwt>
<pdfrwt beam="1">  1       -1 0.41461223E-02 0.12878908E+03</pdfrwt>
<totfact> 0.90504334E+03</totfact>
</mgrwt>
</event>
<event>
 7    1  0.5107591E-006  0.1999113E+03  0.7546771E-02  0.1157611E+00
          1   -1    0    0  501    0  0.00000000000E+00  0.00000000000E+00  0.69458146622E+03  0.69458146622E+03  0.00000000000E+00 0. -1.
         -1   -1    0    0    0  501 -0.00000000000E+00 -0.00000000000E+00 -0.56862935595E+02  0.56862935595E+02  0.00000000000E+00 0.  1.
         23    2    1    2    0    0  0.12413064695E+03 -0.94506087742E+02  0.43940613060E+03  0.46985547221E+03  0.57849797142E+02 0.  0.
          5    1    1    2  502    0 -0.56172818300E+01  0.41252199859E+02  0.12607668303E+03  0.13285600421E+03  0.47000000000E+01 0. -1.
         -5    1    1    2    0  502 -0.11851336512E+03  0.53253887883E+02  0.72235716993E+02  0.14873292540E+03  0.47000000000E+01 0. -1.
        -11    1    3    3    0    0  0.46278046997E+02 -0.68089981119E+02  0.25480962921E+03  0.26777948074E+03  0.00000000000E+00 0. -1.
         11    1    3    3    0    0  0.77852599955E+02 -0.26416106623E+02  0.18459650138E+03  0.20207599148E+03  0.00000000000E+00 0.  1.
<mgrwt>
<rscale>  0 0.19094633E+03</rscale>
<asrwt>0</asrwt>
<pdfrwt beam="1">  1        1 0.10685868E+00 0.19991127E+03</pdfrwt>
<pdfrwt beam="2">  1       -1 0.87481444E-02 0.19991127E+03</pdfrwt>
<totfact> 0.21250871E+03</totfact>
</mgrwt>
</event>
<event>
 7    1  0.5107591E-006  0.1461278E+03  0.7546771E-02  0.1215358E+00
          1   -1    0    0  501    0  0.00000000000E+00  0.00000000000E+00  0.14272786344E+04  0.14272786344E+04  0.00000000000E+00 0. -1.
         -1   -1    0    0    0  501 -0.00000000000E+00 -0.00000000000E+00 -0.12224126764E+02  0.12224126764E+02  0.00000000000E+00 0.  1.
         23    2    1    2    0    0 -0.69075890634E+02  0.30932931299E+02  0.61096939965E+03  0.62224748853E+03  0.90443378840E+02 0.  0.
          5    1    1    2  502    0 -0.61187613752E+01  0.36163585182E+01 -0.38199309505E+00  0.85295491337E+01  0.47000000000E+01 0. -1.
         -5    1    1    2    0  502  0.75194652010E+02 -0.34549289817E+02  0.80446710112E+03  0.80872572353E+03  0.47000000000E+01 0. -1.
        -11    1    3    3    0    0 -0.57889234146E+02 -0.23388619774E+02  0.31580282407E+03  0.32191553963E+03  0.00000000000E+00 0.  1.
         11    1    3    3    0    0 -0.11186656489E+02  0.54321551073E+02  0.29516657558E+03  0.30033194890E+03  0.00000000000E+00 0. -1.
<mgrwt>
<rscale>  0 0.13850291E+03</rscale>
<asrwt>0</asrwt>
<pdfrwt beam="1">  1        1 0.21958120E+00 0.14612775E+03</pdfrwt>
<pdfrwt beam="2">  1       -1 0.18806360E-02 0.14612775E+03</pdfrwt>
<totfact> 0.58984429E+03</totfact>
</mgrwt>
</event>
<event>
 7    1  0.5107591E-006  0.1304787E+03  0.7546771E-02  0.1240463E+00
         -1   -1    0    0    0  501 -0.00000000000E+00  0.00000000000E+00  0.26268348165E+02  0.26268348165E+02  0.00000000000E+00 0.  1.
          1   -1    0    0  501    0  0.00000000000E+00 -0.00000000000E+00 -0.49917255868E+03  0.49917255868E+03  0.00000000000E+00 0. -1.
         23    2    1    2    0    0 -0.31212577477E+02  0.20620719316E+02 -0.21015900243E+03  0.23208151099E+03  0.91080087756E+02 0.  0.
          5    1    1    2  502    0  0.59531354777E+02  0.84844156329E+01 -0.54991169982E+02  0.81621604286E+02  0.47000000000E+01 0. -1.
         -5    1    1    2    0  502 -0.28318777300E+02 -0.29105134949E+02 -0.20775403810E+03  0.21173779156E+03  0.47000000000E+01 0. -1.
        -11    1    3    3    0    0 -0.35587101611E+02 -0.14463154448E+02 -0.18434563545E+03  0.18830543791E+03  0.00000000000E+00 0. -1.
         11    1    3    3    0    0  0.43745241342E+01  0.35083873764E+02 -0.25813366977E+02  0.43776073081E+02  0.00000000000E+00 0.  1.
<mgrwt>
<rscale>  0 0.12161113E+03</rscale>
<asrwt>0</asrwt>
<pdfrwt beam="2">  1        1 0.76795774E-01 0.13047870E+03</pdfrwt>
<pdfrwt beam="1">  1       -1 0.40412846E-02 0.13047870E+03</pdfrwt>
<totfact> 0.10400758E+04</totfact>
</mgrwt>
</event>
<event>
 7    1  0.5107591E-006  0.2255239E+03  0.7546771E-02  0.1129830E+00
          1   -1    0    0  501    0  0.00000000000E+00  0.00000000000E+00  0.56303264265E+02  0.56303264265E+02  0.00000000000E+00 0. -1.
         -1   -1    0    0    0  501 -0.00000000000E+00 -0.00000000000E+00 -0.22583521046E+03  0.22583521046E+03  0.00000000000E+00 0.  1.
         23    2    1    2    0    0 -0.20535496827E+02  0.25297130801E+02 -0.60366990545E+02  0.11301116909E+03  0.89809238580E+02 0.  0.
          5    1    1    2  502    0 -0.28328628781E+02  0.34082856542E+02 -0.69265486049E+02  0.82364736849E+02  0.47000000000E+01 0.  1.
         -5    1    1    2    0  502  0.48864125609E+02 -0.59379987343E+02 -0.39899469602E+02  0.86762568789E+02  0.47000000000E+01 0.  1.
        -11    1    3    3    0    0  0.12347643392E+02  0.48819745430E+02 -0.15663962808E+02  0.52737003821E+02  0.00000000000E+00 0. -1.
         11    1    3    3    0    0 -0.32883140219E+02 -0.23522614629E+02 -0.44703027737E+02  0.60274165266E+02  0.00000000000E+00 0.  1.
<mgrwt>
<rscale>  0 0.22552392E+03</rscale>
<asrwt>0</asrwt>
<pdfrwt beam="1">  1        1 0.86620409E-02 0.22552392E+03</pdfrwt>
<pdfrwt beam="2">  1       -1 0.34743878E-01 0.22552392E+03</pdfrwt>
<totfact> 0.60693189E+03</totfact>
</mgrwt>
</event>
<event>
 7    1  0.5107591E-006  0.1262589E+03  0.7546771E-02  0.1246957E+00
         -2   -1    0    0    0  501 -0.00000000000E+00  0.00000000000E+00  0.11464233785E+03  0.11464233785E+03  0.00000000000E+00 0.  1.
          2   -1    0    0  501    0  0.00000000000E+00 -0.00000000000E+00 -0.10807675872E+03  0.10807675872E+03  0.00000000000E+00 0. -1.
         23    2    1    2    0    0  0.32906838906E+01 -0.17442825457E+02 -0.78484696988E+01  0.95640135195E+02  0.93650180048E+02 0.  0.
          5    1    1    2  502    0 -0.22660541167E+02  0.24131660927E+02 -0.49534604303E+02  0.59762899934E+02  0.47000000000E+01 0.  1.
         -5    1    1    2    0  502  0.19369857277E+02 -0.66888354701E+01  0.63948653130E+02  0.67316061442E+02  0.47000000000E+01 0.  1.
        -11    1    3    3    0    0 -0.14005426964E+02 -0.36916343617E+01  0.40213374509E+02  0.42742199735E+02  0.00000000000E+00 0.  1.
         11    1    3    3    0    0  0.17296110855E+02 -0.13751191096E+02 -0.48061844208E+02  0.52897935460E+02  0.00000000000E+00 0. -1.
<mgrwt>
<rscale>  0 0.11769001E+03</rscale>
<asrwt>0</asrwt>
<pdfrwt beam="2">  1        2 0.16627194E-01 0.12625885E+03</pdfrwt>
<pdfrwt beam="1">  1       -2 0.17637283E-01 0.12625885E+03</pdfrwt>
<totfact> 0.84259606E+03</totfact>
</mgrwt>
</event>
<event>
 7    1  0.5107591E-006  0.2579866E+03  0.7546771E-02  0.1110675E+00
          1   -1    0    0  501    0  0.00000000000E+00  0.00000000000E+00  0.19132397477E+03  0.19132397477E+03  0.00000000000E+00 0. -1.
         -1   -1    0    0    0  501 -0.00000000000E+00 -0.00000000000E+00 -0.40769770037E+03  0.40769770037E+03  0.00000000000E+00 0.  1.
         23    2    1    2    0    0  0.87692621897E+02  0.20794834074E+03  0.26582999708E+02  0.24464183670E+03  0.90611610967E+02 0.  0.
          5    1    1    2  502    0 -0.31779417993E+02 -0.38396018205E+02 -0.13898021460E+03  0.14772195393E+03  0.47000000000E+01 0.  1.
         -5    1    1    2    0  502 -0.55913203904E+02 -0.16955232253E+03 -0.10397651071E+03  0.20665788450E+03  0.47000000000E+01 0.  1.
        -11    1    3    3    0    0 -0.18590981028E+02  0.21834578651E+02  0.62988026527E+01  0.29360659313E+02  0.00000000000E+00 0.  1.
         11    1    3    3    0    0  0.10628360293E+03  0.18611376209E+03  0.20284197055E+02  0.21528117739E+03  0.00000000000E+00 0. -1.
<mgrwt>
<rscale>  0 0.25420600E+03</rscale>
<asrwt>0</asrwt>
<pdfrwt beam="1">  1        1 0.29434458E-01 0.25798663E+03</pdfrwt>
<pdfrwt beam="2">  1       -1 0.62722722E-01 0.25798663E+03</pdfrwt>
<totfact> 0.41569494E+02</totfact>
</mgrwt>
</event>
<event>
 7    1  0.5107591E-006  0.1413855E+03  0.7546771E-02  0.1221233E+00
         -1   -1    0    0    0  501 -0.00000000000E+00  0.00000000000E+00  0.80075764613E+03  0.80075764613E+03  0.00000000000E+00 0.  1.
          1   -1    0    0  501    0  0.00000000000E+00 -0.00000000000E+00 -0.46852443075E+02  0.46852443075E+02  0.00000000000E+00 0. -1.
         23    2    1    2    0    0  0.55140248878E+02  0.35920699478E+02  0.43065848390E+02  0.12284637030E+03  0.94370650639E+02 0.  0.
          5    1    1    2  502    0 -0.94308572327E+02 -0.12482785931E+02  0.49953771915E+03  0.50853706808E+03  0.47000000000E+01 0. -1.
         -5    1    1    2    0  502  0.39168323449E+02 -0.23437913547E+02  0.21130163552E+03  0.21622665082E+03  0.47000000000E+01 0. -1.
        -11    1    3    3    0    0  0.68639440588E+01  0.19858362770E+02  0.64351623327E+02  0.67694901763E+02  0.00000000000E+00 0.  1.
         11    1    3    3    0    0  0.48276304820E+02  0.16062336708E+02 -0.21285774937E+02  0.55151468541E+02  0.00000000000E+00 0. -1.
<mgrwt>
<rscale>  0 0.13428440E+03</rscale>
<asrwt>0</asrwt>
<pdfrwt beam="2">  1        1 0.72080688E-02 0.14138550E+03</pdfrwt>
<pdfrwt beam="1">  1       -1 0.12319347E+00 0.14138550E+03</pdfrwt>
<totfact> 0.61848922E+02</totfact>
</mgrwt>
</event>
<event>
 7    1  0.5107591E-006  0.4071096E+03  0.7546771E-02  0.1042098E+00
         -2   -1    0    0    0  501 -0.00000000000E+00  0.00000000000E+00  0.17541593129E+04  0.17541593129E+04  0.00000000000E+00 0.  1.
          2   -1    0    0  501    0  0.00000000000E+00 -0.00000000000E+00 -0.18548962111E+03  0.18548962111E+03  0.00000000000E+00 0. -1.
         23    2    1    2    0    0  0.38725449804E+03 -0.12107175328E+02  0.93245209639E+02  0.40908838261E+03  0.92444608937E+02 0.  0.
          5    1    1    2  502    0 -0.21937123838E+03  0.54773500885E+02  0.97832032803E+03  0.10041198289E+04  0.47000000000E+01 0.  1.
         -5    1    1    2    0  502 -0.16788325966E+03 -0.42666325557E+02  0.49710415412E+03  0.52644072244E+03  0.47000000000E+01 0.  1.
        -11    1    3    3    0    0  0.10215409704E+03  0.37452814715E+02  0.20652944167E+02  0.11074618267E+03  0.00000000000E+00 0. -1.
         11    1    3    3    0    0  0.28510040100E+03 -0.49559990043E+02  0.72592265472E+02  0.29834219994E+03  0.00000000000E+00 0.  1.
<mgrwt>
<rscale>  0 0.40489410E+03</rscale>
<asrwt>0</asrwt>
<pdfrwt beam="2">  1        2 0.28536866E-01 0.40710957E+03</pdfrwt>
<pdfrwt beam="1">  1       -2 0.26987065E+00 0.40710957E+03</pdfrwt>
<totfact> 0.98986252E+00</totfact>
</mgrwt>
</event>
<event>
 7    1  0.5107591E-006  0.1257991E+03  0.7546771E-02  0.1249133E+00
          1   -1    0    0  501    0  0.00000000000E+00  0.00000000000E+00  0.41406706385E+02  0.41406706385E+02  0.00000000000E+00 0. -1.
         -1   -1    0    0    0  501 -0.00000000000E+00 -0.00000000000E+00 -0.28724181793E+03  0.28724181793E+03  0.00000000000E+00 0.  1.
         23    2    1    2    0    0  0.13745430930E+02 -0.32279184878E+01 -0.10013417577E+03  0.13615392042E+03  0.91168418654E+02 0.  0.
          5    1    1    2  502    0 -0.45700507388E+02  0.58318236412E+01 -0.15250754251E+03  0.15938377291E+03  0.47000000000E+01 0.  1.
         -5    1    1    2    0  502  0.31955076458E+02 -0.26039051533E+01  0.68066067373E+01  0.33110830989E+02  0.47000000000E+01 0.  1.
        -11    1    3    3    0    0  0.14928093345E+02  0.36728377997E+02 -0.84301526788E+02  0.93158838228E+02  0.00000000000E+00 0.  1.
         11    1    3    3    0    0 -0.11826624148E+01 -0.39956296485E+02 -0.15832648985E+02  0.42995082196E+02  0.00000000000E+00 0. -1.
<mgrwt>
<rscale>  0 0.11641419E+03</rscale>
<asrwt>0</asrwt>
<pdfrwt beam="1">  1        1 0.63702628E-02 0.12579909E+03</pdfrwt>
<pdfrwt beam="2">  1       -1 0.44191047E-01 0.12579909E+03</pdfrwt>
<totfact> 0.58013454E+03</totfact>
</mgrwt>
</event>
<event>
 7    1  0.5107591E-006  0.2556937E+03  0.7546771E-02  0.1112436E+00
         -1   -1    0    0    0  501 -0.00000000000E+00  0.00000000000E+00  0.38119323356E+03  0.38119323356E+03  0.00000000000E+00 0.  1.
          1   -1    0    0  501    0  0.00000000000E+00 -0.00000000000E+00 -0.30047650826E+03  0.30047650826E+03  0.00000000000E+00 0. -1.
         23    2    1    2    0    0 -0.15490707400E+03 -0.16049872530E+03 -0.19300735315E+03  0.30709783007E+03  0.85447038942E+02 0.  0.
          5    1    1    2  502    0  0.38785612907E+02  0.11233731137E+03  0.79130615753E+02  0.14285566018E+03  0.47000000000E+01 0.  1.
         -5    1    1    2    0  502  0.11612146110E+03  0.48161413931E+02  0.19459346269E+03  0.23171625157E+03  0.47000000000E+01 0.  1.
        -11    1    3    3    0    0 -0.42779376408E+02 -0.19792038755E+00 -0.42209728843E+02  0.60098048448E+02  0.00000000000E+00 0. -1.
         11    1    3    3    0    0 -0.11212769760E+03 -0.16030080492E+03 -0.15079762430E+03  0.24699978162E+03  0.00000000000E+00 0.  1.
<mgrwt>
<rscale>  0 0.25137889E+03</rscale>
<asrwt>0</asrwt>
<pdfrwt beam="2">  1        1 0.46227155E-01 0.25569366E+03</pdfrwt>
<pdfrwt beam="1">  1       -1 0.58645113E-01 0.25569366E+03</pdfrwt>
<totfact> 0.26787937E+02</totfact>
</mgrwt>
</event>
<event>
 7    1  0.5107591E-006  0.1271714E+03  0.7546771E-02  0.1239613E+00
          1   -1    0    0  501    0  0.00000000000E+00  0.00000000000E+00  0.39423378562E+03  0.39423378562E+03  0.00000000000E+00 0. -1.
         -1   -1    0    0    0  501 -0.00000000000E+00 -0.00000000000E+00 -0.40701525453E+02  0.40701525453E+02  0.00000000000E+00 0.  1.
         23    2    1    2    0    0  0.31495546256E+02 -0.39580602348E+02  0.24469504106E+03  0.26754923113E+03  0.95646925930E+02 0.  0.
          5    1    1    2  502    0 -0.46138536126E+02  0.24979519967E+02  0.12824347819E+03  0.13864061682E+03  0.47000000000E+01 0. -1.
         -5    1    1    2    0  502  0.14642989869E+02  0.14601082381E+02 -0.19406259083E+02  0.28745463131E+02  0.47000000000E+01 0.  1.
        -11    1    3    3    0    0 -0.28978276321E+02 -0.34291542280E+02  0.13372647549E+03  0.14106176172E+03  0.00000000000E+00 0. -1.
         11    1    3    3    0    0  0.60473822578E+02 -0.52890600682E+01  0.11096856557E+03  0.12648746941E+03  0.00000000000E+00 0.  1.
<mgrwt>
<rscale>  0 0.12213704E+03</rscale>
<asrwt>0</asrwt>
<pdfrwt beam="1">  1        1 0.60651349E-01 0.12717138E+03</pdfrwt>
<pdfrwt beam="2">  1       -1 0.62617734E-02 0.12717138E+03</pdfrwt>
<totfact> 0.73460396E+03</totfact>
</mgrwt>
</event>
<event>
 7    1  0.5107591E-006  0.1391561E+03  0.7546771E-02  0.1225674E+00
          1   -1    0    0  501    0  0.00000000000E+00  0.00000000000E+00  0.55165855706E+03  0.55165855706E+03  0.00000000000E+00 0. -1.
         -1   -1    0    0    0  501 -0.00000000000E+00 -0.00000000000E+00 -0.30920811441E+02  0.30920811441E+02  0.00000000000E+00 0.  1.
         23    2    1    2    0    0  0.60911103699E+02 -0.54940777046E+01  0.31960606135E+03  0.33800140488E+03  0.91414264791E+02 0.  0.
          5    1    1    2  502    0  0.10950132676E+02  0.49468113162E+02  0.10491795536E+03  0.11660560442E+03  0.47000000000E+01 0.  1.
         -5    1    1    2    0  502 -0.71861236374E+02 -0.43974035457E+02  0.96213728905E+02  0.12797235919E+03  0.47000000000E+01 0.  1.
        -11    1    3    3    0    0  0.53805243549E+01  0.38505444084E+02  0.12451547579E+03  0.13044432903E+03  0.00000000000E+00 0.  1.
         11    1    3    3    0    0  0.55530579344E+02 -0.43999521788E+02  0.19509058556E+03  0.20755707585E+03  0.00000000000E+00 0. -1.
<mgrwt>
<rscale>  0 0.13120823E+03</rscale>
<asrwt>0</asrwt>
<pdfrwt beam="1">  1        1 0.84870540E-01 0.13915612E+03</pdfrwt>
<pdfrwt beam="2">  1       -1 0.47570483E-02 0.13915612E+03</pdfrwt>
<totfact> 0.72017211E+03</totfact>
</mgrwt>
</event>
<event>
 7    1  0.5107591E-006  0.5116185E+03  0.7546771E-02  0.1010790E+00
          1   -1    0    0  501    0  0.00000000000E+00  0.00000000000E+00  0.20108270447E+03  0.20108270447E+03  0.00000000000E+00 0. -1.
         -1   -1    0    0    0  501 -0.00000000000E+00 -0.00000000000E+00 -0.32543013535E+03  0.32543013535E+03  0.00000000000E+00 0.  1.
         23    2    1    2    0    0 -0.39950048604E+02 -0.33975034413E+02  0.14622393304E+03  0.17926803321E+03  0.89472229142E+02 0.  0.
          5    1    1    2  502    0 -0.94937419249E+01 -0.30840297783E+02  0.24689041088E+02  0.40901025084E+02  0.47000000000E+01 0. -1.
         -5    1    1    2    0  502  0.49443790529E+02  0.64815332196E+02 -0.29526040501E+03  0.30634378152E+03  0.47000000000E+01 0.  1.
        -11    1    3    3    0    0  0.11837415548E+02 -0.44327536873E+02  0.40984423348E+02  0.61520548512E+02  0.00000000000E+00 0.  1.
         11    1    3    3    0    0 -0.51787464152E+02  0.10352502460E+02  0.10523950970E+03  0.11774748469E+03  0.00000000000E+00 0. -1.
<mgrwt>
<rscale>  0 0.51161850E+03</rscale>
<asrwt>0</asrwt>
<pdfrwt beam="1">  1        1 0.30935801E-01 0.51161850E+03</pdfrwt>
<pdfrwt beam="2">  1       -1 0.50066174E-01 0.51161850E+03</pdfrwt>
<totfact> 0.59701918E+02</totfact>
</mgrwt>
</event>
<event>
 7    1  0.5107591E-006  0.1577569E+03  0.7546771E-02  0.1199339E+00
         -2   -1    0    0    0  501 -0.00000000000E+00  0.00000000000E+00  0.46184080126E+02  0.46184080126E+02  0.00000000000E+00 0.  1.
          2   -1    0    0  501    0  0.00000000000E+00 -0.00000000000E+00 -0.45884807586E+03  0.45884807586E+03  0.00000000000E+00 0. -1.
         23    2    1    2    0    0 -0.86557526908E+02  0.42172723522E+02 -0.16517517984E+03  0.21153945874E+03  0.90528219336E+02 0.  0.
          5    1    1    2  502    0 -0.31486785811E+02 -0.15126023287E+02 -0.72752115243E+02  0.80840426357E+02  0.47000000000E+01 0.  1.
         -5    1    1    2    0  502  0.11804431272E+03 -0.27046700234E+02 -0.17473670064E+03  0.21265227088E+03  0.47000000000E+01 0.  1.
        -11    1    3    3    0    0 -0.54864105037E+02 -0.18498266903E+02 -0.10720201360E+03  0.12183812056E+03  0.00000000000E+00 0.  1.
         11    1    3    3    0    0 -0.31693421871E+02  0.60670990424E+02 -0.57973166237E+02  0.89701338187E+02  0.00000000000E+00 0. -1.
<mgrwt>
<rscale>  0 0.15092662E+03</rscale>
<asrwt>0</asrwt>
<pdfrwt beam="2">  1        2 0.70592010E-01 0.15775693E+03</pdfrwt>
<pdfrwt beam="1">  1       -2 0.71052432E-02 0.15775693E+03</pdfrwt>
<totfact> 0.75322733E+03</totfact>
</mgrwt>
</event>
<event>
 7    1  0.5107591E-006  0.2229466E+03  0.7546771E-02  0.1131705E+00
          1   -1    0    0  501    0  0.00000000000E+00  0.00000000000E+00  0.22800594170E+03  0.22800594170E+03  0.00000000000E+00 0. -1.
         -1   -1    0    0    0  501 -0.00000000000E+00 -0.00000000000E+00 -0.54499860870E+02  0.54499860870E+02  0.00000000000E+00 0.  1.
         23    2    1    2    0    0  0.94252001660E+01  0.10948764497E+02  0.11107737774E+03  0.14203877034E+03  0.87339101160E+02 0.  0.
          5    1    1    2  502    0 -0.10951755312E+02 -0.45693392952E+02 -0.19690806560E+02  0.51162925706E+02  0.47000000000E+01 0.  1.
         -5    1    1    2    0  502  0.15265551455E+01  0.34744628455E+02  0.82119509656E+02  0.89304106531E+02  0.47000000000E+01 0.  1.
        -11    1    3    3    0    0  0.59986376800E+01  0.49478946253E+02  0.63054907446E+02  0.80374567678E+02  0.00000000000E+00 0.  1.
         11    1    3    3    0    0  0.34265624860E+01 -0.38530181756E+02  0.48022470291E+02  0.61664202658E+02  0.00000000000E+00 0. -1.
<mgrwt>
<rscale>  0 0.22294656E+03</rscale>
<asrwt>0</asrwt>
<pdfrwt beam="1">  1        1 0.35077837E-01 0.22294656E+03</pdfrwt>
<pdfrwt beam="2">  1       -1 0.83845941E-02 0.22294656E+03</pdfrwt>
<totfact> 0.97232217E+03</totfact>
</mgrwt>
</event>
<event>
 7    1  0.5107591E-006  0.1338333E+03  0.7546771E-02  0.1234949E+00
         -1   -1    0    0    0  501 -0.00000000000E+00  0.00000000000E+00  0.28964788689E+03  0.28964788689E+03  0.00000000000E+00 0.  1.
          1   -1    0    0  501    0  0.00000000000E+00 -0.00000000000E+00 -0.49435500523E+02  0.49435500523E+02  0.00000000000E+00 0. -1.
         23    2    1    2    0    0  0.36200346223E+02  0.31241107319E+02  0.76214820263E+02  0.12740782521E+03  0.90208554161E+02 0.  0.
          5    1    1    2  502    0 -0.62817603676E+02  0.21936596702E+02  0.12091002119E+03  0.13808906123E+03  0.47000000000E+01 0. -1.
         -5    1    1    2    0  502  0.26617257453E+02 -0.53177704021E+02  0.43087544915E+02  0.73586500977E+02  0.47000000000E+01 0. -1.
        -11    1    3    3    0    0 -0.16876353413E+02  0.15529355062E+02  0.67604659728E+02  0.71388809978E+02  0.00000000000E+00 0.  1.
         11    1    3    3    0    0  0.53076699635E+02  0.15711752257E+02  0.86101605350E+01  0.56019015232E+02  0.00000000000E+00 0. -1.
<mgrwt>
<rscale>  0 0.12507705E+03</rscale>
<asrwt>0</asrwt>
<pdfrwt beam="2">  1        1 0.76054618E-02 0.13383326E+03</pdfrwt>
<pdfrwt beam="1">  1       -1 0.44561212E-01 0.13383326E+03</pdfrwt>
<totfact> 0.45208657E+03</totfact>
</mgrwt>
</event>
<event>
 7    1  0.5107591E-006  0.1475835E+03  0.7546771E-02  0.1213123E+00
          2   -1    0    0  501    0  0.00000000000E+00  0.00000000000E+00  0.41974993267E+03  0.41974993267E+03  0.00000000000E+00 0. -1.
         -2   -1    0    0    0  501 -0.00000000000E+00 -0.00000000000E+00 -0.57656080414E+02  0.57656080414E+02  0.00000000000E+00 0.  1.
         23    2    1    2    0    0  0.46606291116E+02  0.63107803621E+02  0.28853579783E+03  0.31250704832E+03  0.90846064139E+02 0.  0.
          5    1    1    2  502    0  0.10330172145E+02 -0.84136047716E+02  0.29996579485E+02  0.90041500224E+02  0.47000000000E+01 0. -1.
         -5    1    1    2    0  502 -0.56936463261E+02  0.21028244094E+02  0.43561474935E+02  0.74857464536E+02  0.47000000000E+01 0. -1.
        -11    1    3    3    0    0  0.43144375947E+02 -0.11114929410E+02  0.87725040427E+02  0.98390352929E+02  0.00000000000E+00 0.  1.
         11    1    3    3    0    0  0.34619151688E+01  0.74222733032E+02  0.20081075741E+03  0.21411669539E+03  0.00000000000E+00 0. -1.
<mgrwt>
<rscale>  0 0.14015313E+03</rscale>
<asrwt>0</asrwt>
<pdfrwt beam="1">  1        2 0.64576911E-01 0.14758347E+03</pdfrwt>
<pdfrwt beam="2">  1       -2 0.88701665E-02 0.14758347E+03</pdfrwt>
<totfact> 0.58610446E+03</totfact>
</mgrwt>
</event>
<event>
 7    1  0.5107591E-006  0.1766638E+03  0.7546771E-02  0.1176981E+00
          1   -1    0    0  501    0  0.00000000000E+00  0.00000000000E+00  0.54834800254E+02  0.54834800254E+02  0.00000000000E+00 0. -1.
         -1   -1    0    0    0  501 -0.00000000000E+00 -0.00000000000E+00 -0.61194123064E+03  0.61194123064E+03  0.00000000000E+00 0.  1.
         23    2    1    2    0    0  0.11211218089E+02  0.12433578686E+03 -0.12092319305E+03  0.19617438829E+03  0.90977429614E+02 0.  0.
          5    1    1    2  502    0 -0.43914603429E+02 -0.13301891463E+03 -0.37776771091E+03  0.40293058639E+03  0.47000000000E+01 0. -1.
         -5    1    1    2    0  502  0.32703385340E+02  0.86831277684E+01 -0.58415526428E+02  0.67671056209E+02  0.47000000000E+01 0. -1.
        -11    1    3    3    0    0 -0.34272187849E+02  0.88380974818E+02 -0.60612405087E+02  0.11251507997E+03  0.00000000000E+00 0.  1.
         11    1    3    3    0    0  0.45483405938E+02  0.35954812044E+02 -0.60310787958E+02  0.83659308322E+02  0.00000000000E+00 0. -1.
<mgrwt>
<rscale>  0 0.17083385E+03</rscale>
<asrwt>0</asrwt>
<pdfrwt beam="1">  1        1 0.84361234E-02 0.17666378E+03</pdfrwt>
<pdfrwt beam="2">  1       -1 0.94144802E-01 0.17666378E+03</pdfrwt>
<totfact> 0.92413695E+02</totfact>
</mgrwt>
</event>
<event>
 7    1  0.5107591E-006  0.1437370E+03  0.7546771E-02  0.1218548E+00
         -1   -1    0    0    0  501 -0.00000000000E+00  0.00000000000E+00  0.40537267107E+03  0.40537267107E+03  0.00000000000E+00 0.  1.
          1   -1    0    0  501    0  0.00000000000E+00 -0.00000000000E+00 -0.46310911016E+02  0.46310911016E+02  0.00000000000E+00 0. -1.
         23    2    1    2    0    0 -0.39567685944E+02 -0.58891715846E+02  0.90243783067E+02  0.14685015502E+03  0.91581612140E+02 0.  0.
          5    1    1    2  502    0 -0.36385792277E+02  0.46070666686E+02  0.69500705046E+02  0.91098135055E+02  0.47000000000E+01 0.  1.
         -5    1    1    2    0  502  0.75953478221E+02  0.12821049160E+02  0.19931727194E+03  0.21373529200E+03  0.47000000000E+01 0.  1.
        -11    1    3    3    0    0  0.22533695337E+01 -0.43519373805E+02 -0.28210543072E+01  0.43668889590E+02  0.00000000000E+00 0. -1.
         11    1    3    3    0    0 -0.41821055478E+02 -0.15372342041E+02  0.93064837374E+02  0.10318126543E+03  0.00000000000E+00 0.  1.
<mgrwt>
<rscale>  0 0.13619136E+03</rscale>
<asrwt>0</asrwt>
<pdfrwt beam="2">  1        1 0.71247558E-02 0.14373696E+03</pdfrwt>
<pdfrwt beam="1">  1       -1 0.62365024E-01 0.14373696E+03</pdfrwt>
<totfact> 0.26628653E+03</totfact>
</mgrwt>
</event>
<event>
 7    1  0.5107591E-006  0.1579970E+03  0.7546771E-02  0.1198867E+00
          3   -1    0    0  501    0  0.00000000000E+00  0.00000000000E+00  0.48685221110E+03  0.48685221110E+03  0.00000000000E+00 0. -1.
         -3   -1    0    0    0  501 -0.00000000000E+00 -0.00000000000E+00 -0.52010900958E+02  0.52010900958E+02  0.00000000000E+00 0.  1.
         23    2    1    2    0    0 -0.59875692261E+02  0.75844113673E+02  0.31067799031E+03  0.33791641041E+03  0.91264772304E+02 0.  0.
          5    1    1    2  502    0 -0.14465805039E+02 -0.66941530366E+02  0.10158038437E+03  0.12260135600E+03  0.47000000000E+01 0. -1.
         -5    1    1    2    0  502  0.74341497300E+02 -0.89025833070E+01  0.22582935464E+02  0.78345345647E+02  0.47000000000E+01 0. -1.
        -11    1    3    3    0    0 -0.51253593961E+02  0.23974788166E+02  0.62836185597E+02  0.84558308769E+02  0.00000000000E+00 0.  1.
         11    1    3    3    0    0 -0.86220983003E+01  0.51869325507E+02  0.24784180471E+03  0.25335810164E+03  0.00000000000E+00 0. -1.
<mgrwt>
<rscale>  0 0.15131465E+03</rscale>
<asrwt>0</asrwt>
<pdfrwt beam="1">  1        3 0.74900337E-01 0.15799698E+03</pdfrwt>
<pdfrwt beam="2">  1       -3 0.80016774E-02 0.15799698E+03</pdfrwt>
<totfact> 0.43559204E+02</totfact>
</mgrwt>
</event>
<event>
 6    1  0.5107591E-006  0.3279632E+03  0.7546771E-02  0.1072042E+00
         -1   -1    0    0    0  501 -0.00000000000E+00  0.00000000000E+00  0.28363212881E+03  0.28363212881E+03  0.00000000000E+00 0.  1.
          1   -1    0    0  501    0  0.00000000000E+00 -0.00000000000E+00 -0.94805777427E+02  0.94805777427E+02  0.00000000000E+00 0. -1.
          5    1    1    2  502    0  0.54445558634E+01  0.13652362760E+01 -0.19419019478E+02  0.20753201588E+02  0.47000000000E+01 0. -1.
         -5    1    1    2    0  502 -0.81935347046E+02  0.44122311268E+02  0.17213291223E+03  0.19573453686E+03  0.47000000000E+01 0. -1.
        -11    1    1    2    0    0  0.19514329352E+02 -0.11174113891E+02  0.79446569441E+02  0.82567713226E+02  0.00000000000E+00 0.  1.
         11    1    1    2    0    0  0.56976461830E+02 -0.34313433653E+02 -0.43334110814E+02  0.79382454559E+02  0.00000000000E+00 0. -1.
<mgrwt>
<rscale>  0 0.32796320E+03</rscale>
<asrwt>0</asrwt>
<pdfrwt beam="2">  1        1 0.14585504E-01 0.32796320E+03</pdfrwt>
<pdfrwt beam="1">  1       -1 0.43635712E-01 0.32796320E+03</pdfrwt>
<totfact> 0.20453540E+03</totfact>
</mgrwt>
</event>
<event>
 7    1  0.5107591E-006  0.2247441E+03  0.7546771E-02  0.1134043E+00
          2   -1    0    0  501    0  0.00000000000E+00  0.00000000000E+00  0.70373426246E+03  0.70373426246E+03  0.00000000000E+00 0. -1.
         -2   -1    0    0    0  501 -0.00000000000E+00 -0.00000000000E+00 -0.66108675549E+02  0.66108675549E+02  0.00000000000E+00 0.  1.
         23    2    1    2    0    0  0.18502643868E+03 -0.25503160461E+02  0.33189636316E+03  0.39039562068E+03  0.85839096910E+02 0.  0.
          5    1    1    2  502    0 -0.32603617394E+02  0.53023358607E+02  0.13587930201E+03  0.14953175963E+03  0.47000000000E+01 0. -1.
         -5    1    1    2    0  502 -0.15242282129E+03 -0.27520198146E+02  0.16984992174E+03  0.22991555770E+03  0.47000000000E+01 0. -1.
        -11    1    3    3    0    0  0.16603554150E+03 -0.43752293859E+02  0.24203567753E+03  0.29675466880E+03  0.00000000000E+00 0.  1.
         11    1    3    3    0    0  0.18990897183E+02  0.18249133397E+02  0.89860685630E+02  0.93640951871E+02  0.00000000000E+00 0. -1.
<mgrwt>
<rscale>  0 0.21978554E+03</rscale>
<asrwt>0</asrwt>
<pdfrwt beam="1">  1        2 0.10826680E+00 0.22474410E+03</pdfrwt>
<pdfrwt beam="2">  1       -2 0.10170566E-01 0.22474410E+03</pdfrwt>
<totfact> 0.26747380E+03</totfact>
</mgrwt>
</event>
<event>
 7    1  0.5107591E-006  0.1453075E+03  0.7546771E-02  0.1217215E+00
          2   -1    0    0  501    0  0.00000000000E+00  0.00000000000E+00  0.35742076371E+02  0.35742076371E+02  0.00000000000E+00 0.  1.
         -2   -1    0    0    0  501 -0.00000000000E+00 -0.00000000000E+00 -0.50689465060E+03  0.50689465060E+03  0.00000000000E+00 0. -1.
         23    2    1    2    0    0  0.38641797151E+02  0.63233070940E+02 -0.14268780471E+03  0.18346634652E+03  0.88365609513E+02 0.  0.
          5    1    1    2  502    0 -0.39159263284E+02 -0.85768716062E+02 -0.32156040702E+03  0.33513117718E+03  0.47000000000E+01 0.  1.
         -5    1    1    2    0  502  0.51746613309E+00  0.22535645122E+02 -0.69043624948E+01  0.24039203267E+02  0.47000000000E+01 0.  1.
        -11    1    3    3    0    0  0.38858154749E+02  0.37703951972E+02 -0.19324411624E+02  0.57488929973E+02  0.00000000000E+00 0.  1.
         11    1    3    3    0    0 -0.21635759825E+00  0.25529118968E+02 -0.12336339309E+03  0.12597741655E+03  0.00000000000E+00 0. -1.
<mgrwt>
<rscale>  0 0.13715061E+03</rscale>
<asrwt>0</asrwt>
<pdfrwt beam="1">  1        2 0.54987812E-02 0.14530746E+03</pdfrwt>
<pdfrwt beam="2">  1       -2 0.77983790E-01 0.14530746E+03</pdfrwt>
<totfact> 0.20169680E+03</totfact>
</mgrwt>
</event>
<event>
 7    1  0.5107591E-006  0.1709406E+03  0.7546771E-02  0.1183205E+00
          2   -1    0    0  501    0  0.00000000000E+00  0.00000000000E+00  0.73117008386E+03  0.73117008386E+03  0.00000000000E+00 0. -1.
         -2   -1    0    0    0  501 -0.00000000000E+00 -0.00000000000E+00 -0.34909060256E+02  0.34909060256E+02  0.00000000000E+00 0.  1.
         23    2    1    2    0    0 -0.83471995921E+02 -0.81492144944E+02  0.34087069179E+03  0.37171512896E+03  0.91491883717E+02 0.  0.
          5    1    1    2  502    0  0.11120115412E+03  0.55216315121E+02  0.31477773605E+03  0.33841047745E+03  0.47000000000E+01 0. -1.
         -5    1    1    2    0  502 -0.27729158197E+02  0.26275829824E+02  0.40612595758E+02  0.55953537703E+02  0.47000000000E+01 0. -1.
        -11    1    3    3    0    0 -0.54635933488E+02 -0.58077905039E+02  0.31855336002E+03  0.32838144201E+03  0.00000000000E+00 0. -1.
         11    1    3    3    0    0 -0.28836062433E+02 -0.23414239905E+02  0.22317331778E+02  0.43333686950E+02  0.00000000000E+00 0.  1.
<mgrwt>
<rscale>  0 0.16496267E+03</rscale>
<asrwt>0</asrwt>
<pdfrwt beam="1">  1        2 0.11248769E+00 0.17094060E+03</pdfrwt>
<pdfrwt beam="2">  1       -2 0.53706252E-02 0.17094060E+03</pdfrwt>
<totfact> 0.68095161E+03</totfact>
</mgrwt>
</event>
<event>
 7    1  0.5107591E-006  0.1789059E+03  0.7546771E-02  0.1174408E+00
          2   -1    0    0  501    0  0.00000000000E+00  0.00000000000E+00  0.18676865998E+03  0.18676865998E+03  0.00000000000E+00 0. -1.
         -2   -1    0    0    0  501 -0.00000000000E+00 -0.00000000000E+00 -0.16617055767E+03  0.16617055767E+03  0.00000000000E+00 0.  1.
         23    2    1    2    0    0  0.12753764848E+03 -0.10812552543E+02  0.61811602183E+02  0.16934761854E+03  0.92060733585E+02 0.  0.
          5    1    1    2  502    0 -0.74842886138E+01  0.12553305911E+02 -0.60036462588E+02  0.61968273378E+02  0.47000000000E+01 0. -1.
         -5    1    1    2    0  502 -0.12005335987E+03 -0.17407533687E+01  0.18822962712E+02  0.12162332574E+03  0.47000000000E+01 0. -1.
        -11    1    3    3    0    0  0.60368809578E+02  0.17666850867E+02  0.72085854364E+02  0.95670691378E+02  0.00000000000E+00 0.  1.
         11    1    3    3    0    0  0.67168838905E+02 -0.28479403409E+02 -0.10274252180E+02  0.73676927163E+02  0.00000000000E+00 0. -1.
<mgrwt>
<rscale>  0 0.17334114E+03</rscale>
<asrwt>0</asrwt>
<pdfrwt beam="1">  1        2 0.28733640E-01 0.17890590E+03</pdfrwt>
<pdfrwt beam="2">  1       -2 0.25564701E-01 0.17890590E+03</pdfrwt>
<totfact> 0.24657428E+03</totfact>
</mgrwt>
</event>
<event>
 7    1  0.5107591E-006  0.1465244E+03  0.7546771E-02  0.1214272E+00
         -2   -1    0    0    0  501 -0.00000000000E+00  0.00000000000E+00  0.18539589324E+03  0.18539589324E+03  0.00000000000E+00 0.  1.
          2   -1    0    0  501    0  0.00000000000E+00 -0.00000000000E+00 -0.11071163446E+03  0.11071163446E+03  0.00000000000E+00 0. -1.
         23    2    1    2    0    0 -0.41410979497E+02 -0.64266014136E+02 -0.20412155182E+02  0.12142856835E+03  0.92104567396E+02 0.  0.
          5    1    1    2  502    0  0.70148116203E+02 -0.58837559825E+01  0.47236614968E+02  0.84904443847E+02  0.47000000000E+01 0.  1.
         -5    1    1    2    0  502 -0.28737136705E+02  0.70149770119E+02  0.47859798998E+02  0.89774515503E+02  0.47000000000E+01 0.  1.
        -11    1    3    3    0    0 -0.29468280616E+02  0.15540128446E+02 -0.23345788755E+02  0.40680474520E+02  0.00000000000E+00 0. -1.
         11    1    3    3    0    0 -0.11942698882E+02 -0.79806142582E+02  0.29336335728E+01  0.80748093825E+02  0.00000000000E+00 0.  1.
<mgrwt>
<rscale>  0 0.13930178E+03</rscale>
<asrwt>0</asrwt>
<pdfrwt beam="2">  1        2 0.17032559E-01 0.14652444E+03</pdfrwt>
<pdfrwt beam="1">  1       -2 0.28522445E-01 0.14652444E+03</pdfrwt>
<totfact> 0.36202723E+03</totfact>
</mgrwt>
</event>
<event>
 7    1  0.5107591E-006  0.2305313E+03  0.7546771E-02  0.1129091E+00
         -2   -1    0    0    0  501 -0.00000000000E+00  0.00000000000E+00  0.10497221805E+03  0.10497221805E+03  0.00000000000E+00 0. -1.
          2   -1    0    0  501    0  0.00000000000E+00 -0.00000000000E+00 -0.52998617513E+03  0.52998617513E+03  0.00000000000E+00 0.  1.
         23    2    1    2    0    0 -0.15954519666E+03  0.10984060977E+03 -0.31015701302E+03  0.37739910689E+03  0.93343900843E+02 0.  0.
          5    1    1    2  502    0 -0.13911189048E+02  0.82914970917E+01 -0.22768279586E+02  0.28332925371E+02  0.47000000000E+01 0. -1.
         -5    1    1    2    0  502  0.17345638571E+03 -0.11813210686E+03 -0.92088664474E+02  0.22922636092E+03  0.47000000000E+01 0. -1.
        -11    1    3    3    0    0 -0.63842603415E+02  0.11943663007E+01 -0.14070338148E+03  0.15451454974E+03  0.00000000000E+00 0.  1.
         11    1    3    3    0    0 -0.95702593249E+02  0.10864624347E+03 -0.16945363154E+03  0.22288455715E+03  0.00000000000E+00 0. -1.
<mgrwt>
<rscale>  0 0.22655104E+03</rscale>
<asrwt>0</asrwt>
<pdfrwt beam="2">  1        2 0.81536335E-01 0.23053127E+03</pdfrwt>
<pdfrwt beam="1">  1       -2 0.16149572E-01 0.23053127E+03</pdfrwt>
<totfact> 0.17559978E+03</totfact>
</mgrwt>
</event>
<event>
 7    1  0.5107591E-006  0.1633206E+03  0.7546771E-02  0.1191105E+00
         -3   -1    0    0    0  501 -0.00000000000E+00  0.00000000000E+00  0.44031784095E+03  0.44031784095E+03  0.00000000000E+00 0.  1.
          3   -1    0    0  501    0  0.00000000000E+00 -0.00000000000E+00 -0.54805710515E+02  0.54805710515E+02  0.00000000000E+00 0. -1.
         23    2    1    2    0    0 -0.72924009189E+02 -0.76000619069E+02  0.13719450245E+03  0.19791107624E+03  0.96189694782E+02 0.  0.
          5    1    1    2  502    0  0.78438966602E+02  0.93182326873E+01  0.66316152676E+02  0.10324448192E+03  0.47000000000E+01 0.  1.
         -5    1    1    2    0  502 -0.55149574128E+01  0.66682386382E+02  0.18200147531E+03  0.19396799330E+03  0.47000000000E+01 0.  1.
        -11    1    3    3    0    0 -0.43962340339E+02 -0.63216618206E+02  0.14599211314E+03  0.16505370425E+03  0.00000000000E+00 0.  1.
         11    1    3    3    0    0 -0.28961668850E+02 -0.12784000863E+02 -0.87976106932E+01  0.32857371997E+02  0.00000000000E+00 0. -1.
<mgrwt>
<rscale>  0 0.15788534E+03</rscale>
<asrwt>0</asrwt>
<pdfrwt beam="2">  1        3 0.84316481E-02 0.16332058E+03</pdfrwt>
<pdfrwt beam="1">  1       -3 0.67741204E-01 0.16332058E+03</pdfrwt>
<totfact> 0.49691529E+02</totfact>
</mgrwt>
</event>
<event>
 7    1  0.5107591E-006  0.1532084E+03  0.7546771E-02  0.1205454E+00
          2   -1    0    0  501    0  0.00000000000E+00  0.00000000000E+00  0.57646482280E+02  0.57646482280E+02  0.00000000000E+00 0. -1.
         -2   -1    0    0    0  501 -0.00000000000E+00 -0.00000000000E+00 -0.34197049178E+03  0.34197049178E+03  0.00000000000E+00 0.  1.
         23    2    1    2    0    0 -0.74750780655E+02  0.47556651126E+02 -0.11032133491E+03  0.16777706047E+03  0.90161138018E+02 0.  0.
          5    1    1    2  502    0  0.67571494634E+02 -0.54978757691E+02 -0.19181470549E+03  0.21072147951E+03  0.47000000000E+01 0. -1.
         -5    1    1    2    0  502  0.71792860212E+01  0.74221065651E+01  0.17812030894E+02  0.21118434085E+02  0.47000000000E+01 0. -1.
        -11    1    3    3    0    0 -0.95745471415E+02  0.35059349543E+02 -0.88148036621E+02  0.13478289820E+03  0.00000000000E+00 0. -1.
         11    1    3    3    0    0  0.20994690760E+02  0.12497301582E+02 -0.22173298285E+02  0.32994162268E+02  0.00000000000E+00 0.  1.
<mgrwt>
<rscale>  0 0.14601700E+03</rscale>
<asrwt>0</asrwt>
<pdfrwt beam="1">  1        2 0.88686897E-02 0.15320840E+03</pdfrwt>
<pdfrwt beam="2">  1       -2 0.52610844E-01 0.15320840E+03</pdfrwt>
<totfact> 0.25027621E+03</totfact>
</mgrwt>
</event>
<event>
 7    1  0.5107591E-006  0.4650025E+03  0.7546771E-02  0.1023340E+00
         -1   -1    0    0    0  501 -0.00000000000E+00  0.00000000000E+00  0.61157888838E+02  0.61157888838E+02  0.00000000000E+00 0.  1.
          1   -1    0    0  501    0  0.00000000000E+00 -0.00000000000E+00 -0.88388966571E+03  0.88388966571E+03  0.00000000000E+00 0. -1.
         23    2    1    2    0    0 -0.11185999115E+00 -0.19850504339E+02 -0.13388273888E+03  0.16307053156E+03  0.90957987328E+02 0.  0.
          5    1    1    2  502    0 -0.77907569210E+02  0.10409687192E+03 -0.64656382339E+03  0.65952453768E+03  0.47000000000E+01 0. -1.
         -5    1    1    2    0  502  0.78019429201E+02 -0.84246367585E+02 -0.42285214606E+02  0.12245248531E+03  0.47000000000E+01 0.  1.
        -11    1    3    3    0    0 -0.32035474019E+02 -0.59100088823E+01 -0.12198538804E+03  0.12626018650E+03  0.00000000000E+00 0.  1.
         11    1    3    3    0    0  0.31923614028E+02 -0.13940495457E+02 -0.11897350837E+02  0.36810345056E+02  0.00000000000E+00 0. -1.
<mgrwt>
<rscale>  0 0.46500248E+03</rscale>
<asrwt>0</asrwt>
<pdfrwt beam="2">  1        1 0.13598303E+00 0.46500248E+03</pdfrwt>
<pdfrwt beam="1">  1       -1 0.94089059E-02 0.46500248E+03</pdfrwt>
<totfact> 0.13163472E+03</totfact>
</mgrwt>
</event>
<event>
 7    1  0.5107591E-006  0.1879155E+03  0.7546771E-02  0.1166287E+00
         -2   -1    0    0    0  501 -0.00000000000E+00  0.00000000000E+00  0.27578604845E+03  0.27578604845E+03  0.00000000000E+00 0.  1.
          2   -1    0    0  501    0  0.00000000000E+00 -0.00000000000E+00 -0.12028978185E+03  0.12028978185E+03  0.00000000000E+00 0. -1.
         23    2    1    2    0    0  0.41992682598E+01 -0.14024600626E+03  0.21361110706E+02  0.16519820303E+03  0.84543320898E+02 0.  0.
          5    1    1    2  502    0 -0.20179505501E+02  0.15867183265E+03  0.12893540554E+03  0.20550034482E+03  0.47000000000E+01 0. -1.
         -5    1    1    2    0  502  0.15980237241E+02 -0.18425826395E+02  0.51997503453E+01  0.25377282444E+02  0.47000000000E+01 0. -1.
        -11    1    3    3    0    0  0.44251183119E+02 -0.73207661203E+02  0.73291131422E+01  0.85855953583E+02  0.00000000000E+00 0. -1.
         11    1    3    3    0    0 -0.40051914859E+02 -0.67038345053E+02  0.14031997564E+02  0.79342249445E+02  0.00000000000E+00 0.  1.
<mgrwt>
<rscale>  0 0.18157579E+03</rscale>
<asrwt>0</asrwt>
<pdfrwt beam="2">  1        2 0.18506120E-01 0.18791551E+03</pdfrwt>
<pdfrwt beam="1">  1       -2 0.42428623E-01 0.18791551E+03</pdfrwt>
<totfact> 0.15937921E+03</totfact>
</mgrwt>
</event>
<event>
 7    1  0.5107591E-006  0.1287477E+03  0.7546771E-02  0.1240842E+00
          1   -1    0    0  501    0  0.00000000000E+00  0.00000000000E+00  0.48598061277E+02  0.48598061277E+02  0.00000000000E+00 0. -1.
         -1   -1    0    0    0  501 -0.00000000000E+00 -0.00000000000E+00 -0.31691227234E+03  0.31691227234E+03  0.00000000000E+00 0.  1.
         23    2    1    2    0    0  0.28879571156E+02  0.10822328653E+02 -0.53110432205E+02  0.11473425258E+03  0.96912735380E+02 0.  0.
          5    1    1    2  502    0 -0.87463203037E+01  0.33385931439E+02 -0.52498529826E+01  0.35224558098E+02  0.47000000000E+01 0.  1.
         -5    1    1    2    0  502 -0.20133250852E+02 -0.44208260092E+02 -0.20995392587E+03  0.21555152294E+03  0.47000000000E+01 0.  1.
        -11    1    3    3    0    0  0.43350912002E+02  0.28485212452E+02 -0.69430311604E+02  0.86667624113E+02  0.00000000000E+00 0.  1.
         11    1    3    3    0    0 -0.14471340846E+02 -0.17662883800E+02  0.16319879399E+02  0.28066628469E+02  0.00000000000E+00 0. -1.
<mgrwt>
<rscale>  0 0.12137708E+03</rscale>
<asrwt>0</asrwt>
<pdfrwt beam="1">  1        1 0.74766248E-02 0.12874772E+03</pdfrwt>
<pdfrwt beam="2">  1       -1 0.48755734E-01 0.12874772E+03</pdfrwt>
<totfact> 0.39246613E+03</totfact>
</mgrwt>
</event>
<event>
 7    1  0.5107591E-006  0.1551997E+03  0.7546771E-02  0.1203539E+00
          1   -1    0    0  501    0  0.00000000000E+00  0.00000000000E+00  0.63403757482E+03  0.63403757482E+03  0.00000000000E+00 0. -1.
         -1   -1    0    0    0  501 -0.00000000000E+00 -0.00000000000E+00 -0.31443286725E+02  0.31443286725E+02  0.00000000000E+00 0.  1.
         23    2    1    2    0    0  0.90694218875E+02  0.15444042733E+02  0.25201961839E+03  0.28208870895E+03  0.87156135018E+02 0.  0.
          5    1    1    2  502    0 -0.33360108132E+02 -0.53603850392E+02  0.26984146844E+03  0.27716922211E+03  0.47000000000E+01 0.  1.
         -5    1    1    2    0  502 -0.57334110743E+02  0.38159807659E+02  0.80733201260E+02  0.10622293049E+03  0.47000000000E+01 0.  1.
        -11    1    3    3    0    0  0.23992279055E+02  0.46486949635E+02  0.88994641946E+02  0.10323135297E+03  0.00000000000E+00 0.  1.
         11    1    3    3    0    0  0.66701939821E+02 -0.31042906902E+02  0.16302497644E+03  0.17885735598E+03  0.00000000000E+00 0. -1.
<mgrwt>
<rscale>  0 0.14753221E+03</rscale>
<asrwt>0</asrwt>
<pdfrwt beam="1">  1        1 0.97544233E-01 0.15519969E+03</pdfrwt>
<pdfrwt beam="2">  1       -1 0.48374292E-02 0.15519969E+03</pdfrwt>
<totfact> 0.58481848E+03</totfact>
</mgrwt>
</event>
<event>
 7    1  0.5107591E-006  0.1461708E+03  0.7546771E-02  0.1220449E+00
         -4   -1    0    0    0  501 -0.00000000000E+00  0.00000000000E+00  0.14795353828E+03  0.14795353828E+03  0.00000000000E+00 0.  1.
          4   -1    0    0  501    0  0.00000000000E+00 -0.00000000000E+00 -0.11163053834E+03  0.11163053834E+03  0.00000000000E+00 0. -1.
         23    2    1    2    0    0 -0.74765479552E+02  0.12233375759E+02 -0.98346612888E+01  0.10629856968E+03  0.73913009257E+02 0.  0.
          5    1    1    2  502    0  0.63548748117E+02  0.23242128814E+02  0.78513174380E+02  0.10375475165E+03  0.47000000000E+01 0.  1.
         -5    1    1    2    0  502  0.11216731435E+02 -0.35475504572E+02 -0.32355513148E+02  0.49530755293E+02  0.47000000000E+01 0.  1.
        -11    1    3    3    0    0 -0.22028870572E+02 -0.17940077084E+02 -0.30915672068E+02  0.41986858467E+02  0.00000000000E+00 0. -1.
         11    1    3    3    0    0 -0.52736608980E+02  0.30173452843E+02  0.21081010780E+02  0.64311711209E+02  0.00000000000E+00 0.  1.
<mgrwt>
<rscale>  0 0.13483752E+03</rscale>
<asrwt>0</asrwt>
<pdfrwt beam="2">  1        4 0.17173929E-01 0.14617085E+03</pdfrwt>
<pdfrwt beam="1">  1       -4 0.22762083E-01 0.14617085E+03</pdfrwt>
<totfact> 0.88650169E+02</totfact>
</mgrwt>
</event>
<event>
 7    1  0.5107591E-006  0.1315925E+03  0.7546771E-02  0.1237959E+00
         -1   -1    0    0    0  501 -0.00000000000E+00  0.00000000000E+00  0.43473788046E+02  0.43473788046E+02  0.00000000000E+00 0.  1.
          1   -1    0    0  501    0  0.00000000000E+00 -0.00000000000E+00 -0.42086861484E+03  0.42086861484E+03  0.00000000000E+00 0. -1.
         23    2    1    2    0    0 -0.38111035669E+02 -0.15541868334E+02 -0.28816174121E+03  0.30534825728E+03  0.92229975707E+02 0.  0.
          5    1    1    2  502    0 -0.32497578683E+02 -0.13823595424E+02 -0.72194285618E+02  0.80506454937E+02  0.47000000000E+01 0.  1.
         -5    1    1    2    0  502  0.70608614351E+02  0.29365463758E+02 -0.17038799973E+02  0.78487690671E+02  0.47000000000E+01 0.  1.
        -11    1    3    3    0    0 -0.37363659715E+02  0.34512773449E+02 -0.13944823680E+03  0.14843512167E+03  0.00000000000E+00 0.  1.
         11    1    3    3    0    0 -0.74737595398E+00 -0.50054641783E+02 -0.14871350441E+03  0.15691313561E+03  0.00000000000E+00 0. -1.
<mgrwt>
<rscale>  0 0.12316872E+03</rscale>
<asrwt>0</asrwt>
<pdfrwt beam="2">  1        1 0.64749018E-01 0.13159253E+03</pdfrwt>
<pdfrwt beam="1">  1       -1 0.66882750E-02 0.13159253E+03</pdfrwt>
<totfact> 0.61445625E+03</totfact>
</mgrwt>
</event>
<event>
 7    1  0.5107591E-006  0.1556488E+03  0.7546771E-02  0.1201833E+00
          2   -1    0    0  501    0  0.00000000000E+00  0.00000000000E+00  0.31867893024E+03  0.31867893024E+03  0.00000000000E+00 0. -1.
         -2   -1    0    0    0  501 -0.00000000000E+00 -0.00000000000E+00 -0.65375734990E+02  0.65375734990E+02  0.00000000000E+00 0.  1.
         23    2    1    2    0    0  0.90605997201E+02  0.19785353915E+02  0.89675641855E+02  0.15822173180E+03  0.91605069257E+02 0.  0.
          5    1    1    2  502    0 -0.17309598844E+02 -0.58408619518E+02  0.28878283875E+02  0.67581316395E+02  0.47000000000E+01 0.  1.
         -5    1    1    2    0  502 -0.73296398357E+02  0.38623265603E+02  0.13474926952E+03  0.15825161704E+03  0.47000000000E+01 0.  1.
        -11    1    3    3    0    0  0.79006840608E+02 -0.21565352495E+02  0.79388832715E+02  0.11406021239E+03  0.00000000000E+00 0. -1.
         11    1    3    3    0    0  0.11599156593E+02  0.41350706409E+02  0.10286809140E+02  0.44161519409E+02  0.00000000000E+00 0.  1.
<mgrwt>
<rscale>  0 0.14889876E+03</rscale>
<asrwt>0</asrwt>
<pdfrwt beam="1">  1        2 0.49027527E-01 0.15564876E+03</pdfrwt>
<pdfrwt beam="2">  1       -2 0.10057806E-01 0.15564876E+03</pdfrwt>
<totfact> 0.64804980E+03</totfact>
</mgrwt>
</event>
<event>
 7    1  0.5107591E-006  0.1387389E+03  0.7546771E-02  0.1226771E+00
         -2   -1    0    0    0  501 -0.00000000000E+00  0.00000000000E+00  0.24112500689E+03  0.24112500689E+03  0.00000000000E+00 0.  1.
          2   -1    0    0  501    0  0.00000000000E+00 -0.00000000000E+00 -0.74541717644E+02  0.74541717644E+02  0.00000000000E+00 0. -1.
         23    2    1    2    0    0 -0.36404783261E+02  0.47932059189E+02  0.13903147557E+02  0.10936667505E+03  0.90249551561E+02 0.  0.
          5    1    1    2  502    0 -0.89043913333E+01 -0.49927889043E+02  0.43481250806E+01  0.51118279324E+02  0.47000000000E+01 0.  1.
         -5    1    1    2    0  502  0.45309174594E+02  0.19958298546E+01  0.14833201661E+03  0.15518177016E+03  0.47000000000E+01 0.  1.
        -11    1    3    3    0    0  0.72555662982E+01  0.59769744355E+02  0.20604010278E+02  0.63636395421E+02  0.00000000000E+00 0. -1.
         11    1    3    3    0    0 -0.43660349559E+02 -0.11837685166E+02 -0.67008627208E+01  0.45730279629E+02  0.00000000000E+00 0.  1.
<mgrwt>
<rscale>  0 0.13046244E+03</rscale>
<asrwt>0</asrwt>
<pdfrwt beam="2">  1        2 0.11467957E-01 0.13873891E+03</pdfrwt>
<pdfrwt beam="1">  1       -2 0.37096155E-01 0.13873891E+03</pdfrwt>
<totfact> 0.35654735E+03</totfact>
</mgrwt>
</event>
<event>
 7    1  0.5107591E-006  0.1458021E+03  0.7546771E-02  0.1214974E+00
          3   -1    0    0  501    0  0.00000000000E+00  0.00000000000E+00  0.29031720030E+03  0.29031720030E+03  0.00000000000E+00 0. -1.
         -3   -1    0    0    0  501 -0.00000000000E+00 -0.00000000000E+00 -0.61934323869E+02  0.61934323869E+02  0.00000000000E+00 0.  1.
         23    2    1    2    0    0 -0.26557763171E+02 -0.70190470496E+02  0.12793783247E+03  0.17519935920E+03  0.93245426456E+02 0.  0.
          5    1    1    2  502    0  0.22655967540E+02 -0.21331371963E+02  0.75800138649E+02  0.82073572569E+02  0.47000000000E+01 0. -1.
         -5    1    1    2    0  502  0.39017956311E+01  0.91521842459E+02  0.24644905316E+02  0.94978592400E+02  0.47000000000E+01 0. -1.
        -11    1    3    3    0    0  0.34854806661E+02 -0.27101298081E+02  0.55437119633E+02  0.70870389714E+02  0.00000000000E+00 0.  1.
         11    1    3    3    0    0 -0.61412569831E+02 -0.43089172414E+02  0.72500712832E+02  0.10432896949E+03  0.00000000000E+00 0. -1.
<mgrwt>
<rscale>  0 0.13878460E+03</rscale>
<asrwt>0</asrwt>
<pdfrwt beam="1">  1        3 0.44664184E-01 0.14580213E+03</pdfrwt>
<pdfrwt beam="2">  1       -3 0.95283577E-02 0.14580213E+03</pdfrwt>
<totfact> 0.93370895E+02</totfact>
</mgrwt>
</event>
<event>
 7    1  0.5107591E-006  0.1918263E+03  0.7546771E-02  0.1159916E+00
         -1   -1    0    0    0  501 -0.00000000000E+00  0.00000000000E+00  0.30961763903E+02  0.30961763903E+02  0.00000000000E+00 0.  1.
          1   -1    0    0  501    0  0.00000000000E+00 -0.00000000000E+00 -0.11238305702E+04  0.11238305702E+04  0.00000000000E+00 0. -1.
         23    2    1    2    0    0  0.14218498107E+03 -0.30936818907E+02 -0.45672430865E+03  0.49035485004E+03  0.10333019521E+03 0.  0.
          5    1    1    2  502    0 -0.14660373274E+03  0.45015120679E+02 -0.41008087893E+03  0.43784407363E+03  0.47000000000E+01 0. -1.
         -5    1    1    2    0  502  0.44187516696E+01 -0.14078301772E+02 -0.22606361876E+03  0.22659341049E+03  0.47000000000E+01 0. -1.
        -11    1    3    3    0    0  0.36966230168E+02 -0.47073842989E+02 -0.86919344156E+02  0.10553398152E+03  0.00000000000E+00 0.  1.
         11    1    3    3    0    0  0.10521875090E+03  0.16137024082E+02 -0.36980496449E+03  0.38482086852E+03  0.00000000000E+00 0. -1.
<mgrwt>
<rscale>  0 0.18839580E+03</rscale>
<asrwt>0</asrwt>
<pdfrwt beam="2">  1        1 0.17289704E+00 0.19182635E+03</pdfrwt>
<pdfrwt beam="1">  1       -1 0.47633476E-02 0.19182635E+03</pdfrwt>
<totfact> 0.24449766E+03</totfact>
</mgrwt>
</event>
<event>
 7    1  0.5107591E-006  0.1653167E+03  0.7546771E-02  0.1189778E+00
          1   -1    0    0  501    0  0.00000000000E+00  0.00000000000E+00  0.20183063078E+03  0.20183063078E+03  0.00000000000E+00 0. -1.
         -1   -1    0    0    0  501 -0.00000000000E+00 -0.00000000000E+00 -0.13330022489E+03  0.13330022489E+03  0.00000000000E+00 0.  1.
         23    2    1    2    0    0  0.73632824456E+02 -0.79213117111E+02  0.90931852724E+02  0.16830332781E+03  0.91437943718E+02 0.  0.
          5    1    1    2  502    0 -0.43487906957E+02  0.62932502069E+02 -0.72800205568E+02  0.10570552398E+03  0.47000000000E+01 0.  1.
         -5    1    1    2    0  502 -0.30144917499E+02  0.16280615042E+02  0.50398758736E+02  0.61122003888E+02  0.47000000000E+01 0.  1.
        -11    1    3    3    0    0  0.41326797871E+02 -0.16612148195E+02 -0.95836357226E+01  0.45560001795E+02  0.00000000000E+00 0. -1.
         11    1    3    3    0    0  0.32306026585E+02 -0.62600968916E+02  0.10051548845E+03  0.12274332601E+03  0.00000000000E+00 0.  1.
<mgrwt>
<rscale>  0 0.15904566E+03</rscale>
<asrwt>0</asrwt>
<pdfrwt beam="1">  1        1 0.31050866E-01 0.16531666E+03</pdfrwt>
<pdfrwt beam="2">  1       -1 0.20507727E-01 0.16531666E+03</pdfrwt>
<totfact> 0.27424823E+03</totfact>
</mgrwt>
</event>
<event>
 7    1  0.5107591E-006  0.1603342E+03  0.7546771E-02  0.1196440E+00
          2   -1    0    0  501    0  0.00000000000E+00  0.00000000000E+00  0.46371131466E+03  0.46371131466E+03  0.00000000000E+00 0. -1.
         -2   -1    0    0    0  501 -0.00000000000E+00 -0.00000000000E+00 -0.55124835165E+02  0.55124835165E+02  0.00000000000E+00 0.  1.
         23    2    1    2    0    0  0.82919358371E+02  0.56609025465E+02  0.28970917987E+03  0.31923939373E+03  0.88894205975E+02 0.  0.
          5    1    1    2  502    0 -0.62496342763E+02 -0.63566411612E+02  0.14193396723E+03  0.16767177043E+03  0.47000000000E+01 0.  1.
         -5    1    1    2    0  502 -0.20423015608E+02  0.69573861477E+01 -0.23056667605E+02  0.31924985663E+02  0.47000000000E+01 0.  1.
        -11    1    3    3    0    0  0.50794419984E+02  0.75923593253E+02  0.16019159308E+03  0.18440664740E+03  0.00000000000E+00 0.  1.
         11    1    3    3    0    0  0.32124938387E+02 -0.19314567789E+02  0.12951758679E+03  0.13483274633E+03  0.00000000000E+00 0. -1.
<mgrwt>
<rscale>  0 0.15332943E+03</rscale>
<asrwt>0</asrwt>
<pdfrwt beam="1">  1        2 0.71340199E-01 0.16033419E+03</pdfrwt>
<pdfrwt beam="2">  1       -2 0.84807442E-02 0.16033419E+03</pdfrwt>
<totfact> 0.56678922E+03</totfact>
</mgrwt>
</event>
<event>
 7    1  0.5107591E-006  0.1292624E+03  0.7546771E-02  0.1242200E+00
         -3   -1    0    0    0  501 -0.00000000000E+00  0.00000000000E+00  0.20256214225E+03  0.20256214225E+03  0.00000000000E+00 0.  1.
          3   -1    0    0  501    0  0.00000000000E+00 -0.00000000000E+00 -0.74493712754E+02  0.74493712754E+02  0.00000000000E+00 0. -1.
         23    2    1    2    0    0 -0.19145647710E+02  0.26789741844E+02  0.39388886841E+01  0.97843922872E+02  0.92052551864E+02 0.  0.
          5    1    1    2  502    0  0.46839752055E+02  0.33968219747E+02  0.80737740056E+02  0.99440811514E+02  0.47000000000E+01 0.  1.
         -5    1    1    2    0  502 -0.27694104346E+02 -0.60757961591E+02  0.43391800760E+02  0.79771120622E+02  0.47000000000E+01 0.  1.
        -11    1    3    3    0    0 -0.33491412190E+02  0.18422523074E+02  0.41714500711E+02  0.56578826574E+02  0.00000000000E+00 0.  1.
         11    1    3    3    0    0  0.14345764481E+02  0.83672187700E+01 -0.37775612027E+02  0.41265096298E+02  0.00000000000E+00 0. -1.
<mgrwt>
<rscale>  0 0.12054512E+03</rscale>
<asrwt>0</asrwt>
<pdfrwt beam="2">  1        3 0.11460571E-01 0.12926242E+03</pdfrwt>
<pdfrwt beam="1">  1       -3 0.31163406E-01 0.12926242E+03</pdfrwt>
<totfact> 0.13394572E+03</totfact>
</mgrwt>
</event>
<event>
 7    1  0.5107591E-006  0.1335790E+03  0.7546771E-02  0.1235547E+00
         -1   -1    0    0    0  501 -0.00000000000E+00  0.00000000000E+00  0.20077805693E+03  0.20077805693E+03  0.00000000000E+00 0.  1.
          1   -1    0    0  501    0  0.00000000000E+00 -0.00000000000E+00 -0.78864656428E+02  0.78864656428E+02  0.00000000000E+00 0. -1.
         23    2    1    2    0    0  0.39595347607E+02 -0.25480343988E+02  0.40747243467E+01  0.10151548236E+03  0.89842920138E+02 0.  0.
          5    1    1    2  502    0  0.41858334929E+01  0.94804137109E+01  0.12937803508E+03  0.12987750155E+03  0.47000000000E+01 0.  1.
         -5    1    1    2    0  502 -0.43781181099E+02  0.15999930277E+02 -0.11539358928E+02  0.48249729448E+02  0.47000000000E+01 0.  1.
        -11    1    3    3    0    0  0.31619031940E+02 -0.10392716278E+02 -0.41297277789E+02  0.53039955554E+02  0.00000000000E+00 0. -1.
         11    1    3    3    0    0  0.79763156670E+01 -0.15087627710E+02  0.45372002135E+02  0.48475526808E+02  0.00000000000E+00 0.  1.
<mgrwt>
<rscale>  0 0.12469506E+03</rscale>
<asrwt>0</asrwt>
<pdfrwt beam="2">  1        1 0.12133024E-01 0.13357903E+03</pdfrwt>
<pdfrwt beam="1">  1       -1 0.30888932E-01 0.13357903E+03</pdfrwt>
<totfact> 0.45872411E+03</totfact>
</mgrwt>
</event>
<event>
 7    1  0.5107591E-006  0.1493972E+03  0.7546771E-02  0.1210354E+00
          1   -1    0    0  501    0  0.00000000000E+00  0.00000000000E+00  0.17615972709E+03  0.17615972709E+03  0.00000000000E+00 0. -1.
         -1   -1    0    0    0  501 -0.00000000000E+00 -0.00000000000E+00 -0.26530629818E+03  0.26530629818E+03  0.00000000000E+00 0.  1.
         23    2    1    2    0    0 -0.79221507875E+02 -0.20445748886E+02  0.12835621145E+03  0.17759678659E+03  0.91494402192E+02 0.  0.
          5    1    1    2  502    0  0.92224872034E+02  0.82656601360E+01 -0.22547471012E+03  0.24379229492E+03  0.47000000000E+01 0. -1.
         -5    1    1    2    0  502 -0.13003364159E+02  0.12180088750E+02  0.79719275743E+01  0.20076943758E+02  0.47000000000E+01 0. -1.
        -11    1    3    3    0    0 -0.69612987185E+02 -0.24661406308E+02  0.14219511368E+03  0.16022984523E+03  0.00000000000E+00 0. -1.
         11    1    3    3    0    0 -0.96085206894E+01  0.42156574218E+01 -0.13838902234E+02  0.17366941365E+02  0.00000000000E+00 0.  1.
<mgrwt>
<rscale>  0 0.14223419E+03</rscale>
<asrwt>0</asrwt>
<pdfrwt beam="1">  1        1 0.27101496E-01 0.14939717E+03</pdfrwt>
<pdfrwt beam="2">  1       -1 0.40816354E-01 0.14939717E+03</pdfrwt>
<totfact> 0.10184999E+03</totfact>
</mgrwt>
</event>
<event>
 7    1  0.5107591E-006  0.1588492E+03  0.7546771E-02  0.1204762E+00
          2   -1    0    0  501    0  0.00000000000E+00  0.00000000000E+00  0.81723576188E+02  0.81723576188E+02  0.00000000000E+00 0.  1.
         -2   -1    0    0    0  501 -0.00000000000E+00 -0.00000000000E+00 -0.26707177163E+03  0.26707177163E+03  0.00000000000E+00 0. -1.
         23    2    1    2    0    0 -0.61482668968E+02 -0.38344132121E+02 -0.15354119315E+02  0.11613454184E+03  0.89448822108E+02 0.  0.
          5    1    1    2  502    0 -0.45714049574E+02  0.45721323985E+01 -0.44550284892E+02  0.64167722471E+02  0.47000000000E+01 0.  1.
         -5    1    1    2    0  502  0.10719671854E+03  0.33771999723E+02 -0.12544379124E+03  0.16849308351E+03  0.47000000000E+01 0. -1.
        -11    1    3    3    0    0 -0.81309053455E+02 -0.12283983834E+02 -0.13545578232E+02  0.83339913140E+02  0.00000000000E+00 0.  1.
         11    1    3    3    0    0  0.19826384487E+02 -0.26060148287E+02 -0.18085410822E+01  0.32794628698E+02  0.00000000000E+00 0. -1.
<mgrwt>
<rscale>  0 0.14656214E+03</rscale>
<asrwt>0</asrwt>
<pdfrwt beam="1">  1        2 0.12572858E-01 0.15884919E+03</pdfrwt>
<pdfrwt beam="2">  1       -2 0.41087964E-01 0.15884919E+03</pdfrwt>
<totfact> 0.26518134E+03</totfact>
</mgrwt>
</event>
<event>
 7    1  0.5107591E-006  0.1308356E+03  0.7546771E-02  0.1230170E+00
          2   -1    0    0  501    0  0.00000000000E+00  0.00000000000E+00  0.92740446254E+02  0.92740446254E+02  0.00000000000E+00 0. -1.
         -2   -1    0    0    0  501 -0.00000000000E+00 -0.00000000000E+00 -0.65350926468E+03  0.65350926468E+03  0.00000000000E+00 0.  1.
         23    2    1    2    0    0 -0.24971236510E+02 -0.41672541334E+02  0.37381141849E+02  0.13607092005E+03  0.12148161245E+03 0.  0.
          5    1    1    2  502    0  0.21164254078E+02  0.55503627269E+02 -0.14485017580E+03  0.15662771696E+03  0.47000000000E+01 0. -1.
         -5    1    1    2    0  502  0.38069824322E+01 -0.13831085935E+02 -0.45329978448E+03  0.45355107393E+03  0.47000000000E+01 0.  1.
        -11    1    3    3    0    0 -0.61650666929E+02 -0.92023820289E+01 -0.15247989013E+02  0.64171564861E+02  0.00000000000E+00 0.  1.
         11    1    3    3    0    0  0.36679430419E+02 -0.32470159305E+02  0.52629130862E+02  0.71899355188E+02  0.00000000000E+00 0. -1.
<mgrwt>
<rscale>  0 0.12818743E+03</rscale>
<asrwt>0</asrwt>
<pdfrwt beam="1">  1        2 0.14267761E-01 0.13083557E+03</pdfrwt>
<pdfrwt beam="2">  1       -2 0.10053989E+00 0.13083557E+03</pdfrwt>
<totfact> 0.34838972E+02</totfact>
</mgrwt>
</event>
<event>
 7    1  0.5107591E-006  0.1660075E+03  0.7546771E-02  0.1189196E+00
         -2   -1    0    0    0  501 -0.00000000000E+00  0.00000000000E+00  0.13301758788E+03  0.13301758788E+03  0.00000000000E+00 0.  1.
          2   -1    0    0  501    0  0.00000000000E+00 -0.00000000000E+00 -0.18139772706E+03  0.18139772706E+03  0.00000000000E+00 0. -1.
         23    2    1    2    0    0  0.10031035311E+02 -0.10878133613E+03 -0.43998501538E+02  0.14834995749E+03  0.90209982768E+02 0.  0.
          5    1    1    2  502    0 -0.51961835015E+02  0.52563311463E+02 -0.43229175007E+02  0.85754216117E+02  0.47000000000E+01 0. -1.
         -5    1    1    2    0  502  0.41930799703E+02  0.56218024669E+02  0.38847537364E+02  0.80311141323E+02  0.47000000000E+01 0. -1.
        -11    1    3    3    0    0  0.60302730362E+01 -0.39744788040E+02  0.27636263276E+02  0.48782941866E+02  0.00000000000E+00 0.  1.
         11    1    3    3    0    0  0.40007622752E+01 -0.69036548092E+02 -0.71634764814E+02  0.99567015629E+02  0.00000000000E+00 0. -1.
<mgrwt>
<rscale>  0 0.15955825E+03</rscale>
<asrwt>0</asrwt>
<pdfrwt beam="2">  1        2 0.27907343E-01 0.16600754E+03</pdfrwt>
<pdfrwt beam="1">  1       -2 0.20464244E-01 0.16600754E+03</pdfrwt>
<totfact> 0.37313861E+03</totfact>
</mgrwt>
</event>
<event>
 7    1  0.5107591E-006  0.1426703E+03  0.7546771E-02  0.1218166E+00
         -2   -1    0    0    0  501 -0.00000000000E+00  0.00000000000E+00  0.26474678111E+03  0.26474678111E+03  0.00000000000E+00 0.  1.
          2   -1    0    0  501    0  0.00000000000E+00 -0.00000000000E+00 -0.66778985182E+02  0.66778985182E+02  0.00000000000E+00 0. -1.
         23    2    1    2    0    0 -0.51384901521E+01 -0.68584840674E+02  0.62514105606E+02  0.13479623218E+03  0.97630560576E+02 0.  0.
          5    1    1    2  502    0 -0.50278086422E+02 -0.44048209493E+01  0.53457981634E+02  0.73669085934E+02  0.47000000000E+01 0.  1.
         -5    1    1    2    0  502  0.55416576575E+02  0.72989661623E+02  0.81995708686E+02  0.12306044818E+03  0.47000000000E+01 0.  1.
        -11    1    3    3    0    0  0.26086786331E+02 -0.83309137520E+01 -0.15442430138E+02  0.31438721246E+02  0.00000000000E+00 0. -1.
         11    1    3    3    0    0 -0.31225276483E+02 -0.60253926922E+02  0.77956535744E+02  0.10335751093E+03  0.00000000000E+00 0.  1.
<mgrwt>
<rscale>  0 0.13646545E+03</rscale>
<asrwt>0</asrwt>
<pdfrwt beam="2">  1        2 0.10273690E-01 0.14267028E+03</pdfrwt>
<pdfrwt beam="1">  1       -2 0.40730274E-01 0.14267028E+03</pdfrwt>
<totfact> 0.34239556E+03</totfact>
</mgrwt>
</event>
<event>
 7    1  0.5107591E-006  0.1473639E+03  0.7546771E-02  0.1209610E+00
         -1   -1    0    0    0  501 -0.00000000000E+00  0.00000000000E+00  0.12800492253E+03  0.12800492253E+03  0.00000000000E+00 0.  1.
          1   -1    0    0  501    0  0.00000000000E+00 -0.00000000000E+00 -0.15295093130E+03  0.15295093130E+03  0.00000000000E+00 0. -1.
         23    2    1    2    0    0 -0.25803548313E+02  0.90021413459E+02  0.71517474265E+01  0.13013684152E+03  0.90082029520E+02 0.  0.
          5    1    1    2  502    0  0.69023763557E+02 -0.62620847382E+02 -0.68607032437E+01  0.93567140126E+02  0.47000000000E+01 0. -1.
         -5    1    1    2    0  502 -0.43220215244E+02 -0.27400566077E+02 -0.25237052947E+02  0.57251872184E+02  0.47000000000E+01 0.  1.
        -11    1    3    3    0    0 -0.15206919718E+02 -0.29932431158E+01 -0.26463705161E+02  0.30668185511E+02  0.00000000000E+00 0.  1.
         11    1    3    3    0    0 -0.10596628595E+02  0.93014656575E+02  0.33615452588E+02  0.99468656008E+02  0.00000000000E+00 0. -1.
<mgrwt>
<rscale>  0 0.14280030E+03</rscale>
<asrwt>0</asrwt>
<pdfrwt beam="2">  1        1 0.23530912E-01 0.14736386E+03</pdfrwt>
<pdfrwt beam="1">  1       -1 0.19693065E-01 0.14736386E+03</pdfrwt>
<totfact> 0.41238300E+03</totfact>
</mgrwt>
</event>
<event>
 7    1  0.5107591E-006  0.1712607E+03  0.7546771E-02  0.1182760E+00
          1   -1    0    0  501    0  0.00000000000E+00  0.00000000000E+00  0.37504811744E+02  0.37504811744E+02  0.00000000000E+00 0. -1.
         -1   -1    0    0    0  501 -0.00000000000E+00 -0.00000000000E+00 -0.68326542926E+03  0.68326542926E+03  0.00000000000E+00 0.  1.
         23    2    1    2    0    0  0.11661822568E+03  0.10231609956E+02 -0.29922019132E+03  0.33422076989E+03  0.92012519450E+02 0.  0.
          5    1    1    2  502    0 -0.13527792222E+03 -0.33411835332E+02 -0.26175533846E+03  0.29657109467E+03  0.47000000000E+01 0.  1.
         -5    1    1    2    0  502  0.18659696546E+02  0.23180225376E+02 -0.84785087741E+02  0.89978376441E+02  0.47000000000E+01 0.  1.
        -11    1    3    3    0    0  0.73654443728E+02  0.49221427270E+02 -0.20844575221E+03  0.22648919974E+03  0.00000000000E+00 0.  1.
         11    1    3    3    0    0  0.42963781950E+02 -0.38989817313E+02 -0.90774439102E+02  0.10773157015E+03  0.00000000000E+00 0. -1.
<mgrwt>
<rscale>  0 0.16537351E+03</rscale>
<asrwt>0</asrwt>
<pdfrwt beam="1">  1        1 0.57699711E-02 0.17126070E+03</pdfrwt>
<pdfrwt beam="2">  1       -1 0.10511776E+00 0.17126070E+03</pdfrwt>
<totfact> 0.12127977E+03</totfact>
</mgrwt>
</event>
<event>
 7    1  0.5107591E-006  0.1355011E+03  0.7546771E-02  0.1231615E+00
         -2   -1    0    0    0  501 -0.00000000000E+00  0.00000000000E+00  0.53359370964E+02  0.53359370964E+02  0.00000000000E+00 0.  1.
          2   -1    0    0  501    0  0.00000000000E+00 -0.00000000000E+00 -0.27649874153E+03  0.27649874153E+03  0.00000000000E+00 0. -1.
         23    2    1    2    0    0 -0.28069929807E+02  0.44135231844E+02 -0.11922303124E+03  0.15909761792E+03  0.91444415913E+02 0.  0.
          5    1    1    2  502    0  0.52948012622E+02 -0.68565444201E+02 -0.35326978878E+02  0.93673889722E+02  0.47000000000E+01 0.  1.
         -5    1    1    2    0  502 -0.24878082815E+02  0.24430212357E+02 -0.68589360453E+02  0.77086604852E+02  0.47000000000E+01 0.  1.
        -11    1    3    3    0    0 -0.57449972394E+02  0.79853720740E+01 -0.75515303227E+02  0.95219885091E+02  0.00000000000E+00 0. -1.
         11    1    3    3    0    0  0.29380042587E+02  0.36149859770E+02 -0.43707728011E+02  0.63877732832E+02  0.00000000000E+00 0.  1.
<mgrwt>
<rscale>  0 0.12723666E+03</rscale>
<asrwt>0</asrwt>
<pdfrwt beam="2">  1        2 0.42538266E-01 0.13550107E+03</pdfrwt>
<pdfrwt beam="1">  1       -2 0.82091343E-02 0.13550107E+03</pdfrwt>
<totfact> 0.10250994E+04</totfact>
</mgrwt>
</event>
<event>
 7    1  0.5107591E-006  0.1758097E+03  0.7546771E-02  0.1179033E+00
          2   -1    0    0  501    0  0.00000000000E+00  0.00000000000E+00  0.78973649925E+03  0.78973649925E+03  0.00000000000E+00 0. -1.
         -2   -1    0    0    0  501 -0.00000000000E+00 -0.00000000000E+00 -0.34455161066E+02  0.34455161066E+02  0.00000000000E+00 0.  1.
         23    2    1    2    0    0 -0.12273666020E+03  0.14603564908E+02  0.41539220768E+03  0.44152511722E+03  0.84357519331E+02 0.  0.
          5    1    1    2  502    0  0.77794151047E+02 -0.63429992593E+02  0.14248986354E+03  0.17435809448E+03  0.47000000000E+01 0.  1.
         -5    1    1    2    0  502  0.44942509153E+02  0.48826427685E+02  0.19739926696E+03  0.20830844862E+03  0.47000000000E+01 0.  1.
        -11    1    3    3    0    0 -0.38801320102E+02 -0.18605548782E+02  0.54096871615E+02  0.69124383583E+02  0.00000000000E+00 0.  1.
         11    1    3    3    0    0 -0.83935340098E+02  0.33209113691E+02  0.36129533607E+03  0.37240073364E+03  0.00000000000E+00 0. -1.
<mgrwt>
<rscale>  0 0.16886826E+03</rscale>
<asrwt>0</asrwt>
<pdfrwt beam="1">  1        2 0.12149791E+00 0.17580973E+03</pdfrwt>
<pdfrwt beam="2">  1       -2 0.53007946E-02 0.17580973E+03</pdfrwt>
<totfact> 0.63245905E+03</totfact>
</mgrwt>
</event>
<event>
 7    1  0.5107591E-006  0.1889450E+03  0.7546771E-02  0.1164470E+00
         -4   -1    0    0    0  501 -0.00000000000E+00  0.00000000000E+00  0.55648934882E+02  0.55648934882E+02  0.00000000000E+00 0.  1.
          4   -1    0    0  501    0  0.00000000000E+00 -0.00000000000E+00 -0.65003373425E+03  0.65003373425E+03  0.00000000000E+00 0. -1.
         23    2    1    2    0    0 -0.60560661791E+01 -0.14155149999E+03 -0.40352435043E+03  0.43711621872E+03  0.90361408760E+02 0.  0.
          5    1    1    2  502    0  0.32777722430E+02  0.69791439672E+02 -0.17348397078E+03  0.18990524547E+03  0.47000000000E+01 0.  1.
         -5    1    1    2    0  502 -0.26721656251E+02  0.71760060313E+02 -0.17376478152E+02  0.78661204936E+02  0.47000000000E+01 0.  1.
        -11    1    3    3    0    0 -0.17763922635E+02  0.11586567562E+01 -0.15821477068E+02  0.23816350884E+02  0.00000000000E+00 0. -1.
         11    1    3    3    0    0  0.11707856456E+02 -0.14271015674E+03 -0.38770287336E+03  0.41329986784E+03  0.00000000000E+00 0.  1.
<mgrwt>
<rscale>  0 0.18348779E+03</rscale>
<asrwt>0</asrwt>
<pdfrwt beam="2">  1        4 0.10000519E+00 0.18894504E+03</pdfrwt>
<pdfrwt beam="1">  1       -4 0.85613744E-02 0.18894504E+03</pdfrwt>
<totfact> 0.14872060E+02</totfact>
</mgrwt>
</event>
<event>
 7    1  0.5107591E-006  0.2276469E+03  0.7546771E-02  0.1131386E+00
          2   -1    0    0  501    0  0.00000000000E+00  0.00000000000E+00  0.15059710135E+04  0.15059710135E+04  0.00000000000E+00 0. -1.
         -2   -1    0    0    0  501 -0.00000000000E+00 -0.00000000000E+00 -0.32000861600E+02  0.32000861600E+02  0.00000000000E+00 0.  1.
         23    2    1    2    0    0 -0.18135164661E+03 -0.57536654527E+02  0.73959653633E+03  0.76912356206E+03  0.91373578307E+02 0.  0.
          5    1    1    2  502    0  0.10112829893E+03  0.86464747721E+02  0.33586650352E+03  0.36129141095E+03  0.47000000000E+01 0. -1.
         -5    1    1    2    0  502  0.80223347677E+02 -0.28928093193E+02  0.39850711203E+03  0.40755690207E+03  0.47000000000E+01 0. -1.
        -11    1    3    3    0    0 -0.15307199355E+03 -0.18122028790E+02  0.45443297927E+03  0.47986328865E+03  0.00000000000E+00 0. -1.
         11    1    3    3    0    0 -0.28279653053E+02 -0.39414625737E+02  0.28516355706E+03  0.28926027341E+03  0.00000000000E+00 0.  1.
<mgrwt>
<rscale>  0 0.22338288E+03</rscale>
<asrwt>0</asrwt>
<pdfrwt beam="1">  1        2 0.23168779E+00 0.22764692E+03</pdfrwt>
<pdfrwt beam="2">  1       -2 0.49232106E-02 0.22764692E+03</pdfrwt>
<totfact> 0.27145886E+03</totfact>
</mgrwt>
</event>
<event>
 7    1  0.5107591E-006  0.2030244E+03  0.7546771E-02  0.1150350E+00
         -2   -1    0    0    0  501 -0.00000000000E+00  0.00000000000E+00  0.27581730703E+03  0.27581730703E+03  0.00000000000E+00 0. -1.
          2   -1    0    0  501    0  0.00000000000E+00 -0.00000000000E+00 -0.39588934207E+03  0.39588934207E+03  0.00000000000E+00 0.  1.
         23    2    1    2    0    0 -0.73971311071E+02  0.14185053105E+03 -0.32977799358E+03  0.37982398597E+03  0.99596221057E+02 0.  0.
          5    1    1    2  502    0  0.49121509923E+01  0.22632367167E+02  0.16195085600E+02  0.28648282122E+02  0.47000000000E+01 0. -1.
         -5    1    1    2    0  502  0.69059160078E+02 -0.16448289822E+03  0.19351087294E+03  0.26323438101E+03  0.47000000000E+01 0. -1.
        -11    1    3    3    0    0 -0.34427508742E+01  0.60650310648E+02 -0.45553688925E+02  0.75930568877E+02  0.00000000000E+00 0. -1.
         11    1    3    3    0    0 -0.70528560196E+02  0.81200220401E+02 -0.28422430465E+03  0.30389341709E+03  0.00000000000E+00 0.  1.
<mgrwt>
<rscale>  0 0.19927791E+03</rscale>
<asrwt>0</asrwt>
<pdfrwt beam="2">  1        2 0.60906052E-01 0.20302438E+03</pdfrwt>
<pdfrwt beam="1">  1       -2 0.42433432E-01 0.20302438E+03</pdfrwt>
<totfact> 0.43225611E+02</totfact>
</mgrwt>
</event>
<event>
 7    1  0.5107591E-006  0.1338893E+03  0.7546771E-02  0.1235183E+00
         -2   -1    0    0    0  501 -0.00000000000E+00  0.00000000000E+00  0.33363726519E+02  0.33363726519E+02  0.00000000000E+00 0.  1.
          2   -1    0    0  501    0  0.00000000000E+00 -0.00000000000E+00 -0.41990586258E+03  0.41990586258E+03  0.00000000000E+00 0. -1.
         23    2    1    2    0    0 -0.21208065422E+02 -0.43032545386E+02 -0.19093360460E+03  0.21622729790E+03  0.89426064367E+02 0.  0.
          5    1    1    2  502    0 -0.19176652353E+02  0.36179060535E+02 -0.44129655815E+01  0.41451570319E+02  0.47000000000E+01 0. -1.
         -5    1    1    2    0  502  0.40384717775E+02  0.68534848508E+01 -0.19119556587E+03  0.19559072088E+03  0.47000000000E+01 0. -1.
        -11    1    3    3    0    0 -0.40102749311E+02  0.13103733145E+02 -0.83166838765E+02  0.93255892011E+02  0.00000000000E+00 0.  1.
         11    1    3    3    0    0  0.18894683889E+02 -0.56136278531E+02 -0.10776676584E+03  0.12297140589E+03  0.00000000000E+00 0. -1.
<mgrwt>
<rscale>  0 0.12492712E+03</rscale>
<asrwt>0</asrwt>
<pdfrwt beam="2">  1        2 0.64600899E-01 0.13388932E+03</pdfrwt>
<pdfrwt beam="1">  1       -2 0.51328813E-02 0.13388932E+03</pdfrwt>
<totfact> 0.13435972E+04</totfact>
</mgrwt>
</event>
<event>
 7    1  0.5107591E-006  0.2215463E+03  0.7546771E-02  0.1132735E+00
          1   -1    0    0  501    0  0.00000000000E+00  0.00000000000E+00  0.36751066843E+03  0.36751066843E+03  0.00000000000E+00 0. -1.
         -1   -1    0    0    0  501 -0.00000000000E+00 -0.00000000000E+00 -0.33388660740E+02  0.33388660740E+02  0.00000000000E+00 0.  1.
         23    2    1    2    0    0 -0.54929059273E+01  0.45585180809E+00  0.98465948620E+02  0.13408596250E+03  0.90846697709E+02 0.  0.
          5    1    1    2  502    0 -0.89422687576E+01  0.15399072037E+01 -0.13642336411E+02  0.17045199544E+02  0.47000000000E+01 0. -1.
         -5    1    1    2    0  502  0.14435174685E+02 -0.19957590118E+01  0.24929839548E+03  0.24976816713E+03  0.47000000000E+01 0. -1.
        -11    1    3    3    0    0 -0.31179781285E+02 -0.26497632140E+02  0.85277225134E+02  0.94585984144E+02  0.00000000000E+00 0. -1.
         11    1    3    3    0    0  0.25686875358E+02  0.26953483948E+02  0.13188723486E+02  0.39499978352E+02  0.00000000000E+00 0.  1.
<mgrwt>
<rscale>  0 0.22154628E+03</rscale>
<asrwt>0</asrwt>
<pdfrwt beam="1">  1        1 0.56540100E-01 0.22154628E+03</pdfrwt>
<pdfrwt beam="2">  1       -1 0.51367173E-02 0.22154628E+03</pdfrwt>
<totfact> 0.11190140E+04</totfact>
</mgrwt>
</event>
<event>
 7    1  0.5107591E-006  0.1444308E+03  0.7546771E-02  0.1217197E+00
          1   -1    0    0  501    0  0.00000000000E+00  0.00000000000E+00  0.37624187345E+03  0.37624187345E+03  0.00000000000E+00 0. -1.
         -1   -1    0    0    0  501 -0.00000000000E+00 -0.00000000000E+00 -0.46280301187E+02  0.46280301187E+02  0.00000000000E+00 0.  1.
         23    2    1    2    0    0  0.11900032684E+02 -0.71375971590E+02  0.17407139665E+03  0.21000861775E+03  0.92556081930E+02 0.  0.
          5    1    1    2  502    0 -0.55855181101E+02  0.53859442747E+02  0.14377593356E+03  0.16344494456E+03  0.47000000000E+01 0.  1.
         -5    1    1    2    0  502  0.43955148417E+02  0.17516528843E+02  0.12114242050E+02  0.49068612325E+02  0.47000000000E+01 0.  1.
        -11    1    3    3    0    0  0.10693192989E+02 -0.89478560678E+02  0.10392620339E+03  0.13755512694E+03  0.00000000000E+00 0.  1.
         11    1    3    3    0    0  0.12068396958E+01  0.18102589088E+02  0.70145193255E+02  0.72453490809E+02  0.00000000000E+00 0. -1.
<mgrwt>
<rscale>  0 0.13716418E+03</rscale>
<asrwt>0</asrwt>
<pdfrwt beam="1">  1        1 0.57883363E-01 0.14443083E+03</pdfrwt>
<pdfrwt beam="2">  1       -1 0.71200466E-02 0.14443083E+03</pdfrwt>
<totfact> 0.64797671E+03</totfact>
</mgrwt>
</event>
<event>
 7    1  0.5107591E-006  0.1414203E+03  0.7546771E-02  0.1222800E+00
         -2   -1    0    0    0  501 -0.00000000000E+00  0.00000000000E+00  0.73383631465E+03  0.73383631465E+03  0.00000000000E+00 0.  1.
          2   -1    0    0  501    0  0.00000000000E+00 -0.00000000000E+00 -0.24100269023E+02  0.24100269023E+02  0.00000000000E+00 0. -1.
         23    2    1    2    0    0  0.66107621145E+02  0.24239463861E+01  0.19907938764E+03  0.22805931241E+03  0.89455879097E+02 0.  0.
          5    1    1    2  502    0  0.14123412267E+02  0.24142374097E+02  0.32025203883E+03  0.32150549509E+03  0.47000000000E+01 0.  1.
         -5    1    1    2    0  502 -0.80231033412E+02 -0.26566320483E+02  0.19040461916E+03  0.20837177617E+03  0.47000000000E+01 0.  1.
        -11    1    3    3    0    0  0.80159284774E+02 -0.21467584725E+02  0.15862754002E+03  0.17902252535E+03  0.00000000000E+00 0.  1.
         11    1    3    3    0    0 -0.14051663629E+02  0.23891531111E+02  0.40451847613E+02  0.49036787057E+02  0.00000000000E+00 0. -1.
<mgrwt>
<rscale>  0 0.13318861E+03</rscale>
<asrwt>0</asrwt>
<pdfrwt beam="2">  1        2 0.37077343E-02 0.14142030E+03</pdfrwt>
<pdfrwt beam="1">  1       -2 0.11289788E+00 0.14142030E+03</pdfrwt>
<totfact> 0.14598716E+03</totfact>
</mgrwt>
</event>
<event>
 7    1  0.5107591E-006  0.1306296E+03  0.7546771E-02  0.1240053E+00
         -3   -1    0    0    0  501 -0.00000000000E+00  0.00000000000E+00  0.61773064060E+03  0.61773064060E+03  0.00000000000E+00 0.  1.
          3   -1    0    0  501    0  0.00000000000E+00 -0.00000000000E+00 -0.29220612174E+02  0.29220612174E+02  0.00000000000E+00 0. -1.
         23    2    1    2    0    0  0.36544467831E+02 -0.97448732558E+01  0.97680178355E+02  0.13903587727E+03  0.91428098756E+02 0.  0.
          5    1    1    2  502    0  0.12583520298E+02  0.43015495031E+02  0.37490454975E+03  0.37760321665E+03  0.47000000000E+01 0. -1.
         -5    1    1    2    0  502 -0.49127988130E+02 -0.33270621776E+02  0.11592530032E+03  0.13031215885E+03  0.47000000000E+01 0. -1.
        -11    1    3    3    0    0  0.53069315394E+02  0.14582737395E+02  0.94627553267E+02  0.10946863616E+03  0.00000000000E+00 0.  1.
         11    1    3    3    0    0 -0.16524847563E+02 -0.24327610651E+02  0.30526250878E+01  0.29567241110E+02  0.00000000000E+00 0. -1.
<mgrwt>
<rscale>  0 0.12186431E+03</rscale>
<asrwt>0</asrwt>
<pdfrwt beam="2">  1        3 0.44954792E-02 0.13062958E+03</pdfrwt>
<pdfrwt beam="1">  1       -3 0.95035474E-01 0.13062958E+03</pdfrwt>
<totfact> 0.63184022E+02</totfact>
</mgrwt>
</event>
<event>
 7    1  0.5107591E-006  0.1392694E+03  0.7546771E-02  0.1224488E+00
         -2   -1    0    0    0  501 -0.00000000000E+00  0.00000000000E+00  0.68701177960E+02  0.68701177960E+02  0.00000000000E+00 0. -1.
          2   -1    0    0  501    0  0.00000000000E+00 -0.00000000000E+00 -0.23209629548E+03  0.23209629548E+03  0.00000000000E+00 0.  1.
         23    2    1    2    0    0 -0.16558943720E+01  0.61388729536E+02 -0.85095977720E+02  0.14102667654E+03  0.94211888695E+02 0.  0.
          5    1    1    2  502    0  0.34030869791E+02  0.11300592834E+01  0.19235530325E+02  0.39388738995E+02  0.47000000000E+01 0.  1.
         -5    1    1    2    0  502 -0.32374975419E+02 -0.62518788820E+02 -0.97534670120E+02  0.12038205790E+03  0.47000000000E+01 0.  1.
        -11    1    3    3    0    0  0.38955976396E+02  0.84619636124E+01 -0.54778112071E+02  0.67748169623E+02  0.00000000000E+00 0.  1.
         11    1    3    3    0    0 -0.40611870768E+02  0.52926765924E+02 -0.30317865649E+02  0.73278506917E+02  0.00000000000E+00 0. -1.
<mgrwt>
<rscale>  0 0.13202037E+03</rscale>
<asrwt>0</asrwt>
<pdfrwt beam="2">  1        2 0.35707123E-01 0.13926935E+03</pdfrwt>
<pdfrwt beam="1">  1       -2 0.10569412E-01 0.13926935E+03</pdfrwt>
<totfact> 0.83382557E+03</totfact>
</mgrwt>
</event>
<event>
 7    1  0.5107591E-006  0.2037558E+03  0.7546771E-02  0.1150775E+00
         -1   -1    0    0    0  501 -0.00000000000E+00  0.00000000000E+00  0.91701579803E+03  0.91701579803E+03  0.00000000000E+00 0. -1.
          1   -1    0    0  501    0  0.00000000000E+00 -0.00000000000E+00 -0.60407329291E+02  0.60407329291E+02  0.00000000000E+00 0.  1.
         23    2    1    2    0    0 -0.13473800793E+03  0.87956899763E+02  0.13789471780E+03  0.23038506584E+03  0.90396782949E+02 0.  0.
          5    1    1    2  502    0  0.13118899962E+03 -0.11585953464E+03  0.60772936150E+03  0.63244845815E+03  0.47000000000E+01 0. -1.
         -5    1    1    2    0  502  0.35490083034E+01  0.27902634873E+02  0.11098438945E+03  0.11458960334E+03  0.47000000000E+01 0. -1.
        -11    1    3    3    0    0 -0.75975590017E+02  0.45008567977E+00  0.37134250246E+02  0.84566219006E+02  0.00000000000E+00 0.  1.
         11    1    3    3    0    0 -0.58762417910E+02  0.87506814083E+02  0.10076046755E+03  0.14581884683E+03  0.00000000000E+00 0. -1.
<mgrwt>
<rscale>  0 0.19877726E+03</rscale>
<asrwt>0</asrwt>
<pdfrwt beam="2">  1        1 0.92934359E-02 0.20375576E+03</pdfrwt>
<pdfrwt beam="1">  1       -1 0.14107934E+00 0.20375576E+03</pdfrwt>
<totfact> 0.31522811E+02</totfact>
</mgrwt>
</event>
<event>
 6    1  0.5107591E-006  0.4009656E+03  0.7546771E-02  0.1043446E+00
         -2   -1    0    0    0  501 -0.00000000000E+00  0.00000000000E+00  0.33673533446E+03  0.33673533446E+03  0.00000000000E+00 0.  1.
          2   -1    0    0  501    0  0.00000000000E+00 -0.00000000000E+00 -0.11936182588E+03  0.11936182588E+03  0.00000000000E+00 0. -1.
          5    1    1    2  502    0  0.64241616581E+01 -0.49816045876E+01 -0.11345720627E+02  0.14727580039E+02  0.47000000000E+01 0. -1.
         -5    1    1    2    0  502 -0.99184361712E+02  0.17273475881E+02  0.26041797474E+03  0.27924097504E+03  0.47000000000E+01 0. -1.
        -11    1    1    2    0    0  0.71572674608E+02  0.45086048011E+02 -0.50028378915E+02  0.98276335771E+02  0.00000000000E+00 0. -1.
         11    1    1    2    0    0  0.21187525446E+02 -0.57377919304E+02  0.18329633381E+02  0.63852269482E+02  0.00000000000E+00 0.  1.
<mgrwt>
<rscale>  0 0.40096556E+03</rscale>
<asrwt>0</asrwt>
<pdfrwt beam="2">  1        2 0.18363358E-01 0.40096556E+03</pdfrwt>
<pdfrwt beam="1">  1       -2 0.51805436E-01 0.40096556E+03</pdfrwt>
<totfact> 0.11044951E+03</totfact>
</mgrwt>
</event>
<event>
 7    1  0.5107591E-006  0.1304528E+03  0.7546771E-02  0.1240988E+00
          1   -1    0    0  501    0  0.00000000000E+00  0.00000000000E+00  0.20797146074E+02  0.20797146074E+02  0.00000000000E+00 0. -1.
         -1   -1    0    0    0  501 -0.00000000000E+00 -0.00000000000E+00 -0.64874806409E+03  0.64874806409E+03  0.00000000000E+00 0.  1.
         23    2    1    2    0    0  0.29783533004E+02  0.22444187579E+02 -0.20619219162E+03  0.22807225990E+03  0.90060732051E+02 0.  0.
          5    1    1    2  502    0  0.16483133668E+02  0.15834859578E+02 -0.33524759684E+03  0.33605874138E+03  0.47000000000E+01 0. -1.
         -5    1    1    2    0  502 -0.46266666673E+02 -0.38279047157E+02 -0.86511129554E+02  0.10541420888E+03  0.47000000000E+01 0. -1.
        -11    1    3    3    0    0 -0.19826404820E+02  0.10914364929E+01 -0.60308160012E+01  0.20752067447E+02  0.00000000000E+00 0. -1.
         11    1    3    3    0    0  0.49609937824E+02  0.21352751086E+02 -0.20016137562E+03  0.20732019246E+03  0.00000000000E+00 0.  1.
<mgrwt>
<rscale>  0 0.12128735E+03</rscale>
<asrwt>0</asrwt>
<pdfrwt beam="1">  1        1 0.31995607E-02 0.13045284E+03</pdfrwt>
<pdfrwt beam="2">  1       -1 0.99807401E-01 0.13045284E+03</pdfrwt>
<totfact> 0.30278398E+03</totfact>
</mgrwt>
</event>
<event>
 7    1  0.5107591E-006  0.1559359E+03  0.7546771E-02  0.1201496E+00
          1   -1    0    0  501    0  0.00000000000E+00  0.00000000000E+00  0.24875476346E+03  0.24875476346E+03  0.00000000000E+00 0. -1.
         -1   -1    0    0    0  501 -0.00000000000E+00 -0.00000000000E+00 -0.93241806007E+02  0.93241806007E+02  0.00000000000E+00 0.  1.
         23    2    1    2    0    0  0.25619593730E+02  0.89626996455E+02  0.12949179305E+03  0.18390450601E+03  0.91451521515E+02 0.  0.
          5    1    1    2  502    0 -0.59156709812E+02 -0.10292086571E+03  0.26434346842E+02  0.12170902023E+03  0.47000000000E+01 0. -1.
         -5    1    1    2    0  502  0.33537116082E+02  0.13293869250E+02 -0.41318243364E+00  0.36383043227E+02  0.47000000000E+01 0. -1.
        -11    1    3    3    0    0  0.46722728050E+01  0.51114628036E+02  0.13031205038E+03  0.14005629513E+03  0.00000000000E+00 0. -1.
         11    1    3    3    0    0  0.20947320925E+02  0.38512368419E+02 -0.82025732799E+00  0.43848210879E+02  0.00000000000E+00 0.  1.
<mgrwt>
<rscale>  0 0.14917080E+03</rscale>
<asrwt>0</asrwt>
<pdfrwt beam="1">  1        1 0.38269963E-01 0.15593588E+03</pdfrwt>
<pdfrwt beam="2">  1       -1 0.14344893E-01 0.15593588E+03</pdfrwt>
<totfact> 0.37232710E+03</totfact>
</mgrwt>
</event>
<event>
 7    1  0.5107591E-006  0.1675817E+03  0.7546771E-02  0.1187627E+00
         -1   -1    0    0    0  501 -0.00000000000E+00  0.00000000000E+00  0.23783239989E+03  0.23783239989E+03  0.00000000000E+00 0.  1.
          1   -1    0    0  501    0  0.00000000000E+00 -0.00000000000E+00 -0.10127836424E+03  0.10127836424E+03  0.00000000000E+00 0. -1.
         23    2    1    2    0    0  0.12268730425E+02 -0.11089942410E+03  0.69268358243E+02  0.15852563886E+03  0.88786647146E+02 0.  0.
          5    1    1    2  502    0  0.91762672865E+01  0.11147860532E+03  0.22882709771E+01  0.11197771881E+03  0.47000000000E+01 0. -1.
         -5    1    1    2    0  502 -0.21444997711E+02 -0.57918122167E+00  0.64997406434E+02  0.68607406457E+02  0.47000000000E+01 0. -1.
        -11    1    3    3    0    0 -0.23531855372E+02 -0.65653965252E+02  0.72678222568E+02  0.10072892041E+03  0.00000000000E+00 0.  1.
         11    1    3    3    0    0  0.35800585797E+02 -0.45245458847E+02 -0.34098643246E+01  0.57796718457E+02  0.00000000000E+00 0. -1.
<mgrwt>
<rscale>  0 0.16095081E+03</rscale>
<asrwt>0</asrwt>
<pdfrwt beam="2">  1        1 0.15581287E-01 0.16758170E+03</pdfrwt>
<pdfrwt beam="1">  1       -1 0.36589600E-01 0.16758170E+03</pdfrwt>
<totfact> 0.25067452E+03</totfact>
</mgrwt>
</event>
<event>
 7    1  0.5107591E-006  0.1451663E+03  0.7546771E-02  0.1217274E+00
         -1   -1    0    0    0  501 -0.00000000000E+00  0.00000000000E+00  0.18133607959E+02  0.18133607959E+02  0.00000000000E+00 0.  1.
          1   -1    0    0  501    0  0.00000000000E+00 -0.00000000000E+00 -0.94566537602E+03  0.94566537602E+03  0.00000000000E+00 0. -1.
         23    2    1    2    0    0  0.67827347270E+02  0.28688856640E+02 -0.45762190585E+03  0.47197733772E+03  0.89001118407E+02 0.  0.
          5    1    1    2  502    0  0.35761421695E+02  0.18264602737E+01 -0.94721628315E+02  0.10137303443E+03  0.47000000000E+01 0.  1.
         -5    1    1    2    0  502 -0.10358876897E+03 -0.30515316914E+02 -0.37518823389E+03  0.39044861182E+03  0.47000000000E+01 0.  1.
        -11    1    3    3    0    0  0.80795806392E+02 -0.22570695224E+01 -0.29136176867E+03  0.30236523765E+03  0.00000000000E+00 0. -1.
         11    1    3    3    0    0 -0.12968459122E+02  0.30945926163E+02 -0.16626013718E+03  0.16961210008E+03  0.00000000000E+00 0.  1.
<mgrwt>
<rscale>  0 0.13710817E+03</rscale>
<asrwt>0</asrwt>
<pdfrwt beam="2">  1        1 0.14548705E+00 0.14516629E+03</pdfrwt>
<pdfrwt beam="1">  1       -1 0.27897844E-02 0.14516629E+03</pdfrwt>
<totfact> 0.71836596E+03</totfact>
</mgrwt>
</event>
<event>
 7    1  0.5107591E-006  0.1363471E+03  0.7546771E-02  0.1230709E+00
         -2   -1    0    0    0  501 -0.00000000000E+00  0.00000000000E+00  0.86532719588E+02  0.86532719588E+02  0.00000000000E+00 0.  1.
          2   -1    0    0  501    0  0.00000000000E+00 -0.00000000000E+00 -0.23165058548E+03  0.23165058548E+03  0.00000000000E+00 0. -1.
         23    2    1    2    0    0  0.53145243335E+02 -0.11891682470E+02 -0.14816914829E+03  0.18180207021E+03  0.90177975291E+02 0.  0.
          5    1    1    2  502    0 -0.89935024438E+02 -0.38616659619E+01 -0.16426325358E+02  0.91624970666E+02  0.47000000000E+01 0. -1.
         -5    1    1    2    0  502  0.36789781104E+02  0.15753348431E+02  0.19477607754E+02  0.44756264191E+02  0.47000000000E+01 0. -1.
        -11    1    3    3    0    0  0.75446841289E+02 -0.24011462595E+02 -0.10208461753E+03  0.12918995833E+03  0.00000000000E+00 0.  1.
         11    1    3    3    0    0 -0.22301597954E+02  0.12119780126E+02 -0.46084530760E+02  0.52612111885E+02  0.00000000000E+00 0. -1.
<mgrwt>
<rscale>  0 0.12783198E+03</rscale>
<asrwt>0</asrwt>
<pdfrwt beam="2">  1        2 0.35638551E-01 0.13634710E+03</pdfrwt>
<pdfrwt beam="1">  1       -2 0.13312726E-01 0.13634710E+03</pdfrwt>
<totfact> 0.57733724E+03</totfact>
</mgrwt>
</event>
<event>
 7    1  0.5107591E-006  0.2206510E+03  0.7546771E-02  0.1136728E+00
          2   -1    0    0  501    0  0.00000000000E+00  0.00000000000E+00  0.13166756907E+04  0.13166756907E+04  0.00000000000E+00 0. -1.
         -2   -1    0    0    0  501 -0.00000000000E+00 -0.00000000000E+00 -0.41169558681E+02  0.41169558681E+02  0.00000000000E+00 0.  1.
         23    2    1    2    0    0 -0.68845356899E+02  0.16828454076E+03  0.89637569912E+03  0.91918052047E+03  0.91345856063E+02 0.  0.
          5    1    1    2  502    0  0.82830889548E+02 -0.17846420349E+03  0.30957555326E+03  0.36683721372E+03  0.47000000000E+01 0.  1.
         -5    1    1    2    0  502 -0.13985532649E+02  0.10179662733E+02  0.69554879602E+02  0.71827515154E+02  0.47000000000E+01 0.  1.
        -11    1    3    3    0    0 -0.71569350908E+02  0.15396772867E+03  0.88370724126E+03  0.89987039163E+03  0.00000000000E+00 0. -1.
         11    1    3    3    0    0  0.27239940087E+01  0.14316812084E+02  0.12668457852E+02  0.19310128843E+02  0.00000000000E+00 0.  1.
<mgrwt>
<rscale>  0 0.21622652E+03</rscale>
<asrwt>0</asrwt>
<pdfrwt beam="1">  1        2 0.20256546E+00 0.22065099E+03</pdfrwt>
<pdfrwt beam="2">  1       -2 0.63337793E-02 0.22065099E+03</pdfrwt>
<totfact> 0.23364362E+03</totfact>
</mgrwt>
</event>
<event>
 7    1  0.5107591E-006  0.1570931E+03  0.7546771E-02  0.1199656E+00
         -1   -1    0    0    0  501 -0.00000000000E+00  0.00000000000E+00  0.47703746609E+03  0.47703746609E+03  0.00000000000E+00 0.  1.
          1   -1    0    0  501    0  0.00000000000E+00 -0.00000000000E+00 -0.56489510349E+02  0.56489510349E+02  0.00000000000E+00 0. -1.
         23    2    1    2    0    0 -0.39279946635E+02  0.86663640720E+02  0.71900422599E+02  0.15112229892E+03  0.92815826395E+02 0.  0.
          5    1    1    2  502    0  0.76137153511E+02 -0.49715229810E+02  0.28902719726E+03  0.30303016513E+03  0.47000000000E+01 0.  1.
         -5    1    1    2    0  502 -0.36857206876E+02 -0.36948410911E+02  0.59620335882E+02  0.79374512396E+02  0.47000000000E+01 0.  1.
        -11    1    3    3    0    0 -0.63312969144E+02  0.83757880384E+02  0.43093665953E+02  0.11349439913E+03  0.00000000000E+00 0. -1.
         11    1    3    3    0    0  0.24033022509E+02  0.29057603367E+01  0.28806756646E+02  0.37627899789E+02  0.00000000000E+00 0.  1.
<mgrwt>
<rscale>  0 0.15066663E+03</rscale>
<asrwt>0</asrwt>
<pdfrwt beam="2">  1        1 0.86906942E-02 0.15709308E+03</pdfrwt>
<pdfrwt beam="1">  1       -1 0.73390377E-01 0.15709308E+03</pdfrwt>
<totfact> 0.14866139E+03</totfact>
</mgrwt>
</event>
<event>
 7    1  0.5107591E-006  0.1323103E+03  0.7546771E-02  0.1238315E+00
          1   -1    0    0  501    0  0.00000000000E+00  0.00000000000E+00  0.76017629209E+03  0.76017629209E+03  0.00000000000E+00 0. -1.
         -1   -1    0    0    0  501 -0.00000000000E+00 -0.00000000000E+00 -0.18465451881E+02  0.18465451881E+02  0.00000000000E+00 0.  1.
         23    2    1    2    0    0 -0.99751472924E+01 -0.42195511461E+02  0.40567578940E+03  0.41749692599E+03  0.88605148593E+02 0.  0.
          5    1    1    2  502    0 -0.17702978963E+02  0.18314179674E+02  0.29981454529E+01  0.26074576074E+02  0.47000000000E+01 0.  1.
         -5    1    1    2    0  502  0.27678126255E+02  0.23881331787E+02  0.33303690536E+03  0.33507024191E+03  0.47000000000E+01 0.  1.
        -11    1    3    3    0    0  0.34410167111E+02 -0.46815748258E+00  0.98500546144E+02  0.10433904525E+03  0.00000000000E+00 0.  1.
         11    1    3    3    0    0 -0.44385314404E+02 -0.41727353978E+02  0.30717524326E+03  0.31315788075E+03  0.00000000000E+00 0. -1.
<mgrwt>
<rscale>  0 0.12294591E+03</rscale>
<asrwt>0</asrwt>
<pdfrwt beam="1">  1        1 0.11695017E+00 0.13231033E+03</pdfrwt>
<pdfrwt beam="2">  1       -1 0.28408393E-02 0.13231033E+03</pdfrwt>
<totfact> 0.97650818E+03</totfact>
</mgrwt>
</event>
<event>
 7    1  0.5107591E-006  0.1416318E+03  0.7546771E-02  0.1222070E+00
          1   -1    0    0  501    0  0.00000000000E+00  0.00000000000E+00  0.12159353114E+03  0.12159353114E+03  0.00000000000E+00 0. -1.
         -1   -1    0    0    0  501 -0.00000000000E+00 -0.00000000000E+00 -0.17271469749E+03  0.17271469749E+03  0.00000000000E+00 0.  1.
         23    2    1    2    0    0  0.57366868772E+02 -0.33806321591E+02  0.47124095102E+02  0.12193741662E+03  0.90632379536E+02 0.  0.
          5    1    1    2  502    0 -0.92162683684E+02  0.40358558075E+02 -0.50298766880E+02  0.11258254493E+03  0.47000000000E+01 0. -1.
         -5    1    1    2    0  502  0.34795814912E+02 -0.65522364846E+01 -0.47946494575E+02  0.59788267080E+02  0.47000000000E+01 0. -1.
        -11    1    3    3    0    0 -0.20960629419E+02  0.20145318179E+01 -0.44843819254E+01  0.21529421853E+02  0.00000000000E+00 0.  1.
         11    1    3    3    0    0  0.78327498191E+02 -0.35820853408E+02  0.51608477028E+02  0.10040799477E+03  0.00000000000E+00 0. -1.
<mgrwt>
<rscale>  0 0.13369758E+03</rscale>
<asrwt>0</asrwt>
<pdfrwt beam="1">  1        1 0.18706697E-01 0.14163180E+03</pdfrwt>
<pdfrwt beam="2">  1       -1 0.26571492E-01 0.14163180E+03</pdfrwt>
<totfact> 0.33792441E+03</totfact>
</mgrwt>
</event>
<event>
 7    1  0.5107591E-006  0.1886893E+03  0.7546771E-02  0.1165418E+00
          2   -1    0    0  501    0  0.00000000000E+00  0.00000000000E+00  0.40172227293E+03  0.40172227293E+03  0.00000000000E+00 0. -1.
         -2   -1    0    0    0  501 -0.00000000000E+00 -0.00000000000E+00 -0.11820851502E+03  0.11820851502E+03  0.00000000000E+00 0.  1.
         23    2    1    2    0    0  0.10742426006E+03 -0.49840768829E+02  0.28713704905E+03  0.33120674127E+03  0.11500498528E+03 0.  0.
          5    1    1    2  502    0 -0.35676951621E+02  0.11602060453E+02  0.69601274339E+02  0.79207828359E+02  0.47000000000E+01 0. -1.
         -5    1    1    2    0  502 -0.71747308440E+02  0.38238708375E+02 -0.73224565480E+02  0.10951621833E+03  0.47000000000E+01 0.  1.
        -11    1    3    3    0    0 -0.16004324952E+02 -0.11937193961E+01  0.13241405327E+01  0.16103314296E+02  0.00000000000E+00 0.  1.
         11    1    3    3    0    0  0.12342858501E+03 -0.48647049433E+02  0.28581290852E+03  0.31510342698E+03  0.00000000000E+00 0. -1.
<mgrwt>
<rscale>  0 0.18248688E+03</rscale>
<asrwt>0</asrwt>
<pdfrwt beam="1">  1        2 0.61803426E-01 0.18868926E+03</pdfrwt>
<pdfrwt beam="2">  1       -2 0.18185926E-01 0.18868926E+03</pdfrwt>
<totfact> 0.19454001E+03</totfact>
</mgrwt>
</event>
<event>
 7    1  0.5107591E-006  0.1340424E+03  0.7546771E-02  0.1234349E+00
          2   -1    0    0  501    0  0.00000000000E+00  0.00000000000E+00  0.22597957032E+03  0.22597957032E+03  0.00000000000E+00 0. -1.
         -2   -1    0    0    0  501 -0.00000000000E+00 -0.00000000000E+00 -0.74000833176E+02  0.74000833176E+02  0.00000000000E+00 0.  1.
         23    2    1    2    0    0 -0.36780126499E+02  0.31458223487E+02  0.12731867285E+03  0.16368848257E+03  0.90782582796E+02 0.  0.
          5    1    1    2  502    0 -0.25186280498E+02 -0.35969943395E+02 -0.30015114252E+02  0.53396466519E+02  0.47000000000E+01 0. -1.
         -5    1    1    2    0  502  0.61966406997E+02  0.45117199083E+01  0.54675178548E+02  0.82895454411E+02  0.47000000000E+01 0. -1.
        -11    1    3    3    0    0 -0.30647482058E+02  0.43007290979E+01 -0.23762851661E+01  0.31038865290E+02  0.00000000000E+00 0.  1.
         11    1    3    3    0    0 -0.61326444410E+01  0.27157494389E+02  0.12969495802E+03  0.13264961728E+03  0.00000000000E+00 0. -1.
<mgrwt>
<rscale>  0 0.12546202E+03</rscale>
<asrwt>0</asrwt>
<pdfrwt beam="1">  1        2 0.34766088E-01 0.13404241E+03</pdfrwt>
<pdfrwt beam="2">  1       -2 0.11384744E-01 0.13404241E+03</pdfrwt>
<totfact> 0.76071394E+03</totfact>
</mgrwt>
</event>
<event>
 7    1  0.5107591E-006  0.1531430E+03  0.7546771E-02  0.1205388E+00
         -2   -1    0    0    0  501 -0.00000000000E+00  0.00000000000E+00  0.78509769639E+03  0.78509769639E+03  0.00000000000E+00 0. -1.
          2   -1    0    0  501    0  0.00000000000E+00 -0.00000000000E+00 -0.26345190214E+02  0.26345190214E+02  0.00000000000E+00 0.  1.
         23    2    1    2    0    0  0.54108721807E+02  0.70006983379E+02  0.25239422704E+03  0.28243298598E+03  0.90756896309E+02 0.  0.
          5    1    1    2  502    0 -0.71799373652E+02 -0.45236585588E+02  0.15901292426E+03  0.18030168832E+03  0.47000000000E+01 0. -1.
         -5    1    1    2    0  502  0.17690651845E+02 -0.24770397791E+02  0.34734535489E+03  0.34870821231E+03  0.47000000000E+01 0. -1.
        -11    1    3    3    0    0  0.91350243586E+01  0.55034681509E+02  0.21482202637E+03  0.22194766917E+03  0.00000000000E+00 0.  1.
         11    1    3    3    0    0  0.44973697448E+02  0.14972301871E+02  0.37572200671E+02  0.60485316803E+02  0.00000000000E+00 0. -1.
<mgrwt>
<rscale>  0 0.14606956E+03</rscale>
<asrwt>0</asrwt>
<pdfrwt beam="2">  1        2 0.40531068E-02 0.15314297E+03</pdfrwt>
<pdfrwt beam="1">  1       -2 0.12078424E+00 0.15314297E+03</pdfrwt>
<totfact> 0.11086133E+03</totfact>
</mgrwt>
</event>
<event>
 7    1  0.5107591E-006  0.1712258E+03  0.7546771E-02  0.1183043E+00
         -1   -1    0    0    0  501 -0.00000000000E+00  0.00000000000E+00  0.19278415388E+03  0.19278415388E+03  0.00000000000E+00 0.  1.
          1   -1    0    0  501    0  0.00000000000E+00 -0.00000000000E+00 -0.13477176895E+03  0.13477176895E+03  0.00000000000E+00 0. -1.
         23    2    1    2    0    0  0.60702637169E+02 -0.10004609235E+03  0.49549766763E+02  0.15612111823E+03  0.90689544149E+02 0.  0.
          5    1    1    2  502    0 -0.46267035705E+02  0.10769367912E+03 -0.36915466328E+02  0.12297726932E+03  0.47000000000E+01 0.  1.
         -5    1    1    2    0  502 -0.14435601464E+02 -0.76475867713E+01  0.45378084497E+02  0.48457535283E+02  0.47000000000E+01 0.  1.
        -11    1    3    3    0    0  0.23071002430E+02  0.12895117591E+02 -0.17600593080E+01  0.26488733823E+02  0.00000000000E+00 0.  1.
         11    1    3    3    0    0  0.37631634739E+02 -0.11294120994E+03  0.51309826071E+02  0.12963238441E+03  0.00000000000E+00 0. -1.
<mgrwt>
<rscale>  0 0.16511198E+03</rscale>
<asrwt>0</asrwt>
<pdfrwt beam="2">  1        1 0.20734118E-01 0.17122581E+03</pdfrwt>
<pdfrwt beam="1">  1       -1 0.29659101E-01 0.17122581E+03</pdfrwt>
<totfact> 0.24872502E+03</totfact>
</mgrwt>
</event>
<event>
 7    1  0.5107591E-006  0.1567542E+03  0.7546771E-02  0.1200837E+00
          2   -1    0    0  501    0  0.00000000000E+00  0.00000000000E+00  0.12331922358E+04  0.12331922358E+04  0.00000000000E+00 0. -1.
         -2   -1    0    0    0  501 -0.00000000000E+00 -0.00000000000E+00 -0.18205062085E+02  0.18205062085E+02  0.00000000000E+00 0.  1.
         23    2    1    2    0    0  0.93855812600E+02 -0.11728105163E+02  0.37805366567E+03  0.39991060564E+03  0.89763335323E+02 0.  0.
          5    1    1    2  502    0 -0.11685376050E+03  0.13187788023E+02  0.49715468342E+03  0.51089488972E+03  0.47000000000E+01 0.  1.
         -5    1    1    2    0  502  0.22997947901E+02 -0.14596828598E+01  0.33977882467E+03  0.34059180257E+03  0.47000000000E+01 0.  1.
        -11    1    3    3    0    0  0.82436758692E+02 -0.45190315240E+02  0.25095979474E+03  0.26799030272E+03  0.00000000000E+00 0.  1.
         11    1    3    3    0    0  0.11419053908E+02  0.33462210076E+02  0.12709387093E+03  0.13192030292E+03  0.00000000000E+00 0. -1.
<mgrwt>
<rscale>  0 0.14970389E+03</rscale>
<asrwt>0</asrwt>
<pdfrwt beam="1">  1        2 0.18972182E+00 0.15675423E+03</pdfrwt>
<pdfrwt beam="2">  1       -2 0.28007797E-02 0.15675423E+03</pdfrwt>
<totfact> 0.87805511E+03</totfact>
</mgrwt>
</event>
<event>
 7    1  0.5107591E-006  0.1719052E+03  0.7546771E-02  0.1182821E+00
          1   -1    0    0  501    0  0.00000000000E+00  0.00000000000E+00  0.99822430844E+02  0.99822430844E+02  0.00000000000E+00 0. -1.
         -1   -1    0    0    0  501 -0.00000000000E+00 -0.00000000000E+00 -0.25475680914E+03  0.25475680914E+03  0.00000000000E+00 0.  1.
         23    2    1    2    0    0 -0.51418954199E+02  0.10621503427E+03 -0.70767343708E+02  0.16317521310E+03  0.87707416342E+02 0.  0.
          5    1    1    2  502    0 -0.24019004063E+02  0.12218544101E+02 -0.30591934645E+02  0.41038540927E+02  0.47000000000E+01 0.  1.
         -5    1    1    2    0  502  0.75437958262E+02 -0.11843357837E+03 -0.53575099943E+02  0.15036548595E+03  0.47000000000E+01 0.  1.
        -11    1    3    3    0    0 -0.20613028643E+02  0.10242012711E+03 -0.79096501075E+02  0.13103829925E+03  0.00000000000E+00 0. -1.
         11    1    3    3    0    0 -0.30805925556E+02  0.37949071509E+01  0.83291573673E+01  0.32136913855E+02  0.00000000000E+00 0.  1.
<mgrwt>
<rscale>  0 0.16531761E+03</rscale>
<asrwt>0</asrwt>
<pdfrwt beam="1">  1        1 0.15357297E-01 0.17190524E+03</pdfrwt>
<pdfrwt beam="2">  1       -1 0.39193354E-01 0.17190524E+03</pdfrwt>
<totfact> 0.22677293E+03</totfact>
</mgrwt>
</event>
<event>
 7    1  0.5107591E-006  0.1589842E+03  0.7546771E-02  0.1197381E+00
          1   -1    0    0  501    0  0.00000000000E+00  0.00000000000E+00  0.56611800540E+03  0.56611800540E+03  0.00000000000E+00 0. -1.
         -1   -1    0    0    0  501 -0.00000000000E+00 -0.00000000000E+00 -0.58402576598E+02  0.58402576598E+02  0.00000000000E+00 0.  1.
         23    2    1    2    0    0  0.37076848201E+02 -0.90971251964E+02  0.42388939527E+03  0.44479087903E+03  0.92229308186E+02 0.  0.
          5    1    1    2  502    0 -0.40626046195E+02 -0.18784356024E+02  0.68046411659E+01  0.45516159790E+02  0.47000000000E+01 0.  1.
         -5    1    1    2    0  502  0.35491979942E+01  0.10975560799E+03  0.77021392370E+02  0.13421354318E+03  0.47000000000E+01 0.  1.
        -11    1    3    3    0    0 -0.19454654701E+02 -0.71468548147E+02  0.25942566280E+03  0.26979234882E+03  0.00000000000E+00 0.  1.
         11    1    3    3    0    0  0.56531502902E+02 -0.19502703817E+02  0.16446373247E+03  0.17499853021E+03  0.00000000000E+00 0. -1.
<mgrwt>
<rscale>  0 0.15254396E+03</rscale>
<asrwt>0</asrwt>
<pdfrwt beam="1">  1        1 0.87095074E-01 0.15898416E+03</pdfrwt>
<pdfrwt beam="2">  1       -1 0.89850122E-02 0.15898416E+03</pdfrwt>
<totfact> 0.26977226E+03</totfact>
</mgrwt>
</event>
<event>
 7    1  0.5107591E-006  0.1423663E+03  0.7546771E-02  0.1221104E+00
          3   -1    0    0  501    0  0.00000000000E+00  0.00000000000E+00  0.13583074438E+03  0.13583074438E+03  0.00000000000E+00 0. -1.
         -3   -1    0    0    0  501 -0.00000000000E+00 -0.00000000000E+00 -0.15416142037E+03  0.15416142037E+03  0.00000000000E+00 0.  1.
         23    2    1    2    0    0  0.15620892699E+02  0.66324231083E+02  0.59538835859E+02  0.12772135435E+03  0.90138534840E+02 0.  0.
          5    1    1    2  502    0 -0.16829860437E+02 -0.99609089312E+02 -0.79435715756E+02  0.12859758090E+03  0.47000000000E+01 0. -1.
         -5    1    1    2    0  502  0.12089677382E+01  0.33284858229E+02  0.15662039053E+01  0.33673229501E+02  0.47000000000E+01 0. -1.
        -11    1    3    3    0    0  0.28462929313E+02  0.82795987340E+02  0.61119990891E+02  0.10677531153E+03  0.00000000000E+00 0.  1.
         11    1    3    3    0    0 -0.12842036615E+02 -0.16471756258E+02 -0.15811550319E+01  0.20946042821E+02  0.00000000000E+00 0. -1.
<mgrwt>
<rscale>  0 0.13437552E+03</rscale>
<asrwt>0</asrwt>
<pdfrwt beam="1">  1        3 0.20897038E-01 0.14236627E+03</pdfrwt>
<pdfrwt beam="2">  1       -3 0.23717142E-01 0.14236627E+03</pdfrwt>
<totfact> 0.79844461E+02</totfact>
</mgrwt>
</event>
<event>
 7    1  0.5107591E-006  0.1373443E+03  0.7546771E-02  0.1228799E+00
         -1   -1    0    0    0  501 -0.00000000000E+00  0.00000000000E+00  0.59338840892E+02  0.59338840892E+02  0.00000000000E+00 0.  1.
          1   -1    0    0  501    0  0.00000000000E+00 -0.00000000000E+00 -0.27975378571E+03  0.27975378571E+03  0.00000000000E+00 0. -1.
         23    2    1    2    0    0  0.15564878050E+02 -0.54749289491E+02 -0.15103176468E+03  0.18521776830E+03  0.90858558351E+02 0.  0.
          5    1    1    2  502    0 -0.35685460135E+02 -0.25030877209E+02 -0.54804758257E+02  0.70182963791E+02  0.47000000000E+01 0.  1.
         -5    1    1    2    0  502  0.20120582084E+02  0.79780166700E+02 -0.14578421888E+02  0.83691894511E+02  0.47000000000E+01 0.  1.
        -11    1    3    3    0    0 -0.36867109520E+02 -0.15062355949E+02 -0.41913304001E+02  0.57816808830E+02  0.00000000000E+00 0. -1.
         11    1    3    3    0    0  0.52431987570E+02 -0.39686933542E+02 -0.10911846068E+03  0.12740095947E+03  0.00000000000E+00 0.  1.
<mgrwt>
<rscale>  0 0.12909863E+03</rscale>
<asrwt>0</asrwt>
<pdfrwt beam="2">  1        1 0.43039043E-01 0.13734426E+03</pdfrwt>
<pdfrwt beam="1">  1       -1 0.91290526E-02 0.13734426E+03</pdfrwt>
<totfact> 0.64162895E+03</totfact>
</mgrwt>
</event>
<event>
 7    1  0.5107591E-006  0.1268881E+03  0.7546771E-02  0.1251202E+00
         -3   -1    0    0    0  501 -0.00000000000E+00  0.00000000000E+00  0.41545221318E+03  0.41545221318E+03  0.00000000000E+00 0.  1.
          3   -1    0    0  501    0  0.00000000000E+00 -0.00000000000E+00 -0.27433465938E+02  0.27433465938E+02  0.00000000000E+00 0. -1.
         23    2    1    2    0    0 -0.21718118772E+02  0.23373094443E+01  0.14439869577E+03  0.16820163985E+03  0.83448598599E+02 0.  0.
          5    1    1    2  502    0 -0.11330190075E+02 -0.39286358161E+02  0.21141191470E+03  0.21538077635E+03  0.47000000000E+01 0.  1.
         -5    1    1    2    0  502  0.33048308847E+02  0.36949048717E+02  0.32208136772E+02  0.59303262921E+02  0.47000000000E+01 0.  1.
        -11    1    3    3    0    0 -0.49173260227E+02 -0.33436966038E+01  0.52014355792E+02  0.71656702665E+02  0.00000000000E+00 0.  1.
         11    1    3    3    0    0  0.27455141455E+02  0.56810060481E+01  0.92384339978E+02  0.96544937180E+02  0.00000000000E+00 0. -1.
<mgrwt>
<rscale>  0 0.11521744E+03</rscale>
<asrwt>0</asrwt>
<pdfrwt beam="2">  1        3 0.42205335E-02 0.12688811E+03</pdfrwt>
<pdfrwt beam="1">  1       -3 0.63915720E-01 0.12688811E+03</pdfrwt>
<totfact> 0.16345265E+03</totfact>
</mgrwt>
</event>
<event>
 7    1  0.5107591E-006  0.1523820E+03  0.7546771E-02  0.1206908E+00
         -1   -1    0    0    0  501 -0.00000000000E+00  0.00000000000E+00  0.66376590092E+03  0.66376590092E+03  0.00000000000E+00 0.  1.
          1   -1    0    0  501    0  0.00000000000E+00 -0.00000000000E+00 -0.29497587144E+02  0.29497587144E+02  0.00000000000E+00 0. -1.
         23    2    1    2    0    0 -0.63798035261E+02  0.59363355392E+02  0.23595037996E+03  0.26679257665E+03  0.88946612570E+02 0.  0.
          5    1    1    2  502    0  0.91236574327E+02 -0.74645367757E+02  0.34253066405E+03  0.36227805515E+03  0.47000000000E+01 0. -1.
         -5    1    1    2    0  502 -0.27438539066E+02  0.15282012364E+02  0.55787269766E+02  0.64192856268E+02  0.47000000000E+01 0. -1.
        -11    1    3    3    0    0  0.18928428572E+02  0.19851758594E+02  0.93080700338E+02  0.97038108509E+02  0.00000000000E+00 0. -1.
         11    1    3    3    0    0 -0.82726463833E+02  0.39511596799E+02  0.14286967962E+03  0.16975446814E+03  0.00000000000E+00 0.  1.
<mgrwt>
<rscale>  0 0.14488105E+03</rscale>
<asrwt>0</asrwt>
<pdfrwt beam="2">  1        1 0.45380908E-02 0.15238196E+03</pdfrwt>
<pdfrwt beam="1">  1       -1 0.10211782E+00 0.15238196E+03</pdfrwt>
<totfact> 0.17916923E+03</totfact>
</mgrwt>
</event>
<event>
 7    1  0.5107591E-006  0.1291355E+03  0.7546771E-02  0.1244138E+00
          2   -1    0    0  501    0  0.00000000000E+00  0.00000000000E+00  0.31738946508E+03  0.31738946508E+03  0.00000000000E+00 0.  1.
         -2   -1    0    0    0  501 -0.00000000000E+00 -0.00000000000E+00 -0.41658749951E+02  0.41658749951E+02  0.00000000000E+00 0. -1.
         23    2    1    2    0    0  0.31205201144E+02  0.88473072035E+01  0.15961923393E+03  0.18538802139E+03  0.88534621536E+02 0.  0.
          5    1    1    2  502    0 -0.15213835340E+02  0.27562164884E+02  0.12799270977E+03  0.13189146095E+03  0.47000000000E+01 0. -1.
         -5    1    1    2    0  502 -0.15991365804E+02 -0.36409472087E+02 -0.11881228571E+02  0.41768732687E+02  0.47000000000E+01 0. -1.
        -11    1    3    3    0    0 -0.49043345880E+01 -0.11032476401E+02 -0.68568582632E+01  0.13884687196E+02  0.00000000000E+00 0. -1.
         11    1    3    3    0    0  0.36109535732E+02  0.19879783604E+02  0.16647609220E+03  0.17150333419E+03  0.00000000000E+00 0.  1.
<mgrwt>
<rscale>  0 0.11937121E+03</rscale>
<asrwt>0</asrwt>
<pdfrwt beam="1">  1        2 0.48829147E-01 0.12913554E+03</pdfrwt>
<pdfrwt beam="2">  1       -2 0.64090386E-02 0.12913554E+03</pdfrwt>
<totfact> 0.12898380E+04</totfact>
</mgrwt>
</event>
<event>
 7    1  0.5107591E-006  0.1488435E+03  0.7546771E-02  0.1211089E+00
          2   -1    0    0  501    0  0.00000000000E+00  0.00000000000E+00  0.97856196974E+02  0.97856196974E+02  0.00000000000E+00 0.  1.
         -2   -1    0    0    0  501 -0.00000000000E+00 -0.00000000000E+00 -0.18784634616E+03  0.18784634616E+03  0.00000000000E+00 0. -1.
         23    2    1    2    0    0 -0.80743976916E+01 -0.80379452353E+02 -0.44990328041E+02  0.13020539794E+03  0.91669317535E+02 0.  0.
          5    1    1    2  502    0 -0.44943732728E+02  0.80064592448E+02 -0.11616970798E+02  0.92667805013E+02  0.47000000000E+01 0.  1.
         -5    1    1    2    0  502  0.53018130420E+02  0.31485990482E+00 -0.33382850344E+02  0.62829340177E+02  0.47000000000E+01 0.  1.
        -11    1    3    3    0    0  0.30062894213E+02 -0.60319715177E+02  0.70095522732E+00  0.67399829271E+02  0.00000000000E+00 0.  1.
         11    1    3    3    0    0 -0.38137291904E+02 -0.20059737176E+02 -0.45691283269E+02  0.62805568671E+02  0.00000000000E+00 0. -1.
<mgrwt>
<rscale>  0 0.14167797E+03</rscale>
<asrwt>0</asrwt>
<pdfrwt beam="1">  1        2 0.15054800E-01 0.14884347E+03</pdfrwt>
<pdfrwt beam="2">  1       -2 0.28899438E-01 0.14884347E+03</pdfrwt>
<totfact> 0.40865574E+03</totfact>
</mgrwt>
</event>
<event>
 7    1  0.5107591E-006  0.1252446E+03  0.7546771E-02  0.1251476E+00
          2   -1    0    0  501    0  0.00000000000E+00  0.00000000000E+00  0.41012300443E+03  0.41012300443E+03  0.00000000000E+00 0. -1.
         -2   -1    0    0    0  501 -0.00000000000E+00 -0.00000000000E+00 -0.30102177362E+02  0.30102177362E+02  0.00000000000E+00 0.  1.
         23    2    1    2    0    0 -0.73151370426E+01  0.34037423075E+01  0.21719145807E+03  0.23479974887E+03  0.88846473886E+02 0.  0.
          5    1    1    2  502    0 -0.57403194275E+02 -0.45414993465E+01  0.56204074298E+02  0.80602356647E+02  0.47000000000E+01 0. -1.
         -5    1    1    2    0  502  0.64718331317E+02  0.11377570389E+01  0.10662529471E+03  0.12482307627E+03  0.47000000000E+01 0. -1.
        -11    1    3    3    0    0  0.40153332206E+02  0.92297877449E+01  0.10812411680E+03  0.11570783769E+03  0.00000000000E+00 0.  1.
         11    1    3    3    0    0 -0.47468469249E+02 -0.58260454373E+01  0.10906734126E+03  0.11909191118E+03  0.00000000000E+00 0. -1.
<mgrwt>
<rscale>  0 0.11506020E+03</rscale>
<asrwt>0</asrwt>
<pdfrwt beam="1">  1        2 0.63095843E-01 0.12524458E+03</pdfrwt>
<pdfrwt beam="2">  1       -2 0.46311045E-02 0.12524458E+03</pdfrwt>
<totfact> 0.15986024E+04</totfact>
</mgrwt>
</event>
<event>
 7    1  0.5107591E-006  0.1506061E+03  0.7546771E-02  0.1210189E+00
         -1   -1    0    0    0  501 -0.00000000000E+00  0.00000000000E+00  0.16352947570E+03  0.16352947570E+03  0.00000000000E+00 0.  1.
          1   -1    0    0  501    0  0.00000000000E+00 -0.00000000000E+00 -0.11434559339E+03  0.11434559339E+03  0.00000000000E+00 0. -1.
         23    2    1    2    0    0 -0.51586234939E+02 -0.66306470335E+02  0.41064428960E+02  0.12705027223E+03  0.86010445327E+02 0.  0.
          5    1    1    2  502    0  0.24358052161E+02 -0.36502018086E+02  0.13987235938E+01  0.44156069312E+02  0.47000000000E+01 0.  1.
         -5    1    1    2    0  502  0.27228182778E+02  0.10280848842E+03  0.67207297552E+01  0.10666872755E+03  0.47000000000E+01 0.  1.
        -11    1    3    3    0    0  0.19776600098E+02 -0.12389124177E+02  0.28334606577E+02  0.36707686377E+02  0.00000000000E+00 0.  1.
         11    1    3    3    0    0 -0.71362835037E+02 -0.53917346158E+02  0.12729822383E+02  0.90342585856E+02  0.00000000000E+00 0. -1.
<mgrwt>
<rscale>  0 0.14235934E+03</rscale>
<asrwt>0</asrwt>
<pdfrwt beam="2">  1        1 0.17591630E-01 0.15060609E+03</pdfrwt>
<pdfrwt beam="1">  1       -1 0.25158381E-01 0.15060609E+03</pdfrwt>
<totfact> 0.40148630E+03</totfact>
</mgrwt>
</event>
<event>
 7    1  0.5107591E-006  0.2353661E+03  0.7546771E-02  0.1162292E+00
          2   -1    0    0  501    0  0.00000000000E+00  0.00000000000E+00  0.65219676110E+03  0.65219676110E+03  0.00000000000E+00 0. -1.
         -2   -1    0    0    0  501 -0.00000000000E+00 -0.00000000000E+00 -0.55158079436E+02  0.55158079436E+02  0.00000000000E+00 0.  1.
         23    2    1    2    0    0 -0.52803782266E+01 -0.15594323053E+02  0.36709330297E+03  0.37830760417E+03  0.89933781070E+02 0.  0.
          5    1    1    2  502    0  0.84387878943E+02  0.48255466203E+02  0.22268827557E+03  0.24302687548E+03  0.47000000000E+01 0. -1.
         -5    1    1    2    0  502 -0.79107500717E+02 -0.32661143150E+02  0.72571031247E+01  0.86020360888E+02  0.47000000000E+01 0.  1.
        -11    1    3    3    0    0 -0.34668873959E+02  0.21583604029E+02  0.12138134773E+03  0.12806722595E+03  0.00000000000E+00 0.  1.
         11    1    3    3    0    0  0.29388495733E+02 -0.37177927082E+02  0.24571195524E+03  0.25024037822E+03  0.00000000000E+00 0. -1.
<mgrwt>
<rscale>  0 0.18581391E+03</rscale>
<asrwt>0</asrwt>
<pdfrwt beam="1">  1        2 0.10033796E+00 0.23536611E+03</pdfrwt>
<pdfrwt beam="2">  1       -2 0.84858588E-02 0.23536611E+03</pdfrwt>
<totfact> 0.39069693E+03</totfact>
</mgrwt>
</event>
<event>
 7    1  0.5107591E-006  0.1301931E+03  0.7546771E-02  0.1240596E+00
          1   -1    0    0  501    0  0.00000000000E+00  0.00000000000E+00  0.30007653273E+03  0.30007653273E+03  0.00000000000E+00 0. -1.
         -1   -1    0    0    0  501 -0.00000000000E+00 -0.00000000000E+00 -0.43721569409E+02  0.43721569409E+02  0.00000000000E+00 0.  1.
         23    2    1    2    0    0 -0.77088248352E+01 -0.35586722946E+02  0.11407164225E+03  0.15093859315E+03  0.91892755466E+02 0.  0.
          5    1    1    2  502    0  0.35404568660E+02 -0.24578523850E+02  0.94772100510E+01  0.44378990829E+02  0.47000000000E+01 0.  1.
         -5    1    1    2    0  502 -0.27695743825E+02  0.60165246796E+02  0.13280611103E+03  0.14848051816E+03  0.47000000000E+01 0.  1.
        -11    1    3    3    0    0 -0.24038682520E+02  0.25653408349E+02  0.46504086689E+02  0.58297390130E+02  0.00000000000E+00 0. -1.
         11    1    3    3    0    0  0.16329857685E+02 -0.61240131295E+02  0.67567555559E+02  0.92641203021E+02  0.00000000000E+00 0.  1.
<mgrwt>
<rscale>  0 0.12152860E+03</rscale>
<asrwt>0</asrwt>
<pdfrwt beam="1">  1        1 0.46165619E-01 0.13019311E+03</pdfrwt>
<pdfrwt beam="2">  1       -1 0.67263955E-02 0.13019311E+03</pdfrwt>
<totfact> 0.92871733E+03</totfact>
</mgrwt>
</event>
<event>
 7    1  0.5107591E-006  0.1366491E+03  0.7546771E-02  0.1229529E+00
          1   -1    0    0  501    0  0.00000000000E+00  0.00000000000E+00  0.10093470803E+03  0.10093470803E+03  0.00000000000E+00 0. -1.
         -1   -1    0    0    0  501 -0.00000000000E+00 -0.00000000000E+00 -0.18862213255E+03  0.18862213255E+03  0.00000000000E+00 0.  1.
         23    2    1    2    0    0  0.24525280045E+01  0.55147533079E+02  0.27651817977E+02  0.11073816731E+03  0.91929610915E+02 0.  0.
          5    1    1    2  502    0  0.30103547239E+02 -0.63004153054E+02 -0.13189935792E+02  0.71216650192E+02  0.47000000000E+01 0.  1.
         -5    1    1    2    0  502 -0.32556075243E+02  0.78566199751E+01 -0.10214930670E+03  0.10760202309E+03  0.47000000000E+01 0.  1.
        -11    1    3    3    0    0  0.32302657336E+02  0.20199010478E+02 -0.21253303351E+02  0.43625274768E+02  0.00000000000E+00 0.  1.
         11    1    3    3    0    0 -0.29850129331E+02  0.34948522601E+02  0.48905121327E+02  0.67112892540E+02  0.00000000000E+00 0. -1.
<mgrwt>
<rscale>  0 0.12861285E+03</rscale>
<asrwt>0</asrwt>
<pdfrwt beam="1">  1        1 0.15528417E-01 0.13664910E+03</pdfrwt>
<pdfrwt beam="2">  1       -1 0.29018790E-01 0.13664910E+03</pdfrwt>
<totfact> 0.37002313E+03</totfact>
</mgrwt>
</event>
<event>
 7    1  0.5107591E-006  0.1468976E+03  0.7546771E-02  0.1215083E+00
         -2   -1    0    0    0  501 -0.00000000000E+00  0.00000000000E+00  0.11070363386E+03  0.11070363386E+03  0.00000000000E+00 0.  1.
          2   -1    0    0  501    0  0.00000000000E+00 -0.00000000000E+00 -0.16505524618E+03  0.16505524618E+03  0.00000000000E+00 0. -1.
         23    2    1    2    0    0  0.19270998453E+02  0.74724839043E+02 -0.54503477370E+02  0.12886115302E+03  0.87632155978E+02 0.  0.
          5    1    1    2  502    0 -0.26154262624E+02  0.13880850545E+02  0.39501222762E+02  0.49589918985E+02  0.47000000000E+01 0.  1.
         -5    1    1    2    0  502  0.68832641706E+01 -0.88605689589E+02 -0.39349357709E+02  0.97307808039E+02  0.47000000000E+01 0.  1.
        -11    1    3    3    0    0  0.43994761142E+02  0.29430051867E+02 -0.56237333609E+02  0.77228910729E+02  0.00000000000E+00 0. -1.
         11    1    3    3    0    0 -0.24723762689E+02  0.45294787176E+02  0.17338562391E+01  0.51632242294E+02  0.00000000000E+00 0.  1.
<mgrwt>
<rscale>  0 0.13870474E+03</rscale>
<asrwt>0</asrwt>
<pdfrwt beam="2">  1        2 0.25393115E-01 0.14689765E+03</pdfrwt>
<pdfrwt beam="1">  1       -2 0.17031328E-01 0.14689765E+03</pdfrwt>
<totfact> 0.55991627E+03</totfact>
</mgrwt>
</event>
<event>
 7    1  0.5107591E-006  0.3297693E+03  0.7546771E-02  0.1072507E+00
         -2   -1    0    0    0  501 -0.00000000000E+00  0.00000000000E+00  0.13580940843E+03  0.13580940843E+03  0.00000000000E+00 0.  1.
          2   -1    0    0  501    0  0.00000000000E+00 -0.00000000000E+00 -0.77380547783E+03  0.77380547783E+03  0.00000000000E+00 0. -1.
         23    2    1    2    0    0  0.16219387005E+03  0.25844108820E+03 -0.30740233677E+03  0.44266731741E+03  0.91430354400E+02 0.  0.
          5    1    1    2  502    0  0.69630068083E+01 -0.78205338279E+02 -0.11251659818E+03  0.13728304071E+03  0.47000000000E+01 0.  1.
         -5    1    1    2    0  502 -0.16915687686E+03 -0.18023574992E+03 -0.21807713446E+03  0.32966452813E+03  0.47000000000E+01 0.  1.
        -11    1    3    3    0    0  0.97071882760E+02  0.16424748229E+03 -0.25025386630E+03  0.31468584884E+03  0.00000000000E+00 0. -1.
         11    1    3    3    0    0  0.65121987293E+02  0.94193605902E+02 -0.57148470472E+02  0.12798146858E+03  0.00000000000E+00 0.  1.
<mgrwt>
<rscale>  0 0.32692157E+03</rscale>
<asrwt>0</asrwt>
<pdfrwt beam="2">  1        2 0.11904700E+00 0.32976934E+03</pdfrwt>
<pdfrwt beam="1">  1       -2 0.20893755E-01 0.32976934E+03</pdfrwt>
<totfact> 0.72237560E+02</totfact>
</mgrwt>
</event>
<event>
 7    1  0.5107591E-006  0.1301465E+03  0.7546771E-02  0.1241610E+00
         -2   -1    0    0    0  501 -0.00000000000E+00  0.00000000000E+00  0.57698412015E+02  0.57698412015E+02  0.00000000000E+00 0.  1.
          2   -1    0    0  501    0  0.00000000000E+00 -0.00000000000E+00 -0.29254809224E+03  0.29254809224E+03  0.00000000000E+00 0. -1.
         23    2    1    2    0    0  0.35891815292E+02  0.44770931852E+01 -0.18873138119E+03  0.21217037787E+03  0.89935911792E+02 0.  0.
          5    1    1    2  502    0 -0.51548168338E+02 -0.43876842428E+02  0.89231980874E+01  0.68440517419E+02  0.47000000000E+01 0. -1.
         -5    1    1    2    0  502  0.15656353045E+02  0.39399749243E+02 -0.55041497118E+02  0.69635608966E+02  0.47000000000E+01 0. -1.
        -11    1    3    3    0    0 -0.95904265987E+00  0.29751741298E+02 -0.16085514784E+02  0.33835331518E+02  0.00000000000E+00 0.  1.
         11    1    3    3    0    0  0.36850857952E+02 -0.25274648113E+02 -0.17264586641E+03  0.17833504635E+03  0.00000000000E+00 0. -1.
<mgrwt>
<rscale>  0 0.12090564E+03</rscale>
<asrwt>0</asrwt>
<pdfrwt beam="2">  1        2 0.45007399E-01 0.13014653E+03</pdfrwt>
<pdfrwt beam="1">  1       -2 0.88766788E-02 0.13014653E+03</pdfrwt>
<totfact> 0.85285111E+03</totfact>
</mgrwt>
</event>
<event>
 7    1  0.5107591E-006  0.1402783E+03  0.7546771E-02  0.1223209E+00
         -2   -1    0    0    0  501 -0.00000000000E+00  0.00000000000E+00  0.35782572894E+03  0.35782572894E+03  0.00000000000E+00 0.  1.
          2   -1    0    0  501    0  0.00000000000E+00 -0.00000000000E+00 -0.44828599519E+02  0.44828599519E+02  0.00000000000E+00 0. -1.
         23    2    1    2    0    0 -0.18000751534E+02  0.60913536200E+02  0.13988776789E+03  0.17984305268E+03  0.93490374079E+02 0.  0.
          5    1    1    2  502    0  0.54446307668E+01  0.93952910829E+01 -0.16407315114E+02  0.20228828141E+02  0.47000000000E+01 0. -1.
         -5    1    1    2    0  502  0.12556120767E+02 -0.70308827282E+02  0.18951667664E+03  0.20258244763E+03  0.47000000000E+01 0. -1.
        -11    1    3    3    0    0 -0.12628529140E+02  0.56695073208E+01 -0.11881551324E+02  0.18242651216E+02  0.00000000000E+00 0. -1.
         11    1    3    3    0    0 -0.53722223935E+01  0.55244028879E+02  0.15176931921E+03  0.16160040147E+03  0.00000000000E+00 0.  1.
<mgrwt>
<rscale>  0 0.13290393E+03</rscale>
<asrwt>0</asrwt>
<pdfrwt beam="2">  1        2 0.68967078E-02 0.14027834E+03</pdfrwt>
<pdfrwt beam="1">  1       -2 0.55050110E-01 0.14027834E+03</pdfrwt>
<totfact> 0.31205673E+03</totfact>
</mgrwt>
</event>
<event>
 7    1  0.5107591E-006  0.3423532E+03  0.7546771E-02  0.1066956E+00
         -2   -1    0    0    0  501 -0.00000000000E+00  0.00000000000E+00  0.93248788477E+02  0.93248788477E+02  0.00000000000E+00 0. -1.
          2   -1    0    0  501    0  0.00000000000E+00 -0.00000000000E+00 -0.15699262136E+04  0.15699262136E+04  0.00000000000E+00 0.  1.
         23    2    1    2    0    0  0.30478833856E+03 -0.93197889289E+02 -0.11230725365E+04  0.11709939856E+04  0.91395920769E+02 0.  0.
          5    1    1    2  502    0 -0.23955094097E+03  0.11531715242E+03 -0.23462150813E+03  0.35461534236E+03  0.47000000000E+01 0. -1.
         -5    1    1    2    0  502 -0.65237397590E+02 -0.22119263131E+02 -0.11898338054E+03  0.13756567410E+03  0.47000000000E+01 0. -1.
        -11    1    3    3    0    0  0.25089165461E+03 -0.43300984128E+02 -0.79385778552E+03  0.83368566091E+03  0.00000000000E+00 0. -1.
         11    1    3    3    0    0  0.53896683952E+02 -0.49896905161E+02 -0.32921475096E+03  0.33730832474E+03  0.00000000000E+00 0.  1.
<mgrwt>
<rscale>  0 0.33962357E+03</rscale>
<asrwt>0</asrwt>
<pdfrwt beam="2">  1        2 0.24152711E+00 0.34235323E+03</pdfrwt>
<pdfrwt beam="1">  1       -2 0.14345967E-01 0.34235323E+03</pdfrwt>
<totfact> 0.45915062E+02</totfact>
</mgrwt>
</event>
<event>
 7    1  0.5107591E-006  0.1387813E+03  0.7546771E-02  0.1226401E+00
          2   -1    0    0  501    0  0.00000000000E+00  0.00000000000E+00  0.65078041412E+02  0.65078041412E+02  0.00000000000E+00 0.  1.
         -2   -1    0    0    0  501 -0.00000000000E+00 -0.00000000000E+00 -0.26369663193E+03  0.26369663193E+03  0.00000000000E+00 0. -1.
         23    2    1    2    0    0  0.18804136568E+02 -0.57281781425E+02 -0.36022631162E+02  0.11500446322E+03  0.91069196595E+02 0.  0.
          5    1    1    2  502    0 -0.39314767309E+02  0.84866290028E+02 -0.15005317466E+03  0.17687844226E+03  0.47000000000E+01 0. -1.
         -5    1    1    2    0  502  0.20510630742E+02 -0.27584508603E+02 -0.12542784700E+02  0.36891767867E+02  0.47000000000E+01 0. -1.
        -11    1    3    3    0    0 -0.30544552818E+02 -0.49884897721E+00 -0.23936623094E+02  0.38809541125E+02  0.00000000000E+00 0.  1.
         11    1    3    3    0    0  0.49348689386E+02 -0.56782932448E+02 -0.12086008067E+02  0.76194922091E+02  0.00000000000E+00 0. -1.
<mgrwt>
<rscale>  0 0.13071368E+03</rscale>
<asrwt>0</asrwt>
<pdfrwt beam="1">  1        2 0.10012006E-01 0.13878133E+03</pdfrwt>
<pdfrwt beam="2">  1       -2 0.40568713E-01 0.13878133E+03</pdfrwt>
<totfact> 0.35547807E+03</totfact>
</mgrwt>
</event>
<event>
 7    1  0.5107591E-006  0.1368719E+03  0.7546771E-02  0.1229019E+00
         -1   -1    0    0    0  501 -0.00000000000E+00  0.00000000000E+00  0.13086187887E+02  0.13086187887E+02  0.00000000000E+00 0.  1.
          1   -1    0    0  501    0  0.00000000000E+00 -0.00000000000E+00 -0.11629131774E+04  0.11629131774E+04  0.00000000000E+00 0. -1.
         23    2    1    2    0    0 -0.53359421921E+02  0.16173557136E+02 -0.43337355970E+03  0.44658902769E+03  0.92305501181E+02 0.  0.
          5    1    1    2  502    0  0.75095306256E+02 -0.61409192757E+01 -0.22451324307E+03  0.23686557839E+03  0.47000000000E+01 0. -1.
         -5    1    1    2    0  502 -0.21735884336E+02 -0.10032637860E+02 -0.49194018672E+03  0.49254475918E+03  0.47000000000E+01 0. -1.
        -11    1    3    3    0    0 -0.65055232341E+02 -0.21137096848E+02 -0.29229799909E+03  0.30019507056E+03  0.00000000000E+00 0. -1.
         11    1    3    3    0    0  0.11695810420E+02  0.37310653984E+02 -0.14107556061E+03  0.14639395713E+03  0.00000000000E+00 0.  1.
<mgrwt>
<rscale>  0 0.12895231E+03</rscale>
<asrwt>0</asrwt>
<pdfrwt beam="2">  1        1 0.17890971E+00 0.13687192E+03</pdfrwt>
<pdfrwt beam="1">  1       -1 0.20132598E-02 0.13687192E+03</pdfrwt>
<totfact> 0.80224154E+03</totfact>
</mgrwt>
</event>
<event>
 7    1  0.5107591E-006  0.1794877E+03  0.7546771E-02  0.1173576E+00
          2   -1    0    0  501    0  0.00000000000E+00  0.00000000000E+00  0.30607526836E+03  0.30607526836E+03  0.00000000000E+00 0. -1.
         -2   -1    0    0    0  501 -0.00000000000E+00 -0.00000000000E+00 -0.10400252536E+03  0.10400252536E+03  0.00000000000E+00 0.  1.
         23    2    1    2    0    0 -0.12802313977E+03 -0.14186097462E+02  0.16015725820E+03  0.22576086317E+03  0.93415471454E+02 0.  0.
          5    1    1    2  502    0  0.63148289464E+02  0.66860347122E+02  0.40517249392E+02  0.10060690820E+03  0.47000000000E+01 0.  1.
         -5    1    1    2    0  502  0.64874850311E+02 -0.52674249660E+02  0.13982354134E+01  0.83710022353E+02  0.47000000000E+01 0.  1.
        -11    1    3    3    0    0 -0.73478033903E+02  0.38749386062E+02  0.86058869027E+02  0.11961047331E+03  0.00000000000E+00 0. -1.
         11    1    3    3    0    0 -0.54545105872E+02 -0.52935483524E+02  0.74098389171E+02  0.10615038986E+03  0.00000000000E+00 0.  1.
<mgrwt>
<rscale>  0 0.17416217E+03</rscale>
<asrwt>0</asrwt>
<pdfrwt beam="1">  1        2 0.47088502E-01 0.17948767E+03</pdfrwt>
<pdfrwt beam="2">  1       -2 0.16000389E-01 0.17948767E+03</pdfrwt>
<totfact> 0.32203470E+03</totfact>
</mgrwt>
</event>
<event>
 7    1  0.5107591E-006  0.1449791E+03  0.7546771E-02  0.1217015E+00
         -1   -1    0    0    0  501 -0.00000000000E+00  0.00000000000E+00  0.59341351886E+02  0.59341351886E+02  0.00000000000E+00 0.  1.
          1   -1    0    0  501    0  0.00000000000E+00 -0.00000000000E+00 -0.29091854102E+03  0.29091854102E+03  0.00000000000E+00 0. -1.
         23    2    1    2    0    0  0.64492222685E+02 -0.35147426220E+02 -0.11995339764E+03  0.16728775856E+03  0.90563724537E+02 0.  0.
          5    1    1    2  502    0 -0.54149599053E+02  0.20696043313E+02  0.10818477229E+02  0.59157710706E+02  0.47000000000E+01 0.  1.
         -5    1    1    2    0  502 -0.10342623632E+02  0.14451382907E+02 -0.12244226872E+03  0.12381442364E+03  0.47000000000E+01 0.  1.
        -11    1    3    3    0    0  0.22459036474E+01 -0.37040702733E+02 -0.62276240434E+01  0.37627663273E+02  0.00000000000E+00 0.  1.
         11    1    3    3    0    0  0.62246319038E+02  0.18932765128E+01 -0.11372577360E+03  0.12966009529E+03  0.00000000000E+00 0. -1.
<mgrwt>
<rscale>  0 0.13729568E+03</rscale>
<asrwt>0</asrwt>
<pdfrwt beam="2">  1        1 0.44756699E-01 0.14497907E+03</pdfrwt>
<pdfrwt beam="1">  1       -1 0.91294386E-02 0.14497907E+03</pdfrwt>
<totfact> 0.61330842E+03</totfact>
</mgrwt>
</event>
<event>
 7    1  0.5107591E-006  0.1308750E+03  0.7546771E-02  0.1240423E+00
         -1   -1    0    0    0  501 -0.00000000000E+00  0.00000000000E+00  0.42992475389E+03  0.42992475389E+03  0.00000000000E+00 0.  1.
          1   -1    0    0  501    0  0.00000000000E+00 -0.00000000000E+00 -0.30932064456E+02  0.30932064456E+02  0.00000000000E+00 0. -1.
         23    2    1    2    0    0 -0.32272073266E+02  0.21541268920E+02  0.14023379429E+03  0.17088365082E+03  0.89611338989E+02 0.  0.
          5    1    1    2  502    0  0.20793696987E+02 -0.45885327794E+02  0.25771168824E+03  0.26263138692E+03  0.47000000000E+01 0.  1.
         -5    1    1    2    0  502  0.11478376279E+02  0.24344058874E+02  0.10472069016E+01  0.27341780607E+02  0.47000000000E+01 0.  1.
        -11    1    3    3    0    0 -0.29039013225E+02  0.40372394271E+02  0.28074223906E+02  0.57108287982E+02  0.00000000000E+00 0. -1.
         11    1    3    3    0    0 -0.32330600405E+01 -0.18831125350E+02  0.11215957039E+03  0.11377536284E+03  0.00000000000E+00 0.  1.
<mgrwt>
<rscale>  0 0.12163587E+03</rscale>
<asrwt>0</asrwt>
<pdfrwt beam="2">  1        1 0.47587795E-02 0.13087502E+03</pdfrwt>
<pdfrwt beam="1">  1       -1 0.66142265E-01 0.13087502E+03</pdfrwt>
<totfact> 0.40925352E+03</totfact>
</mgrwt>
</event>
<event>
 7    1  0.5107591E-006  0.1279944E+03  0.7546771E-02  0.1245011E+00
          1   -1    0    0  501    0  0.00000000000E+00  0.00000000000E+00  0.22273193290E+03  0.22273193290E+03  0.00000000000E+00 0. -1.
         -1   -1    0    0    0  501 -0.00000000000E+00 -0.00000000000E+00 -0.11126053990E+03  0.11126053990E+03  0.00000000000E+00 0.  1.
         23    2    1    2    0    0  0.25995397272E+02  0.89230701126E+01  0.16878319911E+03  0.19375266127E+03  0.91087560008E+02 0.  0.
          5    1    1    2  502    0 -0.66758907056E+02 -0.34484337558E+02 -0.16734459933E+02  0.77123623861E+02  0.47000000000E+01 0. -1.
         -5    1    1    2    0  502  0.40763509784E+02  0.25561267446E+02 -0.40577346178E+02  0.63116187671E+02  0.47000000000E+01 0. -1.
        -11    1    3    3    0    0  0.11611418188E+02  0.47189815150E+02  0.58006470353E+02  0.75673339355E+02  0.00000000000E+00 0.  1.
         11    1    3    3    0    0  0.14383979084E+02 -0.38266745038E+02  0.11077672876E+03  0.11807932192E+03  0.00000000000E+00 0. -1.
<mgrwt>
<rscale>  0 0.11884699E+03</rscale>
<asrwt>0</asrwt>
<pdfrwt beam="1">  1        1 0.34266451E-01 0.12799438E+03</pdfrwt>
<pdfrwt beam="2">  1       -1 0.17117006E-01 0.12799438E+03</pdfrwt>
<totfact> 0.32020633E+03</totfact>
</mgrwt>
</event>
<event>
 7    1  0.5107591E-006  0.2001268E+03  0.7546771E-02  0.1153992E+00
         -2   -1    0    0    0  501 -0.00000000000E+00  0.00000000000E+00  0.28877009806E+03  0.28877009806E+03  0.00000000000E+00 0.  1.
          2   -1    0    0  501    0  0.00000000000E+00 -0.00000000000E+00 -0.12559502626E+03  0.12559502626E+03  0.00000000000E+00 0. -1.
         23    2    1    2    0    0 -0.96026566673E+02 -0.12333489375E+03  0.70475416672E+02  0.19381133604E+03  0.90351823987E+02 0.  0.
          5    1    1    2  502    0  0.57311059876E+02  0.14319073305E+03  0.84837262816E+02  0.17608973501E+03  0.47000000000E+01 0.  1.
         -5    1    1    2    0  502  0.38715506797E+02 -0.19855839296E+02  0.78623923133E+01  0.44464053274E+02  0.47000000000E+01 0.  1.
        -11    1    3    3    0    0 -0.50921134548E+02 -0.37786302734E+01  0.83924881618E+01  0.51746244771E+02  0.00000000000E+00 0.  1.
         11    1    3    3    0    0 -0.45105432125E+02 -0.11955626348E+03  0.62082928510E+02  0.14206509126E+03  0.00000000000E+00 0. -1.
<mgrwt>
<rscale>  0 0.19504041E+03</rscale>
<asrwt>0</asrwt>
<pdfrwt beam="2">  1        2 0.19322312E-01 0.20012683E+03</pdfrwt>
<pdfrwt beam="1">  1       -2 0.44426169E-01 0.20012683E+03</pdfrwt>
<totfact> 0.13902420E+03</totfact>
</mgrwt>
</event>
<event>
 7    1  0.5107591E-006  0.1390281E+03  0.7546771E-02  0.1225848E+00
         -2   -1    0    0    0  501 -0.00000000000E+00  0.00000000000E+00  0.98038552296E+02  0.98038552296E+02  0.00000000000E+00 0. -1.
          2   -1    0    0  501    0  0.00000000000E+00 -0.00000000000E+00 -0.16650876091E+03  0.16650876091E+03  0.00000000000E+00 0.  1.
         23    2    1    2    0    0 -0.10283062252E+02  0.59989375606E+02 -0.72671804620E+00  0.10989290410E+03  0.91495659447E+02 0.  0.
          5    1    1    2  502    0  0.52081321483E+01 -0.98161686445E+02 -0.36933601422E+02  0.10511432938E+03  0.47000000000E+01 0. -1.
         -5    1    1    2    0  502  0.50749301035E+01  0.38172310839E+02 -0.30809889146E+02  0.49540079729E+02  0.47000000000E+01 0. -1.
        -11    1    3    3    0    0 -0.15991622923E+02  0.78815662099E+02 -0.19443835965E+02  0.82738765719E+02  0.00000000000E+00 0.  1.
         11    1    3    3    0    0  0.57085606714E+01 -0.18826286493E+02  0.18717117919E+02  0.27154138381E+02  0.00000000000E+00 0. -1.
<mgrwt>
<rscale>  0 0.13108920E+03</rscale>
<asrwt>0</asrwt>
<pdfrwt beam="2">  1        2 0.25616732E-01 0.13902808E+03</pdfrwt>
<pdfrwt beam="1">  1       -2 0.15082854E-01 0.13902808E+03</pdfrwt>
<totfact> 0.67501853E+03</totfact>
</mgrwt>
</event>
<event>
 7    1  0.5107591E-006  0.1365101E+03  0.7546771E-02  0.1228300E+00
          2   -1    0    0  501    0  0.00000000000E+00  0.00000000000E+00  0.10506113043E+03  0.10506113043E+03  0.00000000000E+00 0. -1.
         -2   -1    0    0    0  501 -0.00000000000E+00 -0.00000000000E+00 -0.18137820466E+03  0.18137820466E+03  0.00000000000E+00 0.  1.
         23    2    1    2    0    0  0.53310565241E+02 -0.12957513279E+02  0.28941562389E+02  0.11406069180E+03  0.95719976303E+02 0.  0.
          5    1    1    2  502    0 -0.40706506714E+02 -0.25835011287E+02  0.10489502215E+02  0.49563970319E+02  0.47000000000E+01 0.  1.
         -5    1    1    2    0  502 -0.12604058527E+02  0.38792524566E+02 -0.11574813884E+03  0.12281467298E+03  0.47000000000E+01 0.  1.
        -11    1    3    3    0    0  0.39788403233E+02 -0.43322258472E+02 -0.13303146544E+02  0.60306789161E+02  0.00000000000E+00 0.  1.
         11    1    3    3    0    0  0.13522162007E+02  0.30364745193E+02  0.42244708933E+02  0.53753902638E+02  0.00000000000E+00 0. -1.
<mgrwt>
<rscale>  0 0.12943297E+03</rscale>
<asrwt>0</asrwt>
<pdfrwt beam="1">  1        2 0.16163251E-01 0.13651013E+03</pdfrwt>
<pdfrwt beam="2">  1       -2 0.27904339E-01 0.13651013E+03</pdfrwt>
<totfact> 0.39833930E+03</totfact>
</mgrwt>
</event>
<event>
 7    1  0.5107591E-006  0.1345282E+03  0.7546771E-02  0.1232860E+00
          2   -1    0    0  501    0  0.00000000000E+00  0.00000000000E+00  0.75686295752E+02  0.75686295752E+02  0.00000000000E+00 0. -1.
         -2   -1    0    0    0  501 -0.00000000000E+00 -0.00000000000E+00 -0.19894981254E+03  0.19894981254E+03  0.00000000000E+00 0.  1.
         23    2    1    2    0    0  0.33311642650E+02 -0.36967069866E+02 -0.24503570045E+02  0.10774880458E+03  0.92375051567E+02 0.  0.
          5    1    1    2  502    0 -0.51999622888E+02  0.61350841275E+02 -0.10774802207E+03  0.13453480132E+03  0.47000000000E+01 0.  1.
         -5    1    1    2    0  502  0.18687980238E+02 -0.24383771409E+02  0.89880753264E+01  0.32352502401E+02  0.47000000000E+01 0.  1.
        -11    1    3    3    0    0  0.42202223034E+02 -0.59319911000E+01 -0.50658213148E+02  0.66200231924E+02  0.00000000000E+00 0.  1.
         11    1    3    3    0    0 -0.88905803845E+01 -0.31035078766E+02  0.26154643103E+02  0.41548572652E+02  0.00000000000E+00 0. -1.
<mgrwt>
<rscale>  0 0.12642426E+03</rscale>
<asrwt>0</asrwt>
<pdfrwt beam="1">  1        2 0.11644045E-01 0.13452823E+03</pdfrwt>
<pdfrwt beam="2">  1       -2 0.30607664E-01 0.13452823E+03</pdfrwt>
<totfact> 0.49711997E+03</totfact>
</mgrwt>
</event>
<event>
 7    1  0.5107591E-006  0.1339330E+03  0.7546771E-02  0.1234066E+00
          2   -1    0    0  501    0  0.00000000000E+00  0.00000000000E+00  0.43515528249E+03  0.43515528249E+03  0.00000000000E+00 0.  1.
         -2   -1    0    0    0  501 -0.00000000000E+00 -0.00000000000E+00 -0.32541958051E+02  0.32541958051E+02  0.00000000000E+00 0. -1.
         23    2    1    2    0    0  0.40539608801E+02  0.25898309179E+02  0.16350669095E+03  0.19363513578E+03  0.91901825454E+02 0.  0.
          5    1    1    2  502    0 -0.16490732795E+02  0.22703304671E+02  0.21080146939E+03  0.21271279653E+03  0.47000000000E+01 0.  1.
         -5    1    1    2    0  502 -0.24048876006E+02 -0.48601613850E+02  0.28305164100E+02  0.61349308233E+02  0.47000000000E+01 0.  1.
        -11    1    3    3    0    0  0.30534292790E+02 -0.28929165521E+02  0.39596006828E+02  0.57767494412E+02  0.00000000000E+00 0. -1.
         11    1    3    3    0    0  0.10005316011E+02  0.54827474700E+02  0.12391068412E+03  0.13586764137E+03  0.00000000000E+00 0.  1.
<mgrwt>
<rscale>  0 0.12564434E+03</rscale>
<asrwt>0</asrwt>
<pdfrwt beam="1">  1        2 0.66946962E-01 0.13393302E+03</pdfrwt>
<pdfrwt beam="2">  1       -2 0.50064554E-02 0.13393302E+03</pdfrwt>
<totfact> 0.13424411E+04</totfact>
</mgrwt>
</event>
<event>
 7    1  0.5107591E-006  0.1795004E+03  0.7546771E-02  0.1174049E+00
          2   -1    0    0  501    0  0.00000000000E+00  0.00000000000E+00  0.46074250153E+02  0.46074250153E+02  0.00000000000E+00 0. -1.
         -2   -1    0    0    0  501 -0.00000000000E+00 -0.00000000000E+00 -0.61586965421E+03  0.61586965421E+03  0.00000000000E+00 0.  1.
         23    2    1    2    0    0  0.12826733513E+03 -0.10984406471E+02 -0.26243991301E+03  0.30601161741E+03  0.90527540573E+02 0.  0.
          5    1    1    2  502    0 -0.10551458426E+03  0.62507405590E+02 -0.20152802286E+03  0.23595791413E+03  0.47000000000E+01 0.  1.
         -5    1    1    2    0  502 -0.22752750862E+02 -0.51522999120E+02 -0.10582746819E+03  0.11997437282E+03  0.47000000000E+01 0.  1.
        -11    1    3    3    0    0  0.35679151560E+02  0.36710454196E+02 -0.11074097373E+03  0.12200091216E+03  0.00000000000E+00 0.  1.
         11    1    3    3    0    0  0.92588183566E+02 -0.47694860666E+02 -0.15169893928E+03  0.18401070525E+03  0.00000000000E+00 0. -1.
<mgrwt>
<rscale>  0 0.17369460E+03</rscale>
<asrwt>0</asrwt>
<pdfrwt beam="1">  1        2 0.70883469E-02 0.17950040E+03</pdfrwt>
<pdfrwt beam="2">  1       -2 0.94749169E-01 0.17950040E+03</pdfrwt>
<totfact> 0.95141080E+02</totfact>
</mgrwt>
</event>
<event>
 7    1  0.5107591E-006  0.1900023E+03  0.7546771E-02  0.1164229E+00
          1   -1    0    0  501    0  0.00000000000E+00  0.00000000000E+00  0.47831588077E+03  0.47831588077E+03  0.00000000000E+00 0. -1.
         -1   -1    0    0    0  501 -0.00000000000E+00 -0.00000000000E+00 -0.69111967698E+02  0.69111967698E+02  0.00000000000E+00 0.  1.
         23    2    1    2    0    0 -0.13912804218E+03  0.33594437089E+02  0.24650046567E+03  0.29728134431E+03  0.84430561850E+02 0.  0.
          5    1    1    2  502    0  0.68030051887E+02  0.28187106156E+02  0.13154090446E+03  0.15082340819E+03  0.47000000000E+01 0.  1.
         -5    1    1    2    0  502  0.71097990295E+02 -0.61781543245E+02  0.31162542945E+02  0.99323095967E+02  0.47000000000E+01 0.  1.
        -11    1    3    3    0    0 -0.10574732138E+03  0.29355790360E+02  0.23872925136E+03  0.26274686271E+03  0.00000000000E+00 0. -1.
         11    1    3    3    0    0 -0.33380720807E+02  0.42386467286E+01  0.77712143044E+01  0.34534481601E+02  0.00000000000E+00 0.  1.
<mgrwt>
<rscale>  0 0.18374253E+03</rscale>
<asrwt>0</asrwt>
<pdfrwt beam="1">  1        1 0.73587056E-01 0.19000227E+03</pdfrwt>
<pdfrwt beam="2">  1       -1 0.10632611E-01 0.19000227E+03</pdfrwt>
<totfact> 0.26202667E+03</totfact>
</mgrwt>
</event>
<event>
 7    1  0.5107591E-006  0.1821299E+03  0.7546771E-02  0.1167654E+00
          2   -1    0    0  501    0  0.00000000000E+00  0.00000000000E+00  0.42530284178E+03  0.42530284178E+03  0.00000000000E+00 0. -1.
         -2   -1    0    0    0  501 -0.00000000000E+00 -0.00000000000E+00 -0.11154432287E+03  0.11154432287E+03  0.00000000000E+00 0.  1.
         23    2    1    2    0    0 -0.69784392074E+02 -0.11259088989E+03  0.30883329693E+03  0.35465070201E+03  0.11336906670E+03 0.  0.
          5    1    1    2  502    0 -0.11010145961E+02  0.99340578466E+02  0.50703922344E+01  0.10018768747E+03  0.47000000000E+01 0. -1.
         -5    1    1    2    0  502  0.80794538035E+02  0.13250311427E+02 -0.14517025341E+00  0.82008775162E+02  0.47000000000E+01 0. -1.
        -11    1    3    3    0    0 -0.35367294577E+02 -0.11500693660E+03  0.15092732721E+03  0.19301942672E+03  0.00000000000E+00 0.  1.
         11    1    3    3    0    0 -0.34417097497E+02  0.24160467055E+01  0.15790596972E+03  0.16163127530E+03  0.00000000000E+00 0. -1.
<mgrwt>
<rscale>  0 0.18015384E+03</rscale>
<asrwt>0</asrwt>
<pdfrwt beam="1">  1        2 0.65431205E-01 0.18212988E+03</pdfrwt>
<pdfrwt beam="2">  1       -2 0.17160665E-01 0.18212988E+03</pdfrwt>
<totfact> 0.20137189E+03</totfact>
</mgrwt>
</event>
<event>
 7    1  0.5107591E-006  0.1338547E+03  0.7546771E-02  0.1234569E+00
          2   -1    0    0  501    0  0.00000000000E+00  0.00000000000E+00  0.60189022600E+02  0.60189022600E+02  0.00000000000E+00 0. -1.
         -2   -1    0    0    0  501 -0.00000000000E+00 -0.00000000000E+00 -0.23918198073E+03  0.23918198073E+03  0.00000000000E+00 0.  1.
         23    2    1    2    0    0  0.27586427897E+02 -0.39113829528E+02 -0.53679735497E+02  0.11601207666E+03  0.91029584557E+02 0.  0.
          5    1    1    2  502    0  0.25659805600E+02  0.10258168084E+02 -0.11903482048E+03  0.12229077693E+03  0.47000000000E+01 0.  1.
         -5    1    1    2    0  502 -0.53246233498E+02  0.28855661444E+02 -0.62784021600E+01  0.61068149740E+02  0.47000000000E+01 0.  1.
        -11    1    3    3    0    0 -0.12594998905E+01 -0.60109332447E+02 -0.12286619305E+02  0.61365130173E+02  0.00000000000E+00 0. -1.
         11    1    3    3    0    0  0.28845927788E+02  0.20995502919E+02 -0.41393116193E+02  0.54646946492E+02  0.00000000000E+00 0.  1.
<mgrwt>
<rscale>  0 0.12532050E+03</rscale>
<asrwt>0</asrwt>
<pdfrwt beam="1">  1        2 0.92598497E-02 0.13385474E+03</pdfrwt>
<pdfrwt beam="2">  1       -2 0.36797228E-01 0.13385474E+03</pdfrwt>
<totfact> 0.46908311E+03</totfact>
</mgrwt>
</event>
<event>
 7    1  0.5107591E-006  0.1533137E+03  0.7546771E-02  0.1205105E+00
          1   -1    0    0  501    0  0.00000000000E+00  0.00000000000E+00  0.11215264255E+03  0.11215264255E+03  0.00000000000E+00 0. -1.
         -1   -1    0    0    0  501 -0.00000000000E+00 -0.00000000000E+00 -0.17828311448E+03  0.17828311448E+03  0.00000000000E+00 0.  1.
         23    2    1    2    0    0  0.68817147093E+02  0.56071299812E+02 -0.11250483688E+02  0.12759565401E+03  0.90963108690E+02 0.  0.
          5    1    1    2  502    0 -0.11284727241E+02 -0.72105751482E+02  0.10815059926E+02  0.73929966772E+02  0.47000000000E+01 0.  1.
         -5    1    1    2    0  502 -0.57532419852E+02  0.16034451670E+02 -0.65695048169E+02  0.88910136252E+02  0.47000000000E+01 0.  1.
        -11    1    3    3    0    0  0.40844676039E+02  0.14342442736E+02 -0.48534158983E+02  0.65035050646E+02  0.00000000000E+00 0.  1.
         11    1    3    3    0    0  0.27972471054E+02  0.41728857076E+02  0.37283675296E+02  0.62560603364E+02  0.00000000000E+00 0. -1.
<mgrwt>
<rscale>  0 0.14629213E+03</rscale>
<asrwt>0</asrwt>
<pdfrwt beam="1">  1        1 0.17254253E-01 0.15331369E+03</pdfrwt>
<pdfrwt beam="2">  1       -1 0.27428171E-01 0.15331369E+03</pdfrwt>
<totfact> 0.35707465E+03</totfact>
</mgrwt>
</event>
<event>
 7    1  0.5107591E-006  0.1882177E+03  0.7546771E-02  0.1165000E+00
          1   -1    0    0  501    0  0.00000000000E+00  0.00000000000E+00  0.79465117142E+02  0.79465117142E+02  0.00000000000E+00 0. -1.
         -1   -1    0    0    0  501 -0.00000000000E+00 -0.00000000000E+00 -0.56455011229E+03  0.56455011229E+03  0.00000000000E+00 0.  1.
         23    2    1    2    0    0 -0.99800149432E+02 -0.99198328110E+02 -0.58631298915E+02  0.17787292153E+03  0.91655708354E+02 0.  0.
          5    1    1    2  502    0  0.79723836407E+02 -0.66237849905E+01 -0.19424007614E+03  0.21012154054E+03  0.47000000000E+01 0.  1.
         -5    1    1    2    0  502  0.20076313025E+02  0.10582211310E+03 -0.23221362010E+03  0.25602076737E+03  0.47000000000E+01 0.  1.
        -11    1    3    3    0    0 -0.28009710399E+02 -0.50707853473E+02 -0.69594388550E+02  0.90549484802E+02  0.00000000000E+00 0.  1.
         11    1    3    3    0    0 -0.71790439034E+02 -0.48490474638E+02  0.10963089635E+02  0.87323436726E+02  0.00000000000E+00 0. -1.
<mgrwt>
<rscale>  0 0.18292736E+03</rscale>
<asrwt>0</asrwt>
<pdfrwt beam="1">  1        1 0.12225402E-01 0.18821768E+03</pdfrwt>
<pdfrwt beam="2">  1       -1 0.86853865E-01 0.18821768E+03</pdfrwt>
<totfact> 0.66972571E+02</totfact>
</mgrwt>
</event>
<event>
 7    1  0.5107591E-006  0.1635789E+03  0.7546771E-02  0.1192116E+00
         -1   -1    0    0    0  501 -0.00000000000E+00  0.00000000000E+00  0.72903240148E+03  0.72903240148E+03  0.00000000000E+00 0.  1.
          1   -1    0    0  501    0  0.00000000000E+00 -0.00000000000E+00 -0.37040860331E+02  0.37040860331E+02  0.00000000000E+00 0. -1.
         23    2    1    2    0    0  0.46340501408E+02  0.94797705732E+02  0.17248433207E+03  0.22142125463E+03  0.90235691979E+02 0.  0.
          5    1    1    2  502    0  0.33592411605E+02 -0.51005186850E+01  0.20680290976E+03  0.20962823973E+03  0.47000000000E+01 0.  1.
         -5    1    1    2    0  502 -0.79932913013E+02 -0.89697187047E+02  0.31270429932E+03  0.33502376746E+03  0.47000000000E+01 0.  1.
        -11    1    3    3    0    0 -0.12713381739E+02  0.28657328021E+02  0.10616051207E+03  0.11069293947E+03  0.00000000000E+00 0. -1.
         11    1    3    3    0    0  0.59053883147E+02  0.66140377711E+02  0.66323820000E+02  0.11072831516E+03  0.00000000000E+00 0.  1.
<mgrwt>
<rscale>  0 0.15700885E+03</rscale>
<asrwt>0</asrwt>
<pdfrwt beam="2">  1        1 0.56985944E-02 0.16357894E+03</pdfrwt>
<pdfrwt beam="1">  1       -1 0.11215882E+00 0.16357894E+03</pdfrwt>
<totfact> 0.10631123E+03</totfact>
</mgrwt>
</event>
<event>
 7    1  0.5107591E-006  0.2573162E+03  0.7546771E-02  0.1110967E+00
         -2   -1    0    0    0  501 -0.00000000000E+00  0.00000000000E+00  0.16045989290E+03  0.16045989290E+03  0.00000000000E+00 0.  1.
          2   -1    0    0  501    0  0.00000000000E+00 -0.00000000000E+00 -0.41812492913E+03  0.41812492913E+03  0.00000000000E+00 0. -1.
         23    2    1    2    0    0  0.18436601402E+03  0.12881765171E+03 -0.19986277167E+03  0.31485629109E+03  0.92760670655E+02 0.  0.
          5    1    1    2  502    0 -0.97554093350E+02 -0.97409383279E+02 -0.91288325153E+02  0.16541172083E+03  0.47000000000E+01 0.  1.
         -5    1    1    2    0  502 -0.86811920669E+02 -0.31408268432E+02  0.33486060588E+02  0.98316810108E+02  0.47000000000E+01 0.  1.
        -11    1    3    3    0    0  0.15641792613E+03  0.11071239885E+03 -0.20560533288E+03  0.28106468256E+03  0.00000000000E+00 0.  1.
         11    1    3    3    0    0  0.27948087891E+02  0.18105252861E+02  0.57425612064E+01  0.33791608531E+02  0.00000000000E+00 0. -1.
<mgrwt>
<rscale>  0 0.25373526E+03</rscale>
<asrwt>0</asrwt>
<pdfrwt beam="2">  1        2 0.64326913E-01 0.25731622E+03</pdfrwt>
<pdfrwt beam="1">  1       -2 0.24686137E-01 0.25731622E+03</pdfrwt>
<totfact> 0.11058130E+03</totfact>
</mgrwt>
</event>
<event>
 7    1  0.5107591E-006  0.2193244E+03  0.7546771E-02  0.1137220E+00
         -1   -1    0    0    0  501 -0.00000000000E+00  0.00000000000E+00  0.41850939387E+03  0.41850939387E+03  0.00000000000E+00 0.  1.
          1   -1    0    0  501    0  0.00000000000E+00 -0.00000000000E+00 -0.12537615177E+03  0.12537615177E+03  0.00000000000E+00 0. -1.
         23    2    1    2    0    0 -0.10491963965E+02 -0.17991299804E+03  0.39384237939E+02  0.20848767295E+03  0.97145372536E+02 0.  0.
          5    1    1    2  502    0  0.52715940223E+02  0.24913783589E+02  0.63024305768E+02  0.85987325135E+02  0.47000000000E+01 0.  1.
         -5    1    1    2    0  502 -0.42223976259E+02  0.15499921445E+03  0.19072469839E+03  0.24941054755E+03  0.47000000000E+01 0.  1.
        -11    1    3    3    0    0 -0.23145977206E+02 -0.38141710152E+02 -0.26232771475E+02  0.51756010408E+02  0.00000000000E+00 0.  1.
         11    1    3    3    0    0  0.12654013241E+02 -0.14177128788E+03  0.65617009415E+02  0.15673166254E+03  0.00000000000E+00 0. -1.
<mgrwt>
<rscale>  0 0.21558206E+03</rscale>
<asrwt>0</asrwt>
<pdfrwt beam="2">  1        1 0.19288639E-01 0.21932436E+03</pdfrwt>
<pdfrwt beam="1">  1       -1 0.64386060E-01 0.21932436E+03</pdfrwt>
<totfact> 0.67826354E+02</totfact>
</mgrwt>
</event>
<event>
 7    1  0.5107591E-006  0.1316858E+03  0.7546771E-02  0.1238594E+00
          2   -1    0    0  501    0  0.00000000000E+00  0.00000000000E+00  0.33392415759E+02  0.33392415759E+02  0.00000000000E+00 0. -1.
         -2   -1    0    0    0  501 -0.00000000000E+00 -0.00000000000E+00 -0.40140460431E+03  0.40140460431E+03  0.00000000000E+00 0.  1.
         23    2    1    2    0    0 -0.40257890702E+02 -0.97544216877E+01 -0.17073582920E+03  0.19760698318E+03  0.90454131591E+02 0.  0.
          5    1    1    2  502    0 -0.26779426785E+02 -0.10557174830E+02 -0.14979942234E+01  0.29204890447E+02  0.47000000000E+01 0. -1.
         -5    1    1    2    0  502  0.67037317487E+02  0.20311596518E+02 -0.19577836512E+03  0.20798514644E+03  0.47000000000E+01 0. -1.
        -11    1    3    3    0    0  0.11485617626E+02 -0.22897766575E+02 -0.87814452980E+01  0.27080267870E+02  0.00000000000E+00 0. -1.
         11    1    3    3    0    0 -0.51743508328E+02  0.13143344887E+02 -0.16195438390E+03  0.17052671531E+03  0.00000000000E+00 0.  1.
<mgrwt>
<rscale>  0 0.12277121E+03</rscale>
<asrwt>0</asrwt>
<pdfrwt beam="1">  1        2 0.51372947E-02 0.13168581E+03</pdfrwt>
<pdfrwt beam="2">  1       -2 0.61754555E-01 0.13168581E+03</pdfrwt>
<totfact> 0.35913610E+03</totfact>
</mgrwt>
</event>
<event>
 7    1  0.5107591E-006  0.1396691E+03  0.7546771E-02  0.1226120E+00
          2   -1    0    0  501    0  0.00000000000E+00  0.00000000000E+00  0.55062007100E+03  0.55062007100E+03  0.00000000000E+00 0. -1.
         -2   -1    0    0    0  501 -0.00000000000E+00 -0.00000000000E+00 -0.28285332799E+02  0.28285332799E+02  0.00000000000E+00 0.  1.
         23    2    1    2    0    0  0.42687234555E+02 -0.45391465716E+02  0.19046971011E+03  0.21884726602E+03  0.87936512442E+02 0.  0.
          5    1    1    2  502    0  0.22521434012E+02  0.39265720054E+02  0.39037428613E+02  0.59958507270E+02  0.47000000000E+01 0.  1.
         -5    1    1    2    0  502 -0.65208668567E+02  0.61257456613E+01  0.29282759948E+03  0.30009963051E+03  0.47000000000E+01 0.  1.
        -11    1    3    3    0    0  0.40132307971E+02  0.65082323141E+01  0.31004945303E+02  0.51129892081E+02  0.00000000000E+00 0. -1.
         11    1    3    3    0    0  0.25549265831E+01 -0.51899698030E+02  0.15946476481E+03  0.16771737394E+03  0.00000000000E+00 0.  1.
<mgrwt>
<rscale>  0 0.13090453E+03</rscale>
<asrwt>0</asrwt>
<pdfrwt beam="1">  1        2 0.84710772E-01 0.13966913E+03</pdfrwt>
<pdfrwt beam="2">  1       -2 0.43515901E-02 0.13966913E+03</pdfrwt>
<totfact> 0.12835191E+04</totfact>
</mgrwt>
</event>
<event>
 7    1  0.5107591E-006  0.3243813E+03  0.7546771E-02  0.1074791E+00
          2   -1    0    0  501    0  0.00000000000E+00  0.00000000000E+00  0.60143802613E+03  0.60143802613E+03  0.00000000000E+00 0. -1.
         -2   -1    0    0    0  501 -0.00000000000E+00 -0.00000000000E+00 -0.24801861609E+03  0.24801861609E+03  0.00000000000E+00 0.  1.
         23    2    1    2    0    0  0.28986549999E+03 -0.74673198952E+02  0.41357059905E+03  0.51954545745E+03  0.96378147016E+02 0.  0.
          5    1    1    2  502    0 -0.82557235590E+02  0.32107492969E+01 -0.72798596781E+02  0.11021674897E+03  0.47000000000E+01 0.  1.
         -5    1    1    2    0  502 -0.20730826440E+03  0.71462449655E+02  0.12647407770E+02  0.21969443581E+03  0.47000000000E+01 0.  1.
        -11    1    3    3    0    0  0.86630924405E+02 -0.43820112396E+02  0.20434344238E+03  0.22623298114E+03  0.00000000000E+00 0. -1.
         11    1    3    3    0    0  0.20323457559E+03 -0.30853086556E+02  0.20922715668E+03  0.29331247631E+03  0.00000000000E+00 0.  1.
<mgrwt>
<rscale>  0 0.32187272E+03</rscale>
<asrwt>0</asrwt>
<pdfrwt beam="1">  1        2 0.92528927E-01 0.32438129E+03</pdfrwt>
<pdfrwt beam="2">  1       -2 0.38156710E-01 0.32438129E+03</pdfrwt>
<totfact> 0.32943281E+02</totfact>
</mgrwt>
</event>
<event>
 7    1  0.5107591E-006  0.1383926E+03  0.7546771E-02  0.1227133E+00
          1   -1    0    0  501    0  0.00000000000E+00  0.00000000000E+00  0.19473194874E+03  0.19473194874E+03  0.00000000000E+00 0. -1.
         -1   -1    0    0    0  501 -0.00000000000E+00 -0.00000000000E+00 -0.12976904534E+03  0.12976904534E+03  0.00000000000E+00 0.  1.
         23    2    1    2    0    0 -0.47994797411E+02  0.35002691162E+02  0.13189362810E+03  0.17077323318E+03  0.90768271265E+02 0.  0.
          5    1    1    2  502    0 -0.32711512946E+02  0.21694236179E+02 -0.22025929554E+02  0.45253889726E+02  0.47000000000E+01 0.  1.
         -5    1    1    2    0  502  0.80706310357E+02 -0.56696927340E+02 -0.44904795149E+02  0.10847387118E+03  0.47000000000E+01 0.  1.
        -11    1    3    3    0    0  0.22498675793E+02  0.21843228108E+02  0.17922220122E+02  0.36118181028E+02  0.00000000000E+00 0.  1.
         11    1    3    3    0    0 -0.70493473204E+02  0.13159463054E+02  0.11397140798E+03  0.13465505215E+03  0.00000000000E+00 0. -1.
<mgrwt>
<rscale>  0 0.13021782E+03</rscale>
<asrwt>0</asrwt>
<pdfrwt beam="1">  1        1 0.29958761E-01 0.13839257E+03</pdfrwt>
<pdfrwt beam="2">  1       -1 0.19964469E-01 0.13839257E+03</pdfrwt>
<totfact> 0.29713072E+03</totfact>
</mgrwt>
</event>
<event>
 7    1  0.5107591E-006  0.2694620E+03  0.7546771E-02  0.1103709E+00
          1   -1    0    0  501    0  0.00000000000E+00  0.00000000000E+00  0.69707922631E+03  0.69707922631E+03  0.00000000000E+00 0. -1.
         -1   -1    0    0    0  501 -0.00000000000E+00 -0.00000000000E+00 -0.10092152694E+03  0.10092152694E+03  0.00000000000E+00 0.  1.
         23    2    1    2    0    0 -0.26548355012E+02  0.23723407502E+03  0.34947898297E+03  0.43267879358E+03  0.89947525670E+02 0.  0.
          5    1    1    2  502    0  0.29875996552E+02 -0.24668105820E+03  0.20489912013E+03  0.32210224941E+03  0.47000000000E+01 0.  1.
         -5    1    1    2    0  502 -0.33276415399E+01  0.94469831883E+01  0.41779596273E+02  0.43219710252E+02  0.47000000000E+01 0.  1.
        -11    1    3    3    0    0  0.11638401160E+02  0.17696770503E+03  0.28933841636E+03  0.33936667512E+03  0.00000000000E+00 0.  1.
         11    1    3    3    0    0 -0.38186756173E+02  0.60266369988E+02  0.60140566616E+02  0.93312118460E+02  0.00000000000E+00 0. -1.
<mgrwt>
<rscale>  0 0.26579706E+03</rscale>
<asrwt>0</asrwt>
<pdfrwt beam="1">  1        1 0.10724295E+00 0.26946195E+03</pdfrwt>
<pdfrwt beam="2">  1       -1 0.15526389E-01 0.26946195E+03</pdfrwt>
<totfact> 0.86474587E+02</totfact>
</mgrwt>
</event>
<event>
 7    1  0.5107591E-006  0.3831552E+03  0.7546771E-02  0.1053200E+00
         -1   -1    0    0    0  501 -0.00000000000E+00  0.00000000000E+00  0.32923625419E+03  0.32923625419E+03  0.00000000000E+00 0.  1.
          1   -1    0    0  501    0  0.00000000000E+00 -0.00000000000E+00 -0.42070157681E+03  0.42070157681E+03  0.00000000000E+00 0. -1.
         23    2    1    2    0    0 -0.31805021891E+03  0.10637717947E+03 -0.11490582188E+03  0.36606628432E+03  0.91264070425E+02 0.  0.
          5    1    1    2  502    0 -0.47509675732E+01 -0.53436275637E+02  0.17655885102E+02  0.56672987619E+02  0.47000000000E+01 0. -1.
         -5    1    1    2    0  502  0.32280118648E+03 -0.52940903830E+02  0.57846141600E+01  0.32719855906E+03  0.47000000000E+01 0.  1.
        -11    1    3    3    0    0 -0.19918069568E+03  0.54465074754E+02 -0.24462243076E+02  0.20793699823E+03  0.00000000000E+00 0.  1.
         11    1    3    3    0    0 -0.11886952323E+03  0.51912104713E+02 -0.90443578808E+02  0.15812928608E+03  0.00000000000E+00 0. -1.
<mgrwt>
<rscale>  0 0.37392968E+03</rscale>
<asrwt>0</asrwt>
<pdfrwt beam="2">  1        1 0.64723319E-01 0.38315520E+03</pdfrwt>
<pdfrwt beam="1">  1       -1 0.50651732E-01 0.38315520E+03</pdfrwt>
<totfact> 0.22722188E+02</totfact>
</mgrwt>
</event>
<event>
 7    1  0.5107591E-006  0.1289761E+03  0.7546771E-02  0.1244034E+00
          4   -1    0    0  501    0  0.00000000000E+00  0.00000000000E+00  0.19412817193E+03  0.19412817193E+03  0.00000000000E+00 0. -1.
         -4   -1    0    0    0  501 -0.00000000000E+00 -0.00000000000E+00 -0.65411877962E+02  0.65411877962E+02  0.00000000000E+00 0.  1.
         23    2    1    2    0    0 -0.16309550154E+02  0.27249032939E+02  0.39618026469E+02  0.10278121359E+03  0.89363743343E+02 0.  0.
          5    1    1    2  502    0  0.26381407356E+01  0.32661980262E+02  0.89182518976E+02  0.95128210496E+02  0.47000000000E+01 0.  1.
         -5    1    1    2    0  502  0.13671409418E+02 -0.59911013201E+02 -0.84251478730E-01  0.61630625800E+02  0.47000000000E+01 0.  1.
        -11    1    3    3    0    0 -0.48425113463E+02 -0.55608137231E+01  0.17204673433E+02  0.51690570234E+02  0.00000000000E+00 0.  1.
         11    1    3    3    0    0  0.32115563309E+02  0.32809846662E+02  0.22413353036E+02  0.51090643360E+02  0.00000000000E+00 0. -1.
<mgrwt>
<rscale>  0 0.11943411E+03</rscale>
<asrwt>0</asrwt>
<pdfrwt beam="1">  1        4 0.29865872E-01 0.12897609E+03</pdfrwt>
<pdfrwt beam="2">  1       -4 0.10063366E-01 0.12897609E+03</pdfrwt>
<totfact> 0.13120017E+03</totfact>
</mgrwt>
</event>
<event>
 7    1  0.5107591E-006  0.1286861E+03  0.7546771E-02  0.1243744E+00
          1   -1    0    0  501    0  0.00000000000E+00  0.00000000000E+00  0.36118832014E+03  0.36118832014E+03  0.00000000000E+00 0. -1.
         -1   -1    0    0    0  501 -0.00000000000E+00 -0.00000000000E+00 -0.38329001552E+02  0.38329001552E+02  0.00000000000E+00 0.  1.
         23    2    1    2    0    0  0.27934178340E+02  0.12441814221E+02  0.19873304112E+03  0.22072286735E+03  0.91041998417E+02 0.  0.
          5    1    1    2  502    0 -0.12369114030E+02 -0.68782271849E+02  0.66950807974E+02  0.96894254685E+02  0.47000000000E+01 0. -1.
         -5    1    1    2    0  502 -0.15565064309E+02  0.56340457628E+02  0.57175469491E+02  0.81900199659E+02  0.47000000000E+01 0. -1.
        -11    1    3    3    0    0  0.57809482215E+02  0.20668933936E+02  0.15824970808E+03  0.16974130662E+03  0.00000000000E+00 0. -1.
         11    1    3    3    0    0 -0.29875303875E+02 -0.82271197149E+01  0.40483333038E+02  0.50981560728E+02  0.00000000000E+00 0.  1.
<mgrwt>
<rscale>  0 0.11960859E+03</rscale>
<asrwt>0</asrwt>
<pdfrwt beam="1">  1        1 0.55567432E-01 0.12868615E+03</pdfrwt>
<pdfrwt beam="2">  1       -1 0.58967697E-02 0.12868615E+03</pdfrwt>
<totfact> 0.89703205E+03</totfact>
</mgrwt>
</event>
<event>
 7    1  0.5107591E-006  0.1622466E+03  0.7546771E-02  0.1193607E+00
          2   -1    0    0  501    0  0.00000000000E+00  0.00000000000E+00  0.20169906190E+03  0.20169906190E+03  0.00000000000E+00 0. -1.
         -2   -1    0    0    0  501 -0.00000000000E+00 -0.00000000000E+00 -0.12782589457E+03  0.12782589457E+03  0.00000000000E+00 0.  1.
         23    2    1    2    0    0  0.90347954812E+02  0.50370294692E+02  0.92989137970E+02  0.16615610890E+03  0.90889786114E+02 0.  0.
          5    1    1    2  502    0 -0.61649081881E+02 -0.25525314753E+02  0.50584532057E+02  0.83863197372E+02  0.47000000000E+01 0. -1.
         -5    1    1    2    0  502 -0.28698872931E+02 -0.24844979940E+02 -0.69700502705E+02  0.79505650195E+02  0.47000000000E+01 0. -1.
        -11    1    3    3    0    0  0.46249520343E+02 -0.38053307316E+01  0.83676974661E+02  0.95683513535E+02  0.00000000000E+00 0. -1.
         11    1    3    3    0    0  0.44098434469E+02  0.54175625424E+02  0.93121633095E+01  0.70472595370E+02  0.00000000000E+00 0.  1.
<mgrwt>
<rscale>  0 0.15572703E+03</rscale>
<asrwt>0</asrwt>
<pdfrwt beam="1">  1        2 0.31030625E-01 0.16224660E+03</pdfrwt>
<pdfrwt beam="2">  1       -2 0.19665522E-01 0.16224660E+03</pdfrwt>
<totfact> 0.35523376E+03</totfact>
</mgrwt>
</event>
<event>
 7    1  0.5107591E-006  0.1253205E+03  0.7546771E-02  0.1248558E+00
         -3   -1    0    0    0  501 -0.00000000000E+00  0.00000000000E+00  0.34434455008E+02  0.34434455008E+02  0.00000000000E+00 0.  1.
          3   -1    0    0  501    0  0.00000000000E+00 -0.00000000000E+00 -0.44401105384E+03  0.44401105384E+03  0.00000000000E+00 0. -1.
         23    2    1    2    0    0 -0.29185437063E+01 -0.33339597851E+01 -0.29096649058E+03  0.30589524638E+03  0.94290879375E+02 0.  0.
          5    1    1    2  502    0 -0.27486743471E+02  0.42726621367E+02 -0.11076999205E+03  0.12195559183E+03  0.47000000000E+01 0. -1.
         -5    1    1    2    0  502  0.30405287178E+02 -0.39392661582E+02 -0.78401162060E+01  0.50594670638E+02  0.47000000000E+01 0. -1.
        -11    1    3    3    0    0 -0.24016646781E+02 -0.38396789727E+02 -0.21386102759E+03  0.21860386984E+03  0.00000000000E+00 0. -1.
         11    1    3    3    0    0  0.21098103074E+02  0.35062829942E+02 -0.77105462985E+02  0.87291376545E+02  0.00000000000E+00 0.  1.
<mgrwt>
<rscale>  0 0.11674918E+03</rscale>
<asrwt>0</asrwt>
<pdfrwt beam="2">  1        3 0.68309393E-01 0.12532053E+03</pdfrwt>
<pdfrwt beam="1">  1       -3 0.52976085E-02 0.12532053E+03</pdfrwt>
<totfact> 0.99321904E+02</totfact>
</mgrwt>
</event>
<event>
 7    1  0.5107591E-006  0.1806610E+03  0.7546771E-02  0.1172869E+00
          2   -1    0    0  501    0  0.00000000000E+00  0.00000000000E+00  0.48684400931E+03  0.48684400931E+03  0.00000000000E+00 0. -1.
         -2   -1    0    0    0  501 -0.00000000000E+00 -0.00000000000E+00 -0.59159917655E+02  0.59159917655E+02  0.00000000000E+00 0.  1.
         23    2    1    2    0    0  0.12702791000E+03  0.29610107754E+02  0.19069138156E+03  0.24800403431E+03  0.90166233324E+02 0.  0.
          5    1    1    2  502    0  0.41061885815E+01 -0.22279239285E+02 -0.40202244112E+01  0.23483557910E+02  0.47000000000E+01 0. -1.
         -5    1    1    2    0  502 -0.13113409858E+03 -0.73308684684E+01  0.24101293451E+03  0.27451633475E+03  0.47000000000E+01 0. -1.
        -11    1    3    3    0    0  0.10581927981E+03  0.58886903638E+02  0.13255916193E+03  0.17954753914E+03  0.00000000000E+00 0.  1.
         11    1    3    3    0    0  0.21208630195E+02 -0.29276795884E+02  0.58132219635E+02  0.68456495175E+02  0.00000000000E+00 0. -1.
<mgrwt>
<rscale>  0 0.17486383E+03</rscale>
<asrwt>0</asrwt>
<pdfrwt beam="1">  1        2 0.74899076E-01 0.18066098E+03</pdfrwt>
<pdfrwt beam="2">  1       -2 0.91015261E-02 0.18066098E+03</pdfrwt>
<totfact> 0.48385758E+03</totfact>
</mgrwt>
</event>
<event>
 7    1  0.5107591E-006  0.2148854E+03  0.7546771E-02  0.1141369E+00
          1   -1    0    0  501    0  0.00000000000E+00  0.00000000000E+00  0.60765553256E+02  0.60765553256E+02  0.00000000000E+00 0. -1.
         -1   -1    0    0    0  501 -0.00000000000E+00 -0.00000000000E+00 -0.76197538694E+03  0.76197538694E+03  0.00000000000E+00 0.  1.
         23    2    1    2    0    0  0.87359162112E+02  0.15138900830E+03 -0.21726425277E+03  0.29323260365E+03  0.90726783661E+02 0.  0.
          5    1    1    2  502    0 -0.10656497535E+03 -0.87682418785E+02 -0.39422854308E+03  0.41771106607E+03  0.47000000000E+01 0.  1.
         -5    1    1    2    0  502  0.19205813240E+02 -0.63706589510E+02 -0.89717037838E+02  0.11179727048E+03  0.47000000000E+01 0.  1.
        -11    1    3    3    0    0  0.95811359311E+02  0.85775011824E+02 -0.16331568098E+03  0.20786818150E+03  0.00000000000E+00 0. -1.
         11    1    3    3    0    0 -0.84521971990E+01  0.65613996471E+02 -0.53948571786E+02  0.85364422145E+02  0.00000000000E+00 0.  1.
<mgrwt>
<rscale>  0 0.21024877E+03</rscale>
<asrwt>0</asrwt>
<pdfrwt beam="1">  1        1 0.93485459E-02 0.21488544E+03</pdfrwt>
<pdfrwt beam="2">  1       -1 0.11722699E+00 0.21488544E+03</pdfrwt>
<totfact> 0.49168611E+02</totfact>
</mgrwt>
</event>
<event>
 7    1  0.5107591E-006  0.3271405E+03  0.7546771E-02  0.1073704E+00
          2   -1    0    0  501    0  0.00000000000E+00  0.00000000000E+00  0.11159157522E+04  0.11159157522E+04  0.00000000000E+00 0. -1.
         -2   -1    0    0    0  501 -0.00000000000E+00 -0.00000000000E+00 -0.11668787906E+03  0.11668787906E+03  0.00000000000E+00 0.  1.
         23    2    1    2    0    0 -0.28325660573E+03 -0.10564934481E+03  0.77257095693E+03  0.83461583518E+03  0.91222914304E+02 0.  0.
          5    1    1    2  502    0  0.37997482271E+02 -0.19054416752E+02  0.68041094880E+02  0.80365166890E+02  0.47000000000E+01 0.  1.
         -5    1    1    2    0  502  0.24525912346E+03  0.12470376156E+03  0.15861582128E+03  0.31762262915E+03  0.47000000000E+01 0.  1.
        -11    1    3    3    0    0 -0.13985847209E+03 -0.48274126271E+01  0.36746875051E+03  0.39321365532E+03  0.00000000000E+00 0. -1.
         11    1    3    3    0    0 -0.14339813364E+03 -0.10082193218E+03  0.40510220642E+03  0.44140217986E+03  0.00000000000E+00 0.  1.
<mgrwt>
<rscale>  0 0.32426293E+03</rscale>
<asrwt>0</asrwt>
<pdfrwt beam="1">  1        2 0.17167934E+00 0.32714053E+03</pdfrwt>
<pdfrwt beam="2">  1       -2 0.17951982E-01 0.32714053E+03</pdfrwt>
<totfact> 0.56538368E+02</totfact>
</mgrwt>
</event>
<event>
 7    1  0.5107591E-006  0.1736782E+03  0.7546771E-02  0.1179887E+00
         -2   -1    0    0    0  501 -0.00000000000E+00  0.00000000000E+00  0.27771689682E+02  0.27771689682E+02  0.00000000000E+00 0.  1.
          2   -1    0    0  501    0  0.00000000000E+00 -0.00000000000E+00 -0.10710146701E+04  0.10710146701E+04  0.00000000000E+00 0. -1.
         23    2    1    2    0    0  0.53570812854E+02 -0.10802582141E+03 -0.67041410983E+03  0.68748902489E+03  0.92987475535E+02 0.  0.
          5    1    1    2  502    0  0.19342157402E+01  0.10368884761E+03 -0.31145392676E+03  0.32829979714E+03  0.47000000000E+01 0.  1.
         -5    1    1    2    0  502 -0.55505028594E+02  0.43369738012E+01 -0.61374943796E+02  0.82997537716E+02  0.47000000000E+01 0.  1.
        -11    1    3    3    0    0  0.21851801646E+02  0.22900404713E+01 -0.31868461572E+02  0.38708453386E+02  0.00000000000E+00 0.  1.
         11    1    3    3    0    0  0.31719011208E+02 -0.11031586188E+03 -0.63854564826E+03  0.64878057151E+03  0.00000000000E+00 0. -1.
<mgrwt>
<rscale>  0 0.16805927E+03</rscale>
<asrwt>0</asrwt>
<pdfrwt beam="2">  1        2 0.16477148E+00 0.17367824E+03</pdfrwt>
<pdfrwt beam="1">  1       -2 0.42725678E-02 0.17367824E+03</pdfrwt>
<totfact> 0.58196519E+03</totfact>
</mgrwt>
</event>
<event>
 7    1  0.5107591E-006  0.1416200E+03  0.7546771E-02  0.1222006E+00
         -1   -1    0    0    0  501 -0.00000000000E+00  0.00000000000E+00  0.50513689332E+02  0.50513689332E+02  0.00000000000E+00 0.  1.
          1   -1    0    0  501    0  0.00000000000E+00 -0.00000000000E+00 -0.32604201275E+03  0.32604201275E+03  0.00000000000E+00 0. -1.
         23    2    1    2    0    0 -0.64340158849E+02  0.17092896069E+02 -0.96802823236E+02  0.14852273450E+03  0.90864695788E+02 0.  0.
          5    1    1    2  502    0  0.70301182261E+02  0.20839242605E+02 -0.17422903020E+03  0.18908827363E+03  0.47000000000E+01 0. -1.
         -5    1    1    2    0  502 -0.59610234122E+01 -0.37932138674E+02 -0.44964699791E+01  0.38944693949E+02  0.47000000000E+01 0. -1.
        -11    1    3    3    0    0 -0.43343704465E+02  0.50448524587E+02 -0.34831804227E+02  0.75079857056E+02  0.00000000000E+00 0.  1.
         11    1    3    3    0    0 -0.20996454384E+02 -0.33355628518E+02 -0.61971019009E+02  0.73442877446E+02  0.00000000000E+00 0. -1.
<mgrwt>
<rscale>  0 0.13374223E+03</rscale>
<asrwt>0</asrwt>
<pdfrwt beam="2">  1        1 0.50160310E-01 0.14162002E+03</pdfrwt>
<pdfrwt beam="1">  1       -1 0.77713367E-02 0.14162002E+03</pdfrwt>
<totfact> 0.67847765E+03</totfact>
</mgrwt>
</event>
<event>
 7    1  0.5107591E-006  0.1282895E+03  0.7546771E-02  0.1244940E+00
          2   -1    0    0  501    0  0.00000000000E+00  0.00000000000E+00  0.42175581250E+03  0.42175581250E+03  0.00000000000E+00 0. -1.
         -2   -1    0    0    0  501 -0.00000000000E+00 -0.00000000000E+00 -0.29465588327E+02  0.29465588327E+02  0.00000000000E+00 0.  1.
         23    2    1    2    0    0  0.14554570780E+02 -0.24905842745E+02  0.17081619589E+03  0.19527426080E+03  0.90120628160E+02 0.  0.
          5    1    1    2  502    0  0.55374019914E+02  0.14507217075E+02  0.98814030268E+02  0.11429367439E+03  0.47000000000E+01 0.  1.
         -5    1    1    2    0  502 -0.69928590694E+02  0.10398625669E+02  0.12265999801E+03  0.14165346563E+03  0.47000000000E+01 0.  1.
        -11    1    3    3    0    0  0.45417032506E+01 -0.47844046904E+02  0.16161318606E+03  0.16860753779E+03  0.00000000000E+00 0. -1.
         11    1    3    3    0    0  0.10012867529E+02  0.22938204160E+02  0.92030098360E+01  0.26666723013E+02  0.00000000000E+00 0.  1.
<mgrwt>
<rscale>  0 0.11888981E+03</rscale>
<asrwt>0</asrwt>
<pdfrwt beam="1">  1        2 0.64885505E-01 0.12828949E+03</pdfrwt>
<pdfrwt beam="2">  1       -2 0.45331677E-02 0.12828949E+03</pdfrwt>
<totfact> 0.16050857E+04</totfact>
</mgrwt>
</event>
<event>
 7    1  0.5107591E-006  0.1383004E+03  0.7546771E-02  0.1223348E+00
         -3   -1    0    0    0  501 -0.00000000000E+00  0.00000000000E+00  0.60169122478E+03  0.60169122478E+03  0.00000000000E+00 0.  1.
          3   -1    0    0  501    0  0.00000000000E+00 -0.00000000000E+00 -0.30294971244E+02  0.30294971244E+02  0.00000000000E+00 0. -1.
         23    2    1    2    0    0 -0.29961894530E+01 -0.59093820751E+02  0.16440441866E+03  0.20213814122E+03  0.10163640320E+03 0.  0.
          5    1    1    2  502    0 -0.38826589806E+02 -0.16174574335E+02  0.21857083436E+03  0.22263068199E+03  0.47000000000E+01 0. -1.
         -5    1    1    2    0  502  0.41822779259E+02  0.75268395086E+02  0.18842100051E+03  0.20721737282E+03  0.47000000000E+01 0. -1.
        -11    1    3    3    0    0 -0.45644934162E+01 -0.30619279872E+02  0.17023798690E+03  0.17302990228E+03  0.00000000000E+00 0.  1.
         11    1    3    3    0    0  0.15683039633E+01 -0.28474540879E+02 -0.58335682327E+01  0.29108238936E+02  0.00000000000E+00 0. -1.
<mgrwt>
<rscale>  0 0.13280802E+03</rscale>
<asrwt>0</asrwt>
<pdfrwt beam="2">  1        3 0.46607653E-02 0.13830039E+03</pdfrwt>
<pdfrwt beam="1">  1       -3 0.92567872E-01 0.13830039E+03</pdfrwt>
<totfact> 0.63848607E+02</totfact>
</mgrwt>
</event>
<event>
 7    1  0.5107591E-006  0.1469704E+03  0.7546771E-02  0.1213839E+00
         -1   -1    0    0    0  501 -0.00000000000E+00  0.00000000000E+00  0.77805733536E+02  0.77805733536E+02  0.00000000000E+00 0.  1.
          1   -1    0    0  501    0  0.00000000000E+00 -0.00000000000E+00 -0.29200369005E+03  0.29200369005E+03  0.00000000000E+00 0. -1.
         23    2    1    2    0    0 -0.23531493849E+02 -0.73623719056E+02 -0.18440097152E+03  0.21984891377E+03  0.91409208378E+02 0.  0.
          5    1    1    2  502    0  0.15914338228E+02 -0.14031401673E+02 -0.54315892868E+02  0.58501731703E+02  0.47000000000E+01 0.  1.
         -5    1    1    2    0  502  0.76171556216E+01  0.87655120729E+02  0.24518907880E+02  0.91458778110E+02  0.47000000000E+01 0.  1.
        -11    1    3    3    0    0 -0.13803983641E+02  0.18586692579E+02 -0.17876305978E+02  0.29250255055E+02  0.00000000000E+00 0.  1.
         11    1    3    3    0    0 -0.97275102086E+01 -0.92210411635E+02 -0.16652466554E+03  0.19059865871E+03  0.00000000000E+00 0. -1.
<mgrwt>
<rscale>  0 0.13962156E+03</rscale>
<asrwt>0</asrwt>
<pdfrwt beam="2">  1        1 0.44923644E-01 0.14697039E+03</pdfrwt>
<pdfrwt beam="1">  1       -1 0.11970113E-01 0.14697039E+03</pdfrwt>
<totfact> 0.40330314E+03</totfact>
</mgrwt>
</event>
<event>
 7    1  0.5107591E-006  0.1507758E+03  0.7546771E-02  0.1207429E+00
         -1   -1    0    0    0  501 -0.00000000000E+00  0.00000000000E+00  0.14436150769E+03  0.14436150769E+03  0.00000000000E+00 0.  1.
          1   -1    0    0  501    0  0.00000000000E+00 -0.00000000000E+00 -0.13379080473E+03  0.13379080473E+03  0.00000000000E+00 0. -1.
         23    2    1    2    0    0 -0.84265371632E+02  0.27449094590E+01  0.19243884981E+01  0.12712883172E+03  0.95130695355E+02 0.  0.
          5    1    1    2  502    0  0.55603125883E+02  0.31172106238E+02  0.56687743337E+02  0.85434173841E+02  0.47000000000E+01 0.  1.
         -5    1    1    2    0  502  0.28662245750E+02 -0.33917015697E+02 -0.48041428878E+02  0.65589306856E+02  0.47000000000E+01 0.  1.
        -11    1    3    3    0    0 -0.22408731059E+02 -0.27694730856E+02  0.35634175988E+02  0.50387933508E+02  0.00000000000E+00 0. -1.
         11    1    3    3    0    0 -0.61856640574E+02  0.30439640315E+02 -0.33709787490E+02  0.76740898211E+02  0.00000000000E+00 0.  1.
<mgrwt>
<rscale>  0 0.14447651E+03</rscale>
<asrwt>0</asrwt>
<pdfrwt beam="2">  1        1 0.20583201E-01 0.15077577E+03</pdfrwt>
<pdfrwt beam="1">  1       -1 0.22209463E-01 0.15077577E+03</pdfrwt>
<totfact> 0.40281105E+03</totfact>
</mgrwt>
</event>
<event>
 7    1  0.5107591E-006  0.1251463E+03  0.7546771E-02  0.1250768E+00
          1   -1    0    0  501    0  0.00000000000E+00  0.00000000000E+00  0.13186273618E+03  0.13186273618E+03  0.00000000000E+00 0. -1.
         -1   -1    0    0    0  501 -0.00000000000E+00 -0.00000000000E+00 -0.10278552085E+03  0.10278552085E+03  0.00000000000E+00 0.  1.
         23    2    1    2    0    0 -0.19686004806E+01 -0.55951664045E+01  0.56066838379E+02  0.10662466210E+03  0.90499430531E+02 0.  0.
          5    1    1    2  502    0  0.27735581455E+02  0.54275223091E+02  0.93878179680E+01  0.61848875870E+02  0.47000000000E+01 0.  1.
         -5    1    1    2    0  502 -0.25766980974E+02 -0.48680056686E+02 -0.36377441023E+02  0.66174719062E+02  0.47000000000E+01 0.  1.
        -11    1    3    3    0    0  0.82637891881E+01 -0.22575428387E+02 -0.17947709670E+02  0.30001007666E+02  0.00000000000E+00 0.  1.
         11    1    3    3    0    0 -0.10232389669E+02  0.16980261982E+02  0.74014548049E+02  0.76623654430E+02  0.00000000000E+00 0. -1.
<mgrwt>
<rscale>  0 0.11546696E+03</rscale>
<asrwt>0</asrwt>
<pdfrwt beam="1">  1        1 0.20286575E-01 0.12514632E+03</pdfrwt>
<pdfrwt beam="2">  1       -1 0.15813157E-01 0.12514632E+03</pdfrwt>
<totfact> 0.69749517E+03</totfact>
</mgrwt>
</event>
<event>
 7    1  0.5107591E-006  0.1291010E+03  0.7546771E-02  0.1243362E+00
          2   -1    0    0  501    0  0.00000000000E+00  0.00000000000E+00  0.15035887621E+03  0.15035887621E+03  0.00000000000E+00 0. -1.
         -2   -1    0    0    0  501 -0.00000000000E+00 -0.00000000000E+00 -0.92413265034E+02  0.92413265034E+02  0.00000000000E+00 0.  1.
         23    2    1    2    0    0 -0.58466040285E+01  0.31727326123E+02  0.61028962775E+02  0.11363428756E+03  0.90263010205E+02 0.  0.
          5    1    1    2  502    0 -0.35886428954E+02 -0.47829106121E+02 -0.39029991847E+02  0.71560390154E+02  0.47000000000E+01 0. -1.
         -5    1    1    2    0  502  0.41733032983E+02  0.16101779998E+02  0.35946640250E+02  0.57577463528E+02  0.47000000000E+01 0. -1.
        -11    1    3    3    0    0  0.40109734829E+02  0.37467934330E+01  0.37039242200E+02  0.54724169723E+02  0.00000000000E+00 0.  1.
         11    1    3    3    0    0 -0.45956338858E+02  0.27980532690E+02  0.23989720575E+02  0.58910117842E+02  0.00000000000E+00 0. -1.
<mgrwt>
<rscale>  0 0.11983984E+03</rscale>
<asrwt>0</asrwt>
<pdfrwt beam="1">  1        2 0.23132135E-01 0.12910104E+03</pdfrwt>
<pdfrwt beam="2">  1       -2 0.14217425E-01 0.12910104E+03</pdfrwt>
<totfact> 0.82755176E+03</totfact>
</mgrwt>
</event>
<event>
 7    1  0.5107591E-006  0.1346140E+03  0.7546771E-02  0.1233015E+00
         -3   -1    0    0    0  501 -0.00000000000E+00  0.00000000000E+00  0.27115425577E+03  0.27115425577E+03  0.00000000000E+00 0.  1.
          3   -1    0    0  501    0  0.00000000000E+00 -0.00000000000E+00 -0.52871150088E+02  0.52871150088E+02  0.00000000000E+00 0. -1.
         23    2    1    2    0    0 -0.48415812611E+02  0.12148945025E+02  0.85422764434E+02  0.13488843829E+03  0.91685082342E+02 0.  0.
          5    1    1    2  502    0  0.25098303878E+02  0.17775495883E+02 -0.16322693364E+02  0.35134220214E+02  0.47000000000E+01 0.  1.
         -5    1    1    2    0  502  0.23317508733E+02 -0.29924440908E+02  0.14918303461E+03  0.15400274735E+03  0.47000000000E+01 0.  1.
        -11    1    3    3    0    0 -0.27385842944E+02  0.46847343304E+02  0.19856622616E+02  0.57783591357E+02  0.00000000000E+00 0. -1.
         11    1    3    3    0    0 -0.21029969667E+02 -0.34698398279E+02  0.65566141818E+02  0.77104846931E+02  0.00000000000E+00 0.  1.
<mgrwt>
<rscale>  0 0.12632380E+03</rscale>
<asrwt>0</asrwt>
<pdfrwt beam="2">  1        3 0.81340232E-02 0.13461397E+03</pdfrwt>
<pdfrwt beam="1">  1       -3 0.41716039E-01 0.13461397E+03</pdfrwt>
<totfact> 0.13646080E+03</totfact>
</mgrwt>
</event>
<event>
 7    1  0.5107591E-006  0.1506164E+03  0.7546771E-02  0.1209091E+00
          1   -1    0    0  501    0  0.00000000000E+00  0.00000000000E+00  0.10493560493E+03  0.10493560493E+03  0.00000000000E+00 0. -1.
         -1   -1    0    0    0  501 -0.00000000000E+00 -0.00000000000E+00 -0.19608055325E+03  0.19608055325E+03  0.00000000000E+00 0.  1.
         23    2    1    2    0    0 -0.37781225838E+02  0.77362393467E+02  0.35409315749E+01  0.12310971843E+03  0.87926694614E+02 0.  0.
          5    1    1    2  502    0  0.42860473882E+02 -0.25498843607E+02  0.18349820423E+02  0.53348075469E+02  0.47000000000E+01 0. -1.
         -5    1    1    2    0  502 -0.50792480436E+01 -0.51863549860E+02 -0.11303570032E+03  0.12455836428E+03  0.47000000000E+01 0.  1.
        -11    1    3    3    0    0  0.64368404928E+01  0.39808771425E+02 -0.35053618927E+02  0.53431520638E+02  0.00000000000E+00 0.  1.
         11    1    3    3    0    0 -0.44218066331E+02  0.37553622042E+02  0.38594550502E+02  0.69678197788E+02  0.00000000000E+00 0. -1.
<mgrwt>
<rscale>  0 0.14319645E+03</rscale>
<asrwt>0</asrwt>
<pdfrwt beam="1">  1        1 0.16143939E-01 0.15061635E+03</pdfrwt>
<pdfrwt beam="2">  1       -1 0.30166239E-01 0.15061635E+03</pdfrwt>
<totfact> 0.33141733E+03</totfact>
</mgrwt>
</event>
