<event>
 8    1  0.7232317E-009  0.2809836E+03  0.7561462E-02  0.1095153E+00
         -1   -1    0    0    0  501 -0.00000000000E+00  0.00000000000E+00  0.57412902944E+03  0.57412902944E+03  0.00000000000E+00 0.  1.
          1   -1    0    0  501    0  0.00000000000E+00 -0.00000000000E+00 -0.16135421174E+03  0.16135421174E+03  0.00000000000E+00 0. -1.
         25    2    1    2    0    0  0.27507115424E+03 -0.88342182973E+00  0.12514278365E+03  0.32706805080E+03  0.12509145944E+03 0.  0.
         23    2    1    2    0    0 -0.27507115424E+03  0.88342182973E+00  0.28763203405E+03  0.40841519038E+03  0.91683479383E+02 0.  0.
          5    1    3    3  502    0  0.18291712250E+03 -0.24184966665E+01  0.14406291502E+03  0.23288649320E+03  0.41800000000E+01 0. -1.
         -5    1    3    3    0  502  0.92154031738E+02  0.15350748368E+01 -0.18920131374E+02  0.94181557598E+02  0.41800000000E+01 0. -1.
        -11    1    4    4    0    0 -0.91435154278E+02  0.38611092489E+02  0.71614068239E+02  0.12239190607E+03  0.00000000000E+00 0.  1.
         11    1    4    4    0    0 -0.18363599996E+03 -0.37727670660E+02  0.21601796581E+03  0.28602328431E+03  0.00000000000E+00 0. -1.
</event>
<event>
 8    1  0.7232317E-009  0.1179770E+03  0.7561462E-02  0.1246472E+00
         -1   -1    0    0    0  501 -0.00000000000E+00  0.00000000000E+00  0.97333792211E+02  0.97333792211E+02  0.00000000000E+00 0. -1.
          1   -1    0    0  501    0  0.00000000000E+00 -0.00000000000E+00 -0.16901846959E+03  0.16901846959E+03  0.00000000000E+00 0.  1.
         25    2    1    2    0    0  0.31114961258E+02 -0.21417821980E+01  0.31784349795E+00  0.12892090981E+03  0.12509105450E+03 0.  0.
         23    2    1    2    0    0 -0.31114961258E+02  0.21417821980E+01 -0.72002520874E+02  0.13743135199E+03  0.11282856665E+03 0.  0.
          5    1    3    3  502    0  0.85270608275E+01  0.56573635830E+02 -0.22852005239E+02  0.61749280002E+02  0.41800000000E+01 0.  1.
         -5    1    3    3    0  502  0.22587900431E+02 -0.58715418028E+02  0.23169848737E+02  0.67171629804E+02  0.41800000000E+01 0.  1.
        -11    1    4    4    0    0 -0.67302777316E+02 -0.23390534191E+02 -0.54926786369E+02  0.89965175401E+02  0.00000000000E+00 0.  1.
         11    1    4    4    0    0  0.36187816058E+02  0.25532316389E+02 -0.17075734505E+02  0.47466176590E+02  0.00000000000E+00 0. -1.
</event>
<event>
 8    1  0.7232317E-009  0.1044655E+03  0.7561462E-02  0.1271176E+00
          2   -1    0    0  501    0  0.00000000000E+00  0.00000000000E+00  0.20669525496E+03  0.20669525496E+03  0.00000000000E+00 0. -1.
         -2   -1    0    0    0  501 -0.00000000000E+00 -0.00000000000E+00 -0.88771985023E+02  0.88771985023E+02  0.00000000000E+00 0.  1.
         25    2    1    2    0    0 -0.32895694929E+02 -0.20177721790E+02  0.14519107212E+03  0.19548986366E+03  0.12508625891E+03 0.  0.
         23    2    1    2    0    0  0.32895694929E+02  0.20177721790E+02 -0.27267802180E+02  0.99977376330E+02  0.88106047129E+02 0.  0.
          5    1    3    3  502    0 -0.67207925580E+02  0.11148630882E+02  0.36927101256E+02  0.77603353269E+02  0.41800000000E+01 0.  1.
         -5    1    3    3    0  502  0.34312230651E+02 -0.31326352672E+02  0.10826397087E+03  0.11788651039E+03  0.41800000000E+01 0.  1.
        -11    1    4    4    0    0  0.18877108104E+02 -0.33552654819E+02 -0.21640956929E+02  0.44163977092E+02  0.00000000000E+00 0.  1.
         11    1    4    4    0    0  0.14018586825E+02  0.53730376609E+02 -0.56268452513E+01  0.55813399238E+02  0.00000000000E+00 0. -1.
</event>
<event>
 8    1  0.7232317E-009  0.7100257E+02  0.7561462E-02  0.1356717E+00
          2   -1    0    0  501    0  0.00000000000E+00  0.00000000000E+00  0.81802488973E+02  0.81802488973E+02  0.00000000000E+00 0. -1.
         -2   -1    0    0    0  501 -0.00000000000E+00 -0.00000000000E+00 -0.16579154982E+03  0.16579154982E+03  0.00000000000E+00 0.  1.
         25    2    1    2    0    0  0.26392035732E+02 -0.33776580453E+02 -0.35877831324E+02  0.13700653783E+03  0.12508467408E+03 0.  0.
         23    2    1    2    0    0 -0.26392035732E+02  0.33776580453E+02 -0.48111229520E+02  0.11058750096E+03  0.89874957721E+02 0.  0.
          5    1    3    3  502    0  0.34615176210E+01  0.16511770129E+02 -0.69861060955E+02  0.71990700057E+02  0.41800000000E+01 0. -1.
         -5    1    3    3    0  502  0.22930518111E+02 -0.50288350582E+02  0.33983229631E+02  0.65015837773E+02  0.41800000000E+01 0. -1.
        -11    1    4    4    0    0  0.10071003921E+02  0.31038167219E+02  0.16334270754E+02  0.36491113238E+02  0.00000000000E+00 0. -1.
         11    1    4    4    0    0 -0.36463039652E+02  0.27384132335E+01 -0.64445500274E+02  0.74096387721E+02  0.00000000000E+00 0.  1.
</event>
<event>
 8    1  0.7232317E-009  0.7412662E+02  0.7561462E-02  0.1346597E+00
         -1   -1    0    0    0  501 -0.00000000000E+00  0.00000000000E+00  0.21670748357E+02  0.21670748357E+02  0.00000000000E+00 0.  1.
          1   -1    0    0  501    0  0.00000000000E+00 -0.00000000000E+00 -0.56417941460E+03  0.56417941460E+03  0.00000000000E+00 0. -1.
         25    2    1    2    0    0 -0.42542796585E+01 -0.20240654070E+02 -0.30400916048E+03  0.32938856818E+03  0.12508987256E+03 0.  0.
         23    2    1    2    0    0  0.42542796585E+01  0.20240654070E+02 -0.23849950577E+03  0.25646159478E+03  0.91993219179E+02 0.  0.
          5    1    3    3  502    0  0.17828396518E+02  0.61389463988E+01  0.37585893859E+01  0.19675817123E+02  0.41800000000E+01 0.  1.
         -5    1    3    3    0  502 -0.22082676176E+02 -0.26379600468E+02 -0.30776774987E+03  0.30971275105E+03  0.41800000000E+01 0.  1.
        -11    1    4    4    0    0  0.30439679287E+01 -0.36952842192E+02 -0.95126798501E+02  0.10209743425E+03  0.00000000000E+00 0.  1.
         11    1    4    4    0    0  0.12103117298E+01  0.57193496262E+02 -0.14337270726E+03  0.15436416053E+03  0.00000000000E+00 0. -1.
</event>
<event>
 8    1  0.7232317E-009  0.1251523E+03  0.7561462E-02  0.1234832E+00
         -2   -1    0    0    0  501 -0.00000000000E+00  0.00000000000E+00  0.70209783030E+02  0.70209783030E+02  0.00000000000E+00 0.  1.
          2   -1    0    0  501    0  0.00000000000E+00 -0.00000000000E+00 -0.28558611606E+03  0.28558611606E+03  0.00000000000E+00 0. -1.
         25    2    1    2    0    0 -0.37372375584E+02 -0.71446857387E+02 -0.72176292286E+02  0.16539853722E+03  0.12508361627E+03 0.  0.
         23    2    1    2    0    0  0.37372375584E+02  0.71446857387E+02 -0.14320004075E+03  0.19039736187E+03  0.96143412934E+02 0.  0.
          5    1    3    3  502    0  0.14277201829E+02 -0.72483017376E+02 -0.84303020038E+02  0.11216995091E+03  0.41800000000E+01 0.  1.
         -5    1    3    3    0  502 -0.51649577413E+02  0.10361599889E+01  0.12126727753E+02  0.53228586309E+02  0.41800000000E+01 0.  1.
        -11    1    4    4    0    0 -0.32085220791E+02  0.27761766976E+02 -0.60532603426E+02  0.73921398636E+02  0.00000000000E+00 0.  1.
         11    1    4    4    0    0  0.69457596375E+02  0.43685090411E+02 -0.82667437321E+02  0.11647596324E+03  0.00000000000E+00 0. -1.
</event>
<event>
 8    1  0.7232317E-009  0.1239838E+03  0.7561462E-02  0.1236666E+00
          1   -1    0    0  501    0  0.00000000000E+00  0.00000000000E+00  0.60178080399E+02  0.60178080399E+02  0.00000000000E+00 0. -1.
         -1   -1    0    0    0  501 -0.00000000000E+00 -0.00000000000E+00 -0.34625997128E+03  0.34625997128E+03  0.00000000000E+00 0.  1.
         25    2    1    2    0    0  0.78324691272E+02 -0.18882197611E+02 -0.23708731186E+03  0.27990969612E+03  0.12509096644E+03 0.  0.
         23    2    1    2    0    0 -0.78324691272E+02  0.18882197611E+02 -0.48994579022E+02  0.12652835556E+03  0.84366233403E+02 0.  0.
          5    1    3    3  502    0  0.10364271355E+03 -0.10181759129E+02 -0.22904822349E+03  0.25164665977E+03  0.41800000000E+01 0. -1.
         -5    1    3    3    0  502 -0.25318022273E+02 -0.87004384827E+01 -0.80390883707E+01  0.28263036345E+02  0.41800000000E+01 0. -1.
        -11    1    4    4    0    0 -0.33473998386E+02 -0.33723797262E+02 -0.20810796946E+02  0.51873811689E+02  0.00000000000E+00 0. -1.
         11    1    4    4    0    0 -0.44850692887E+02  0.52605994873E+02 -0.28183782076E+02  0.74654543875E+02  0.00000000000E+00 0.  1.
</event>
<event>
 7    1  0.7232317E-009  0.1223300E+03  0.7561462E-02  0.1239302E+00
         -4   -1    0    0    0  501 -0.00000000000E+00  0.00000000000E+00  0.43668169977E+02  0.43668169977E+02  0.00000000000E+00 0.  1.
          4   -1    0    0  501    0  0.00000000000E+00 -0.00000000000E+00 -0.63867431719E+03  0.63867431719E+03  0.00000000000E+00 0. -1.
         23    2    1    2    0    0  0.94827034408E+02  0.17065086144E+02 -0.11145808303E+03  0.17361146019E+03  0.91840357230E+02 0.  0.
          5    1    1    2  502    0 -0.15995683632E+02  0.44871361348E+02 -0.82844217686E+02  0.95655307057E+02  0.41800000000E+01 0. -1.
         -5    1    1    2    0  502 -0.78831350775E+02 -0.61936447492E+02 -0.40070384650E+03  0.41307571993E+03  0.41800000000E+01 0. -1.
        -11    1    3    3    0    0  0.38774967363E+02  0.42943198677E+01 -0.10933196374E+03  0.11608366626E+03  0.00000000000E+00 0. -1.
         11    1    3    3    0    0  0.56052067045E+02  0.12770766276E+02 -0.21261192932E+01  0.57527793931E+02  0.00000000000E+00 0.  1.
</event>
<event>
 8    1  0.7232317E-009  0.1862094E+03  0.7561462E-02  0.1161925E+00
          1   -1    0    0  501    0  0.00000000000E+00  0.00000000000E+00  0.57276435288E+03  0.57276435288E+03  0.00000000000E+00 0. -1.
         -1   -1    0    0    0  501 -0.00000000000E+00 -0.00000000000E+00 -0.66333467265E+02  0.66333467265E+02  0.00000000000E+00 0.  1.
         25    2    1    2    0    0 -0.81973404259E+02  0.14045083469E+03  0.27364600503E+03  0.34202077772E+03  0.12509996143E+03 0.  0.
         23    2    1    2    0    0  0.81973404259E+02 -0.14045083469E+03  0.23278488059E+03  0.29707704243E+03  0.87291995855E+02 0.  0.
          5    1    3    3  502    0 -0.99377803059E+02  0.61105148031E+02  0.11568805698E+03  0.16435019253E+03  0.41800000000E+01 0.  1.
         -5    1    3    3    0  502  0.17404398799E+02  0.79345686655E+02  0.15795794805E+03  0.17767058519E+03  0.41800000000E+01 0.  1.
        -11    1    4    4    0    0  0.33499357877E+02 -0.11462275467E+03  0.10912532063E+03  0.16176810090E+03  0.00000000000E+00 0.  1.
         11    1    4    4    0    0  0.48474046382E+02 -0.25828080019E+02  0.12365955996E+03  0.13530894153E+03  0.00000000000E+00 0. -1.
</event>
<event>
 7    1  0.7232317E-009  0.1169213E+03  0.7561462E-02  0.1248264E+00
         -1   -1    0    0    0  501 -0.00000000000E+00  0.00000000000E+00  0.57566556568E+02  0.57566556568E+02  0.00000000000E+00 0.  1.
          1   -1    0    0  501    0  0.00000000000E+00 -0.00000000000E+00 -0.46341425929E+03  0.46341425929E+03  0.00000000000E+00 0. -1.
         23    2    1    2    0    0 -0.11551002322E+03  0.86462551909E+01 -0.24669630995E+03  0.28779092453E+03  0.92451196365E+02 0.  0.
          5    1    1    2  502    0  0.93731214442E+02 -0.81888713568E+01 -0.17974396304E+03  0.20292353935E+03  0.41800000000E+01 0. -1.
         -5    1    1    2    0  502  0.21778808774E+02 -0.45738383404E+00  0.20592570264E+02  0.30266351972E+02  0.41800000000E+01 0. -1.
        -11    1    3    3    0    0 -0.91219406800E+02  0.14825279922E+02 -0.24592335979E+03  0.26271480353E+03  0.00000000000E+00 0. -1.
         11    1    3    3    0    0 -0.24290616416E+02 -0.61790247315E+01 -0.77295015212E+00  0.25076121001E+02  0.00000000000E+00 0.  1.
</event>
<event>
 8    1  0.7232317E-009  0.1696692E+03  0.7561462E-02  0.1178193E+00
          1   -1    0    0  501    0  0.00000000000E+00  0.00000000000E+00  0.12243618859E+03  0.12243618859E+03  0.00000000000E+00 0. -1.
         -1   -1    0    0    0  501 -0.00000000000E+00 -0.00000000000E+00 -0.32437278057E+03  0.32437278057E+03  0.00000000000E+00 0.  1.
         25    2    1    2    0    0 -0.14546202059E+03 -0.56233887393E+01 -0.16090167510E+02  0.19260822333E+03  0.12509281462E+03 0.  0.
         23    2    1    2    0    0  0.14546202059E+03  0.56233887393E+01 -0.18584642447E+03  0.25420074583E+03  0.94277800960E+02 0.  0.
          5    1    3    3  502    0 -0.16021691925E+02 -0.37613377130E+02  0.30638298287E+02  0.51260496224E+02  0.41800000000E+01 0. -1.
         -5    1    3    3    0  502 -0.12944032867E+03  0.31989988391E+02 -0.46728465797E+02  0.14134772711E+03  0.41800000000E+01 0. -1.
        -11    1    4    4    0    0  0.19596202847E+02  0.30777702436E+02 -0.12629294029E+02  0.38610584053E+02  0.00000000000E+00 0. -1.
         11    1    4    4    0    0  0.12586581775E+03 -0.25154313697E+02 -0.17321713045E+03  0.21559016178E+03  0.00000000000E+00 0.  1.
</event>
<event>
 8    1  0.7232317E-009  0.1940820E+03  0.7561462E-02  0.1154830E+00
          2   -1    0    0  501    0  0.00000000000E+00  0.00000000000E+00  0.67108912795E+03  0.67108912795E+03  0.00000000000E+00 0. -1.
         -2   -1    0    0    0  501 -0.00000000000E+00 -0.00000000000E+00 -0.82216274557E+02  0.82216274557E+02  0.00000000000E+00 0.  1.
         25    2    1    2    0    0  0.10519669292E+02  0.17380972438E+03  0.48710936932E+03  0.53220565865E+03  0.12508733626E+03 0.  0.
         23    2    1    2    0    0 -0.10519669292E+02 -0.17380972438E+03  0.10176348408E+03  0.22109974386E+03  0.90602463053E+02 0.  0.
          5    1    3    3  502    0  0.62471286081E+02  0.55654813442E+02  0.16177364316E+03  0.18217657332E+03  0.41800000000E+01 0.  1.
         -5    1    3    3    0  502 -0.51951616789E+02  0.11815491094E+03  0.32533572616E+03  0.35002908534E+03  0.41800000000E+01 0.  1.
        -11    1    4    4    0    0  0.57804735726E+01 -0.32884190580E+02  0.67271931757E+02  0.75101908545E+02  0.00000000000E+00 0.  1.
         11    1    4    4    0    0 -0.16300142865E+02 -0.14092553380E+03  0.34491552320E+02  0.14599783531E+03  0.00000000000E+00 0. -1.
</event>
<event>
 8    1  0.7232317E-009  0.1119395E+03  0.7561462E-02  0.1257020E+00
         -2   -1    0    0    0  501 -0.00000000000E+00  0.00000000000E+00  0.31632639568E+02  0.31632639568E+02  0.00000000000E+00 0.  1.
          2   -1    0    0  501    0  0.00000000000E+00 -0.00000000000E+00 -0.45303588153E+03  0.45303588153E+03  0.00000000000E+00 0. -1.
         25    2    1    2    0    0 -0.32431465658E+02  0.44715494578E+01 -0.15522939067E+03  0.20202645309E+03  0.12508688701E+03 0.  0.
         23    2    1    2    0    0  0.32431465658E+02 -0.44715494578E+01 -0.26617385129E+03  0.28264206801E+03  0.89253710163E+02 0.  0.
          5    1    3    3  502    0 -0.60830333390E+02  0.47503420901E+02 -0.99427208819E+02  0.12593707441E+03  0.41800000000E+01 0. -1.
         -5    1    3    3    0  502  0.28398867732E+02 -0.43031871443E+02 -0.55802181856E+02  0.76089378682E+02  0.41800000000E+01 0. -1.
        -11    1    4    4    0    0 -0.31023429817E+02  0.19129052036E+01 -0.78587566147E+02  0.84511052276E+02  0.00000000000E+00 0. -1.
         11    1    4    4    0    0  0.63454895475E+02 -0.63844546613E+01 -0.18758628514E+03  0.19813101573E+03  0.00000000000E+00 0.  1.
</event>
<event>
 8    1  0.7232317E-009  0.1169115E+03  0.7561462E-02  0.1248281E+00
         -2   -1    0    0    0  501 -0.00000000000E+00  0.00000000000E+00  0.24737018257E+02  0.24737018257E+02  0.00000000000E+00 0.  1.
          2   -1    0    0  501    0  0.00000000000E+00 -0.00000000000E+00 -0.57398726570E+03  0.57398726570E+03  0.00000000000E+00 0. -1.
         25    2    1    2    0    0  0.39304272682E+02  0.31689918213E+02 -0.32565172996E+03  0.35248320454E+03  0.12508510498E+03 0.  0.
         23    2    1    2    0    0 -0.39304272682E+02 -0.31689918213E+02 -0.22359851748E+03  0.24624107941E+03  0.89940510368E+02 0.  0.
          5    1    3    3  502    0  0.64516309970E+02  0.65532499113E+02 -0.20955339603E+03  0.22888198025E+03  0.41800000000E+01 0. -1.
         -5    1    3    3    0  502 -0.25212037288E+02 -0.33842580900E+02 -0.11609833393E+03  0.12360122430E+03  0.41800000000E+01 0. -1.
        -11    1    4    4    0    0 -0.85010008510E+00 -0.54593838371E+02 -0.15496693112E+03  0.16430447224E+03  0.00000000000E+00 0.  1.
         11    1    4    4    0    0 -0.38454172597E+02  0.22903920158E+02 -0.68631586356E+02  0.81936607170E+02  0.00000000000E+00 0. -1.
</event>
<event>
 8    1  0.7232317E-009  0.9412362E+02  0.7561462E-02  0.1293162E+00
          1   -1    0    0  501    0  0.00000000000E+00  0.00000000000E+00  0.64700650752E+03  0.64700650752E+03  0.00000000000E+00 0.  1.
         -1   -1    0    0    0  501 -0.00000000000E+00 -0.00000000000E+00 -0.31257795799E+02  0.31257795799E+02  0.00000000000E+00 0. -1.
         25    2    1    2    0    0  0.30635283245E+02  0.54092881156E+02  0.49498041224E+03  0.51431124279E+03  0.12508351447E+03 0.  0.
         23    2    1    2    0    0 -0.30635283245E+02 -0.54092881156E+02  0.12076829948E+03  0.16395306053E+03  0.91820822936E+02 0.  0.
          5    1    3    3  502    0  0.16055950707E+02 -0.25776831989E+02  0.32254092618E+02  0.44497612420E+02  0.41800000000E+01 0.  1.
         -5    1    3    3    0  502  0.14579332539E+02  0.79869713145E+02  0.46272631962E+03  0.46981363037E+03  0.41800000000E+01 0.  1.
        -11    1    4    4    0    0  0.12902180552E+01 -0.42210910546E+02  0.12276911428E+03  0.12982943061E+03  0.00000000000E+00 0.  1.
         11    1    4    4    0    0 -0.31925501301E+02 -0.11881970610E+02 -0.20008147948E+01  0.34123629917E+02  0.00000000000E+00 0. -1.
</event>
<event>
 8    1  0.7232317E-009  0.1048747E+03  0.7561462E-02  0.1270367E+00
         -1   -1    0    0    0  501 -0.00000000000E+00  0.00000000000E+00  0.30018376372E+02  0.30018376372E+02  0.00000000000E+00 0.  1.
          1   -1    0    0  501    0  0.00000000000E+00 -0.00000000000E+00 -0.47308835077E+03  0.47308835077E+03  0.00000000000E+00 0. -1.
         25    2    1    2    0    0 -0.36644457110E+02  0.26769435075E+02 -0.29613531122E+03  0.32466650491E+03  0.12511114246E+03 0.  0.
         23    2    1    2    0    0  0.36644457110E+02 -0.26769435075E+02 -0.14693466318E+03  0.17844022223E+03  0.90508003935E+02 0.  0.
          5    1    3    3  502    0  0.33256959820E+02  0.17740767972E+02 -0.20949548217E+03  0.21290042196E+03  0.41800000000E+01 0.  1.
         -5    1    3    3    0  502 -0.69901416930E+02  0.90286671027E+01 -0.86639829056E+02  0.11176608295E+03  0.41800000000E+01 0.  1.
        -11    1    4    4    0    0  0.20435032144E+02  0.33262103554E+02 -0.54619339042E+02  0.67135908938E+02  0.00000000000E+00 0. -1.
         11    1    4    4    0    0  0.16209424966E+02 -0.60031538628E+02 -0.92315324137E+02  0.11130431330E+03  0.00000000000E+00 0.  1.
</event>
<event>
 8    1  0.7232317E-009  0.1108804E+03  0.7561462E-02  0.1258948E+00
         -2   -1    0    0    0  501 -0.00000000000E+00  0.00000000000E+00  0.58095951105E+03  0.58095951105E+03  0.00000000000E+00 0.  1.
          2   -1    0    0  501    0  0.00000000000E+00 -0.00000000000E+00 -0.28672467557E+02  0.28672467557E+02  0.00000000000E+00 0. -1.
         25    2    1    2    0    0  0.44997077923E+02 -0.50102422625E+02  0.27895166467E+03  0.31304359591E+03  0.12508905605E+03 0.  0.
         23    2    1    2    0    0 -0.44997077923E+02  0.50102422625E+02  0.27333537883E+03  0.29658838270E+03  0.93367283677E+02 0.  0.
          5    1    3    3  502    0 -0.34493675419E+02  0.14881926521E+02  0.96600673791E+02  0.10373257906E+03  0.41800000000E+01 0. -1.
         -5    1    3    3    0  502  0.79490753342E+02 -0.64984349146E+02  0.18235099088E+03  0.20931101685E+03  0.41800000000E+01 0. -1.
        -11    1    4    4    0    0 -0.14825229184E+02  0.48801916880E+02  0.25747281726E+03  0.26247602965E+03  0.00000000000E+00 0.  1.
         11    1    4    4    0    0 -0.30171848739E+02  0.13005057455E+01  0.15862561567E+02  0.34112353055E+02  0.00000000000E+00 0. -1.
</event>
<event>
 8    1  0.7232317E-009  0.9657487E+02  0.7561462E-02  0.1287668E+00
          4   -1    0    0  501    0  0.00000000000E+00  0.00000000000E+00  0.13581536093E+03  0.13581536093E+03  0.00000000000E+00 0. -1.
         -4   -1    0    0    0  501 -0.00000000000E+00 -0.00000000000E+00 -0.14213664264E+03  0.14213664264E+03  0.00000000000E+00 0.  1.
         25    2    1    2    0    0  0.59980234842E+02 -0.24985843252E+02 -0.59960970785E+02  0.15323054142E+03  0.12514935027E+03 0.  0.
         23    2    1    2    0    0 -0.59980234842E+02  0.24985843252E+02  0.53639689069E+02  0.12472146215E+03  0.91958174966E+02 0.  0.
          5    1    3    3  502    0  0.38917040227E+02 -0.43457919728E+02 -0.92906273772E+02  0.10978239801E+03  0.41800000000E+01 0. -1.
         -5    1    3    3    0  502  0.21063194615E+02  0.18472076476E+02  0.32945302987E+02  0.43448143409E+02  0.41800000000E+01 0. -1.
        -11    1    4    4    0    0 -0.13415823578E+02  0.51181769235E+02  0.62011830384E+01  0.53272999684E+02  0.00000000000E+00 0. -1.
         11    1    4    4    0    0 -0.46564411264E+02 -0.26195925983E+02  0.47438506031E+02  0.71448462467E+02  0.00000000000E+00 0.  1.
</event>
<event>
 8    1  0.7232317E-009  0.1928321E+03  0.7561462E-02  0.1155931E+00
         -2   -1    0    0    0  501 -0.00000000000E+00  0.00000000000E+00  0.10121216014E+04  0.10121216014E+04  0.00000000000E+00 0. -1.
          2   -1    0    0  501    0  0.00000000000E+00 -0.00000000000E+00 -0.47010095515E+02  0.47010095515E+02  0.00000000000E+00 0.  1.
         25    2    1    2    0    0  0.16660516628E+03 -0.69139286314E+02  0.36558277732E+03  0.42642304105E+03  0.12509324733E+03 0.  0.
         23    2    1    2    0    0 -0.16660516628E+03  0.69139286314E+02  0.59952872858E+03  0.63270865588E+03  0.91367524241E+02 0.  0.
          5    1    3    3  502    0  0.37959283563E+02 -0.38177756349E+02  0.23257435035E+03  0.23876086180E+03  0.41800000000E+01 0.  1.
         -5    1    3    3    0  502  0.12864588271E+03 -0.30961529965E+02  0.13300842697E+03  0.18766217925E+03  0.41800000000E+01 0.  1.
        -11    1    4    4    0    0 -0.12612627500E+03  0.85539206524E+01  0.32633479619E+03  0.34996486396E+03  0.00000000000E+00 0.  1.
         11    1    4    4    0    0 -0.40478891278E+02  0.60585365661E+02  0.27319393239E+03  0.28274379192E+03  0.00000000000E+00 0. -1.
</event>
<event>
 8    1  0.7232317E-009  0.1643599E+03  0.7561462E-02  0.1183861E+00
         -2   -1    0    0    0  501 -0.00000000000E+00  0.00000000000E+00  0.33471212573E+03  0.33471212573E+03  0.00000000000E+00 0.  1.
          2   -1    0    0  501    0  0.00000000000E+00 -0.00000000000E+00 -0.90831289683E+02  0.90831289683E+02  0.00000000000E+00 0. -1.
         25    2    1    2    0    0 -0.92760996684E+02  0.95166375967E+02  0.18061451021E+03  0.25677021201E+03  0.12509236129E+03 0.  0.
         23    2    1    2    0    0  0.92760996684E+02 -0.95166375967E+02  0.63266325828E+02  0.16877320340E+03  0.82586467310E+02 0.  0.
          5    1    3    3  502    0 -0.10332184519E+03  0.20024708991E+02  0.11914831320E+03  0.15902888291E+03  0.41800000000E+01 0.  1.
         -5    1    3    3    0  502  0.10560848502E+02  0.75141666976E+02  0.61466197018E+02  0.97741329093E+02  0.41800000000E+01 0.  1.
        -11    1    4    4    0    0  0.84703606752E+02 -0.43715528227E+02  0.12658650913E+02  0.96156070260E+02  0.00000000000E+00 0. -1.
         11    1    4    4    0    0  0.80573899320E+01 -0.51450847740E+02  0.50607674915E+02  0.72617133143E+02  0.00000000000E+00 0.  1.
</event>
<event>
 8    1  0.7232317E-009  0.2515637E+03  0.7561462E-02  0.1112321E+00
         -1   -1    0    0    0  501 -0.00000000000E+00  0.00000000000E+00  0.89379501637E+02  0.89379501637E+02  0.00000000000E+00 0.  1.
          1   -1    0    0  501    0  0.00000000000E+00 -0.00000000000E+00 -0.79261670753E+03  0.79261670753E+03  0.00000000000E+00 0. -1.
         25    2    1    2    0    0  0.18017948388E+03  0.15145177996E+03 -0.46259266661E+03  0.53389246720E+03  0.12508758240E+03 0.  0.
         23    2    1    2    0    0 -0.18017948388E+03 -0.15145177996E+03 -0.24064453928E+03  0.34810374196E+03  0.88679945992E+02 0.  0.
          5    1    3    3  502    0  0.72825951832E+02 -0.84390476736E+01 -0.14245540981E+03  0.16026806597E+03  0.41800000000E+01 0. -1.
         -5    1    3    3    0  502  0.10735353204E+03  0.15989082763E+03 -0.32013725680E+03  0.37362440123E+03  0.41800000000E+01 0. -1.
        -11    1    4    4    0    0 -0.67215193231E+02 -0.39204528070E+02 -0.13864760465E+03  0.15899067739E+03  0.00000000000E+00 0. -1.
         11    1    4    4    0    0 -0.11296429064E+03 -0.11224725189E+03 -0.10199693463E+03  0.18911306457E+03  0.00000000000E+00 0.  1.
</event>
<event>
 8    1  0.7232317E-009  0.1218768E+03  0.7561462E-02  0.1240033E+00
          2   -1    0    0  501    0  0.00000000000E+00  0.00000000000E+00  0.95489267712E+03  0.95489267712E+03  0.00000000000E+00 0. -1.
         -2   -1    0    0    0  501 -0.00000000000E+00 -0.00000000000E+00 -0.17022028504E+02  0.17022028504E+02  0.00000000000E+00 0.  1.
         25    2    1    2    0    0  0.62085859490E+02  0.16974992057E+02  0.54364058660E+03  0.56154782018E+03  0.12509221654E+03 0.  0.
         23    2    1    2    0    0 -0.62085859490E+02 -0.16974992057E+02  0.39423006201E+03  0.41036688544E+03  0.94025712294E+02 0.  0.
          5    1    3    3  502    0 -0.20067970767E+01 -0.48580788771E+02  0.17866188368E+03  0.18520707695E+03  0.41800000000E+01 0.  1.
         -5    1    3    3    0  502  0.64092656567E+02  0.65555780829E+02  0.36497870292E+03  0.37634074323E+03  0.41800000000E+01 0.  1.
        -11    1    4    4    0    0  0.18125274209E+02 -0.14011800776E+02  0.32031263422E+02  0.39380933998E+02  0.00000000000E+00 0.  1.
         11    1    4    4    0    0 -0.80211133699E+02 -0.29631912818E+01  0.36219879859E+03  0.37098595144E+03  0.00000000000E+00 0. -1.
</event>
<event>
 8    1  0.7232317E-009  0.9744928E+02  0.7561462E-02  0.1285753E+00
         -3   -1    0    0    0  501 -0.00000000000E+00  0.00000000000E+00  0.34146397045E+03  0.34146397045E+03  0.00000000000E+00 0.  1.
          3   -1    0    0  501    0  0.00000000000E+00 -0.00000000000E+00 -0.40933186726E+02  0.40933186726E+02  0.00000000000E+00 0. -1.
         25    2    1    2    0    0  0.44226617912E+02  0.34796329270E+01  0.14427662762E+03  0.19603945384E+03  0.12509044970E+03 0.  0.
         23    2    1    2    0    0 -0.44226617912E+02 -0.34796329270E+01  0.15625415610E+03  0.18635770333E+03  0.91354970942E+02 0.  0.
          5    1    3    3  502    0  0.75688762036E+02  0.36881055667E+02  0.11012568552E+03  0.13868720192E+03  0.41800000000E+01 0. -1.
         -5    1    3    3    0  502 -0.31462144124E+02 -0.33401422740E+02  0.34150942109E+02  0.57352251925E+02  0.41800000000E+01 0. -1.
        -11    1    4    4    0    0 -0.32181015779E+02 -0.24397925557E+02  0.15709676844E+03  0.16220441178E+03  0.00000000000E+00 0.  1.
         11    1    4    4    0    0 -0.12045602133E+02  0.20918292630E+02 -0.84261233508E+00  0.24153291553E+02  0.00000000000E+00 0. -1.
</event>
<event>
 8    1  0.7232317E-009  0.1130340E+03  0.7561462E-02  0.1255052E+00
         -2   -1    0    0    0  501 -0.00000000000E+00  0.00000000000E+00  0.43795022016E+03  0.43795022016E+03  0.00000000000E+00 0. -1.
          2   -1    0    0  501    0  0.00000000000E+00 -0.00000000000E+00 -0.45109327612E+02  0.45109327612E+02  0.00000000000E+00 0.  1.
         25    2    1    2    0    0 -0.19993221573E+02 -0.74766622979E+02  0.29092020970E+03  0.32599362105E+03  0.12508995057E+03 0.  0.
         23    2    1    2    0    0  0.19993221573E+02  0.74766622979E+02  0.10192068284E+03  0.15706592672E+03  0.91060984637E+02 0.  0.
          5    1    3    3  502    0  0.50536937174E+02 -0.18294879056E+02  0.79675961778E+02  0.96199874760E+02  0.41800000000E+01 0. -1.
         -5    1    3    3    0  502 -0.70530158747E+02 -0.56471743923E+02  0.21124424792E+03  0.22979374629E+03  0.41800000000E+01 0. -1.
        -11    1    4    4    0    0  0.29241438964E+01  0.56991735535E+02  0.11557245708E+03  0.12889376002E+03  0.00000000000E+00 0. -1.
         11    1    4    4    0    0  0.17069077677E+02  0.17774887444E+02 -0.13651774237E+02  0.28172166693E+02  0.00000000000E+00 0.  1.
</event>
<event>
 8    1  0.7232317E-009  0.1315622E+03  0.7561462E-02  0.1225156E+00
          1   -1    0    0  501    0  0.00000000000E+00  0.00000000000E+00  0.26583794780E+04  0.26583794780E+04  0.00000000000E+00 0. -1.
         -1   -1    0    0    0  501 -0.00000000000E+00 -0.00000000000E+00 -0.92894627232E+01  0.92894627232E+01  0.00000000000E+00 0.  1.
         25    2    1    2    0    0 -0.82216729406E+01  0.95936708495E+02  0.19286121343E+04  0.19350616029E+04  0.12508874637E+03 0.  0.
         23    2    1    2    0    0  0.82216729406E+01 -0.95936708495E+02  0.72047788094E+03  0.73260733779E+03  0.91398503959E+02 0.  0.
          5    1    3    3  502    0 -0.25678894045E+02 -0.62151188163E+01  0.10016278849E+03  0.10367299503E+03  0.41800000000E+01 0.  1.
         -5    1    3    3    0  502  0.17457221105E+02  0.10215182731E+03  0.18284493458E+04  0.18313886079E+04  0.41800000000E+01 0.  1.
        -11    1    4    4    0    0 -0.41641392376E+02 -0.47001938152E+02  0.32679443387E+03  0.33277288014E+03  0.00000000000E+00 0. -1.
         11    1    4    4    0    0  0.49863065316E+02 -0.48934770343E+02  0.39368344707E+03  0.39983445765E+03  0.00000000000E+00 0.  1.
</event>
<event>
 8    1  0.7232317E-009  0.1390929E+03  0.7561462E-02  0.1214555E+00
          2   -1    0    0  501    0  0.00000000000E+00  0.00000000000E+00  0.79768140510E+03  0.79768140510E+03  0.00000000000E+00 0. -1.
         -2   -1    0    0    0  501 -0.00000000000E+00 -0.00000000000E+00 -0.42525775492E+02  0.42525775492E+02  0.00000000000E+00 0.  1.
         25    2    1    2    0    0 -0.84702900289E+02 -0.49811978017E+02  0.65453309287E+03  0.67358570479E+03  0.12509323551E+03 0.  0.
         23    2    1    2    0    0  0.84702900289E+02  0.49811978017E+02  0.10062253674E+03  0.16662147580E+03  0.89342077579E+02 0.  0.
          5    1    3    3  502    0  0.24803459405E+02  0.16091930901E+02  0.16161146948E+03  0.16434689321E+03  0.41800000000E+01 0.  1.
         -5    1    3    3    0  502 -0.10950635969E+03 -0.65903908918E+02  0.49292162339E+03  0.50923881159E+03  0.41800000000E+01 0.  1.
        -11    1    4    4    0    0  0.89130307516E+02  0.61274552853E+02  0.58965160653E+02  0.12318958039E+03  0.00000000000E+00 0.  1.
         11    1    4    4    0    0 -0.44274072273E+01 -0.11462574836E+02  0.41657376085E+02  0.43431895410E+02  0.00000000000E+00 0. -1.
</event>
<event>
 8    1  0.7232317E-009  0.8550744E+02  0.7561462E-02  0.1314111E+00
         -2   -1    0    0    0  501 -0.00000000000E+00  0.00000000000E+00  0.63430289644E+02  0.63430289644E+02  0.00000000000E+00 0.  1.
          2   -1    0    0  501    0  0.00000000000E+00 -0.00000000000E+00 -0.21811548523E+03  0.21811548523E+03  0.00000000000E+00 0. -1.
         25    2    1    2    0    0 -0.42459883481E+02 -0.18238897010E+01 -0.91901554216E+02  0.16093278842E+03  0.12508916198E+03 0.  0.
         23    2    1    2    0    0  0.42459883481E+02  0.18238897010E+01 -0.62783641372E+02  0.12061298645E+03  0.93805855882E+02 0.  0.
          5    1    3    3  502    0 -0.41035437968E+02 -0.32451433545E+02 -0.11223910512E+03  0.12390355857E+03  0.41800000000E+01 0. -1.
         -5    1    3    3    0  502 -0.14244455127E+01  0.30627543844E+02  0.20337550902E+02  0.37029229855E+02  0.41800000000E+01 0. -1.
        -11    1    4    4    0    0  0.24726390640E+02  0.39126208926E+02 -0.10003266636E+01  0.46295305080E+02  0.00000000000E+00 0.  1.
         11    1    4    4    0    0  0.17733492841E+02 -0.37302319225E+02 -0.61783314708E+02  0.74317681370E+02  0.00000000000E+00 0. -1.
</event>
<event>
 8    1  0.7232317E-009  0.1334488E+03  0.7561462E-02  0.1222426E+00
          1   -1    0    0  501    0  0.00000000000E+00  0.00000000000E+00  0.29752899120E+03  0.29752899120E+03  0.00000000000E+00 0. -1.
         -1   -1    0    0    0  501 -0.00000000000E+00 -0.00000000000E+00 -0.68105506645E+02  0.68105506645E+02  0.00000000000E+00 0.  1.
         25    2    1    2    0    0  0.42287507557E+02 -0.81779092559E+02  0.12310740444E+03  0.19819447799E+03  0.12509822062E+03 0.  0.
         23    2    1    2    0    0 -0.42287507557E+02  0.81779092559E+02  0.10631608012E+03  0.16744001986E+03  0.90868025640E+02 0.  0.
          5    1    3    3  502    0 -0.26803662507E+02 -0.76056121971E+02  0.40712312493E+02  0.90431934634E+02  0.41800000000E+01 0.  1.
         -5    1    3    3    0  502  0.69091170064E+02 -0.57229705881E+01  0.82395091949E+02  0.10776254336E+03  0.41800000000E+01 0.  1.
        -11    1    4    4    0    0 -0.57022080935E+02  0.33316774794E+02  0.22995275649E+02  0.69930736439E+02  0.00000000000E+00 0.  1.
         11    1    4    4    0    0  0.14734573378E+02  0.48462317765E+02  0.83320804468E+02  0.97509283419E+02  0.00000000000E+00 0. -1.
</event>
<event>
 8    1  0.7232317E-009  0.2436303E+03  0.7561462E-02  0.1117398E+00
          2   -1    0    0  501    0  0.00000000000E+00  0.00000000000E+00  0.20239442335E+03  0.20239442335E+03  0.00000000000E+00 0. -1.
         -2   -1    0    0    0  501 -0.00000000000E+00 -0.00000000000E+00 -0.30830458771E+03  0.30830458771E+03  0.00000000000E+00 0.  1.
         25    2    1    2    0    0 -0.16854574001E+03 -0.14166387702E+03 -0.98712773753E+01  0.25341418797E+03  0.12507992653E+03 0.  0.
         23    2    1    2    0    0  0.16854574001E+03  0.14166387702E+03 -0.96038886993E+02  0.25728482309E+03  0.92172077400E+02 0.  0.
          5    1    3    3  502    0 -0.26432486386E+02  0.22700723420E+02  0.56202937401E+01  0.35539545327E+02  0.41800000000E+01 0. -1.
         -5    1    3    3    0  502 -0.14211325362E+03 -0.16436460044E+03 -0.15491571115E+02  0.21787464264E+03  0.41800000000E+01 0. -1.
        -11    1    4    4    0    0  0.15920334432E+03  0.91100280184E+02 -0.93304235913E+02  0.20579272663E+03  0.00000000000E+00 0.  1.
         11    1    4    4    0    0  0.93423956838E+01  0.50563596832E+02 -0.27346510799E+01  0.51492096463E+02  0.00000000000E+00 0. -1.
</event>
<event>
 8    1  0.7232317E-009  0.1166760E+03  0.7561462E-02  0.1248684E+00
         -2   -1    0    0    0  501 -0.00000000000E+00  0.00000000000E+00  0.34761708874E+02  0.34761708874E+02  0.00000000000E+00 0.  1.
          2   -1    0    0  501    0  0.00000000000E+00 -0.00000000000E+00 -0.50508047866E+03  0.50508047866E+03  0.00000000000E+00 0. -1.
         25    2    1    2    0    0  0.53529663566E+00  0.73326041579E+02 -0.21928151571E+03  0.26288768060E+03  0.12509418278E+03 0.  0.
         23    2    1    2    0    0 -0.53529663566E+00 -0.73326041579E+02 -0.25103725408E+03  0.27695450693E+03  0.91143299582E+02 0.  0.
          5    1    3    3  502    0  0.44349134705E+02  0.71108641368E+02 -0.19564683276E+03  0.21288128193E+03  0.41800000000E+01 0.  1.
         -5    1    3    3    0  502 -0.43813838070E+02  0.22174002106E+01 -0.23634682944E+02  0.50006398670E+02  0.41800000000E+01 0.  1.
        -11    1    4    4    0    0  0.10662285074E+02 -0.87027954195E+02 -0.14497616951E+03  0.16942738522E+03  0.00000000000E+00 0.  1.
         11    1    4    4    0    0 -0.11197581710E+02  0.13701912617E+02 -0.10606108456E+03  0.10752712171E+03  0.00000000000E+00 0. -1.
</event>
<event>
 8    1  0.7232317E-009  0.7374233E+02  0.7561462E-02  0.1347810E+00
          2   -1    0    0  501    0  0.00000000000E+00  0.00000000000E+00  0.30035996885E+02  0.30035996885E+02  0.00000000000E+00 0. -1.
         -2   -1    0    0    0  501 -0.00000000000E+00 -0.00000000000E+00 -0.40658755034E+03  0.40658755034E+03  0.00000000000E+00 0.  1.
         25    2    1    2    0    0  0.58543062469E+01 -0.53477778730E+01 -0.26108062097E+03  0.28960877335E+03  0.12508908555E+03 0.  0.
         23    2    1    2    0    0 -0.58543062469E+01  0.53477778730E+01 -0.11547093248E+03  0.14701477387E+03  0.90647315784E+02 0.  0.
          5    1    3    3  502    0 -0.10043905941E+01  0.34055115448E+02 -0.10605954104E+02  0.35926568875E+02  0.41800000000E+01 0. -1.
         -5    1    3    3    0  502  0.68586968410E+01 -0.39402893321E+02 -0.25047466687E+03  0.25368220448E+03  0.41800000000E+01 0. -1.
        -11    1    4    4    0    0 -0.32247273835E+02  0.24363596823E+02 -0.17971286942E+02  0.44231647881E+02  0.00000000000E+00 0. -1.
         11    1    4    4    0    0  0.26392967588E+02 -0.19015818950E+02 -0.97499645535E+02  0.10278312599E+03  0.00000000000E+00 0.  1.
</event>
<event>
 8    1  0.7232317E-009  0.1043351E+03  0.7561462E-02  0.1271435E+00
          2   -1    0    0  501    0  0.00000000000E+00  0.00000000000E+00  0.11091513406E+04  0.11091513406E+04  0.00000000000E+00 0. -1.
         -2   -1    0    0    0  501 -0.00000000000E+00 -0.00000000000E+00 -0.18458467469E+02  0.18458467469E+02  0.00000000000E+00 0.  1.
         25    2    1    2    0    0 -0.25264671538E+02  0.38181628502E+02  0.91220626727E+03  0.92188065355E+03  0.12509006738E+03 0.  0.
         23    2    1    2    0    0  0.25264671538E+02 -0.38181628502E+02  0.17848660584E+03  0.20572915450E+03  0.91492492395E+02 0.  0.
          5    1    3    3  502    0 -0.55532032946E+02  0.52043191742E+02  0.32916475005E+03  0.33787454116E+03  0.41800000000E+01 0. -1.
         -5    1    3    3    0  502  0.30267361408E+02 -0.13861563240E+02  0.58304151722E+03  0.58400611239E+03  0.41800000000E+01 0. -1.
        -11    1    4    4    0    0  0.23392328418E+02 -0.66511320867E+02  0.10074552046E+03  0.12296591693E+03  0.00000000000E+00 0.  1.
         11    1    4    4    0    0  0.18723431201E+01  0.28329692365E+02  0.77741085380E+02  0.82763237577E+02  0.00000000000E+00 0. -1.
</event>
<event>
 8    1  0.7232317E-009  0.1468529E+03  0.7561462E-02  0.1204394E+00
          2   -1    0    0  501    0  0.00000000000E+00  0.00000000000E+00  0.55892388559E+02  0.55892388559E+02  0.00000000000E+00 0. -1.
         -2   -1    0    0    0  501 -0.00000000000E+00 -0.00000000000E+00 -0.49388115509E+03  0.49388115509E+03  0.00000000000E+00 0.  1.
         25    2    1    2    0    0  0.11775902818E+03 -0.29894408173E+02 -0.19028596192E+03  0.25810279774E+03  0.12508973795E+03 0.  0.
         23    2    1    2    0    0 -0.11775902818E+03  0.29894408173E+02 -0.24770280461E+03  0.29167074591E+03  0.94627058746E+02 0.  0.
          5    1    3    3  502    0  0.60562495744E+02  0.32759557054E+02 -0.14785785228E+03  0.16315765796E+03  0.41800000000E+01 0.  1.
         -5    1    3    3    0  502  0.57196532437E+02 -0.62653965227E+02 -0.42428109641E+02  0.94945139787E+02  0.41800000000E+01 0.  1.
        -11    1    4    4    0    0 -0.59520787037E+02  0.50451797547E+02 -0.19657310227E+03  0.21149253533E+03  0.00000000000E+00 0. -1.
         11    1    4    4    0    0 -0.58238241144E+02 -0.20557389374E+02 -0.51129702343E+02  0.80178210576E+02  0.00000000000E+00 0.  1.
</event>
<event>
 8    1  0.7232317E-009  0.1015346E+03  0.7561462E-02  0.1277102E+00
          1   -1    0    0  501    0  0.00000000000E+00  0.00000000000E+00  0.16823727113E+03  0.16823727113E+03  0.00000000000E+00 0. -1.
         -1   -1    0    0    0  501 -0.00000000000E+00 -0.00000000000E+00 -0.11747476826E+03  0.11747476826E+03  0.00000000000E+00 0.  1.
         25    2    1    2    0    0  0.13434056304E+02 -0.75619303811E+02 -0.18597419416E+02  0.14796005734E+03  0.12509021378E+03 0.  0.
         23    2    1    2    0    0 -0.13434056304E+02  0.75619303811E+02  0.69359922283E+02  0.13775198205E+03  0.90917857218E+02 0.  0.
          5    1    3    3  502    0  0.29350109279E+01 -0.92982060664E+02 -0.53482281087E+02  0.10738763749E+03  0.41800000000E+01 0. -1.
         -5    1    3    3    0  502  0.10499045376E+02  0.17362756853E+02  0.34884861671E+02  0.40572419858E+02  0.41800000000E+01 0. -1.
        -11    1    4    4    0    0  0.16326090694E+02  0.17488127792E+02  0.68373503383E+02  0.72438331123E+02  0.00000000000E+00 0. -1.
         11    1    4    4    0    0 -0.29760146998E+02  0.58131176019E+02  0.98641890001E+00  0.65313650924E+02  0.00000000000E+00 0.  1.
</event>
<event>
 8    1  0.7232317E-009  0.1054342E+03  0.7561462E-02  0.1269266E+00
          3   -1    0    0  501    0  0.00000000000E+00  0.00000000000E+00  0.33731089867E+03  0.33731089867E+03  0.00000000000E+00 0. -1.
         -3   -1    0    0    0  501 -0.00000000000E+00 -0.00000000000E+00 -0.58046353207E+02  0.58046353207E+02  0.00000000000E+00 0.  1.
         25    2    1    2    0    0  0.82752416663E+01  0.72250151603E+02  0.80679206601E+02  0.16566354305E+03  0.12508681420E+03 0.  0.
         23    2    1    2    0    0 -0.82752416663E+01 -0.72250151603E+02  0.19858533887E+03  0.22969370883E+03  0.89635367089E+02 0.  0.
          5    1    3    3  502    0  0.37058594217E+01  0.10461970223E+03  0.81439011707E+02  0.13269815566E+03  0.41800000000E+01 0.  1.
         -5    1    3    3    0  502  0.45693822446E+01 -0.32369550624E+02 -0.75980510618E+00  0.32965387386E+02  0.41800000000E+01 0.  1.
        -11    1    4    4    0    0  0.14658179955E+01 -0.14856182097E+02 -0.66641005632E+01  0.16348241655E+02  0.00000000000E+00 0.  1.
         11    1    4    4    0    0 -0.97410596618E+01 -0.57393969506E+02  0.20524943943E+03  0.21334546718E+03  0.00000000000E+00 0. -1.
</event>
<event>
 8    1  0.7232317E-009  0.1672018E+03  0.7561462E-02  0.1180798E+00
          1   -1    0    0  501    0  0.00000000000E+00  0.00000000000E+00  0.52963691609E+02  0.52963691609E+02  0.00000000000E+00 0. -1.
         -1   -1    0    0    0  501 -0.00000000000E+00 -0.00000000000E+00 -0.83191080467E+03  0.83191080467E+03  0.00000000000E+00 0.  1.
         25    2    1    2    0    0  0.24175686033E+02 -0.14750040392E+03 -0.61085899884E+03  0.64119952278E+03  0.12508908263E+03 0.  0.
         23    2    1    2    0    0 -0.24175686033E+02  0.14750040392E+03 -0.16808811422E+03  0.24367497350E+03  0.93717904463E+02 0.  0.
          5    1    3    3  502    0 -0.62760905706E+01 -0.12250412063E+03 -0.57437316966E+03  0.58734032665E+03  0.41800000000E+01 0. -1.
         -5    1    3    3    0  502  0.30451776604E+02 -0.24996283288E+02 -0.36485829184E+02  0.53859196130E+02  0.41800000000E+01 0. -1.
        -11    1    4    4    0    0  0.32193079102E+02  0.52483496744E+02 -0.87215350862E+02  0.10675874296E+03  0.00000000000E+00 0.  1.
         11    1    4    4    0    0 -0.56368765135E+02  0.95016907174E+02 -0.80872763353E+02  0.13691623054E+03  0.00000000000E+00 0. -1.
</event>
<event>
 8    1  0.7232317E-009  0.6684237E+02  0.7561462E-02  0.1371172E+00
         -1   -1    0    0    0  501 -0.00000000000E+00  0.00000000000E+00  0.30457383999E+02  0.30457383999E+02  0.00000000000E+00 0.  1.
          1   -1    0    0  501    0  0.00000000000E+00 -0.00000000000E+00 -0.84261716010E+03  0.84261716010E+03  0.00000000000E+00 0. -1.
         25    2    1    2    0    0 -0.37887510086E+02 -0.29624446908E+02 -0.72981234049E+03  0.74201540612E+03  0.12509092416E+03 0.  0.
         23    2    1    2    0    0  0.37887510086E+02  0.29624446908E+02 -0.82347435606E+02  0.13105913798E+03  0.89901758722E+02 0.  0.
          5    1    3    3  502    0 -0.33648830125E+02 -0.39129235027E+02 -0.10470358670E+03  0.11680605408E+03  0.41800000000E+01 0.  1.
         -5    1    3    3    0  502 -0.42386799609E+01  0.95047881185E+01 -0.62510875380E+03  0.62520935204E+03  0.41800000000E+01 0.  1.
        -11    1    4    4    0    0 -0.12075648683E+02 -0.95722872146E+00 -0.70194821630E+02  0.71232370181E+02  0.00000000000E+00 0. -1.
         11    1    4    4    0    0  0.49963158769E+02  0.30581675629E+02 -0.12152613976E+02  0.59826767796E+02  0.00000000000E+00 0.  1.
</event>
<event>
 8    1  0.7232317E-009  0.1293345E+03  0.7561462E-02  0.1228447E+00
         -1   -1    0    0    0  501 -0.00000000000E+00  0.00000000000E+00  0.44209744578E+02  0.44209744578E+02  0.00000000000E+00 0.  1.
          1   -1    0    0  501    0  0.00000000000E+00 -0.00000000000E+00 -0.56261537102E+03  0.56261537102E+03  0.00000000000E+00 0. -1.
         25    2    1    2    0    0  0.79630915267E+02  0.40505718047E+02 -0.40293714917E+03  0.43126274356E+03  0.12508961563E+03 0.  0.
         23    2    1    2    0    0 -0.79630915267E+02 -0.40505718047E+02 -0.11546847727E+03  0.17556237204E+03  0.97505801738E+02 0.  0.
          5    1    3    3  502    0 -0.27384205069E+02 -0.10674090222E+02 -0.42947195619E+02  0.52208858452E+02  0.41800000000E+01 0. -1.
         -5    1    3    3    0  502  0.10701512034E+03  0.51179808269E+02 -0.35998995355E+03  0.37905388511E+03  0.41800000000E+01 0. -1.
        -11    1    4    4    0    0 -0.16968273030E+02 -0.44369288199E+02 -0.40528491395E+01  0.47675796910E+02  0.00000000000E+00 0.  1.
         11    1    4    4    0    0 -0.62662642238E+02  0.38635701523E+01 -0.11141562813E+03  0.12788657513E+03  0.00000000000E+00 0. -1.
</event>
<event>
 8    1  0.7232317E-009  0.1771584E+03  0.7561462E-02  0.1170582E+00
          1   -1    0    0  501    0  0.00000000000E+00  0.00000000000E+00  0.58427167177E+02  0.58427167177E+02  0.00000000000E+00 0. -1.
         -1   -1    0    0    0  501 -0.00000000000E+00 -0.00000000000E+00 -0.73532117530E+03  0.73532117530E+03  0.00000000000E+00 0.  1.
         25    2    1    2    0    0 -0.11011550306E+03  0.12857449018E+03 -0.25893725635E+03  0.33369631882E+03  0.12509159414E+03 0.  0.
         23    2    1    2    0    0  0.11011550306E+03 -0.12857449018E+03 -0.41795675176E+03  0.46005202365E+03  0.91121866659E+02 0.  0.
          5    1    3    3  502    0 -0.13475004568E+02  0.23625806812E+02  0.99623232731E+01  0.29265590386E+02  0.41800000000E+01 0. -1.
         -5    1    3    3    0  502 -0.96640498495E+02  0.10494868337E+03 -0.26889957963E+03  0.30443072843E+03  0.41800000000E+01 0. -1.
        -11    1    4    4    0    0  0.91136135613E+01 -0.62986962715E+02 -0.86461581335E+02  0.10735930547E+03  0.00000000000E+00 0. -1.
         11    1    4    4    0    0  0.10100188950E+03 -0.65587527463E+02 -0.33149517043E+03  0.35269271818E+03  0.00000000000E+00 0.  1.
</event>
<event>
 8    1  0.7232317E-009  0.1069502E+03  0.7561462E-02  0.1266324E+00
          2   -1    0    0  501    0  0.00000000000E+00  0.00000000000E+00  0.88658903957E+02  0.88658903957E+02  0.00000000000E+00 0. -1.
         -2   -1    0    0    0  501 -0.00000000000E+00 -0.00000000000E+00 -0.14683847757E+03  0.14683847757E+03  0.00000000000E+00 0.  1.
         25    2    1    2    0    0  0.79172485411E+01 -0.19912457973E+02 -0.62723795903E+02  0.14155993458E+03  0.12508297926E+03 0.  0.
         23    2    1    2    0    0 -0.79172485411E+01  0.19912457973E+02  0.45442222856E+01  0.93937446948E+02  0.91347715767E+02 0.  0.
          5    1    3    3  502    0  0.36758447384E+02 -0.63714832004E+02 -0.29665217870E+02  0.79424560576E+02  0.41800000000E+01 0.  1.
         -5    1    3    3    0  502 -0.28841198843E+02  0.43802374031E+02 -0.33058578033E+02  0.62135374007E+02  0.41800000000E+01 0.  1.
        -11    1    4    4    0    0 -0.24274275676E+02  0.48749931501E+02 -0.13616787963E+02  0.56135667765E+02  0.00000000000E+00 0.  1.
         11    1    4    4    0    0  0.16357027135E+02 -0.28837473528E+02  0.18161010248E+02  0.37801779183E+02  0.00000000000E+00 0. -1.
</event>
<event>
 8    1  0.7232317E-009  0.1105766E+03  0.7561462E-02  0.1259506E+00
          3   -1    0    0  501    0  0.00000000000E+00  0.00000000000E+00  0.17979566886E+03  0.17979566886E+03  0.00000000000E+00 0. -1.
         -3   -1    0    0    0  501 -0.00000000000E+00 -0.00000000000E+00 -0.73070520384E+02  0.73070520384E+02  0.00000000000E+00 0.  1.
         25    2    1    2    0    0 -0.31350329362E+02  0.69925648846E+01  0.62964402453E+02  0.14367998461E+03  0.12509069864E+03 0.  0.
         23    2    1    2    0    0  0.31350329362E+02 -0.69925648846E+01  0.43760746025E+02  0.10918620463E+03  0.94735871107E+02 0.  0.
          5    1    3    3  502    0 -0.56696198858E+02  0.51953571322E+02  0.32409261272E+02  0.83555162344E+02  0.41800000000E+01 0. -1.
         -5    1    3    3    0  502  0.25345869496E+02 -0.44961006438E+02  0.30555141181E+02  0.60124822270E+02  0.41800000000E+01 0. -1.
        -11    1    4    4    0    0 -0.47489388565E+01 -0.41883960013E+02  0.41158073349E+02  0.58913542827E+02  0.00000000000E+00 0. -1.
         11    1    4    4    0    0  0.36099268218E+02  0.34891395128E+02  0.26026726765E+01  0.50272661805E+02  0.00000000000E+00 0.  1.
</event>
<event>
 8    1  0.7232317E-009  0.1083830E+03  0.7561462E-02  0.1263594E+00
          2   -1    0    0  501    0  0.00000000000E+00  0.00000000000E+00  0.21619682701E+03  0.21619682701E+03  0.00000000000E+00 0. -1.
         -2   -1    0    0    0  501 -0.00000000000E+00 -0.00000000000E+00 -0.17102135045E+03  0.17102135045E+03  0.00000000000E+00 0.  1.
         25    2    1    2    0    0  0.81201302641E+01 -0.70116603426E+02  0.16968830252E+03  0.22231568675E+03  0.12509144643E+03 0.  0.
         23    2    1    2    0    0 -0.81201302641E+01  0.70116603426E+02 -0.12451282596E+03  0.16490249072E+03  0.81896965914E+02 0.  0.
          5    1    3    3  502    0 -0.57446240291E+02 -0.27927646363E+02  0.92786274536E+02  0.11272439442E+03  0.41800000000E+01 0.  1.
         -5    1    3    3    0  502  0.65566370555E+02 -0.42188957063E+02  0.76902027985E+02  0.10959129233E+03  0.41800000000E+01 0.  1.
        -11    1    4    4    0    0  0.87841613095E+01  0.23436061835E+02  0.55934765931E+01  0.25645612971E+02  0.00000000000E+00 0. -1.
         11    1    4    4    0    0 -0.16904291574E+02  0.46680541592E+02 -0.13010630255E+03  0.13925687775E+03  0.00000000000E+00 0.  1.
</event>
<event>
 8    1  0.7232317E-009  0.3502076E+03  0.7561462E-02  0.1062530E+00
          1   -1    0    0  501    0  0.00000000000E+00  0.00000000000E+00  0.19932111791E+04  0.19932111791E+04  0.00000000000E+00 0. -1.
         -1   -1    0    0    0  501 -0.00000000000E+00 -0.00000000000E+00 -0.10931938238E+03  0.10931938238E+03  0.00000000000E+00 0.  1.
         25    2    1    2    0    0  0.32270101759E+03 -0.11965857792E+03  0.16144951257E+04  0.16555051229E+04  0.12509428043E+03 0.  0.
         23    2    1    2    0    0 -0.32270101759E+03  0.11965857792E+03  0.26939667100E+03  0.44702543857E+03  0.93824593554E+02 0.  0.
          5    1    3    3  502    0  0.17786091669E+03 -0.70353651986E+02  0.11665081009E+04  0.11820925361E+04  0.41800000000E+01 0.  1.
         -5    1    3    3    0  502  0.14484010090E+03 -0.49304925938E+02  0.44798702486E+03  0.47341258685E+03  0.41800000000E+01 0.  1.
        -11    1    4    4    0    0 -0.48953035098E+02  0.57144083310E+02  0.68596831253E+02  0.10182028855E+03  0.00000000000E+00 0.  1.
         11    1    4    4    0    0 -0.27374798249E+03  0.62514494614E+02  0.20079983975E+03  0.34520515002E+03  0.00000000000E+00 0. -1.
</event>
<event>
 8    1  0.7232317E-009  0.1025421E+03  0.7561462E-02  0.1275039E+00
         -2   -1    0    0    0  501 -0.00000000000E+00  0.00000000000E+00  0.26341118366E+03  0.26341118366E+03  0.00000000000E+00 0.  1.
          2   -1    0    0  501    0  0.00000000000E+00 -0.00000000000E+00 -0.47834373072E+02  0.47834373072E+02  0.00000000000E+00 0. -1.
         25    2    1    2    0    0  0.23176701047E+02 -0.12809660548E+01  0.10174647768E+03  0.16290873210E+03  0.12509240156E+03 0.  0.
         23    2    1    2    0    0 -0.23176701047E+02  0.12809660548E+01  0.11383033290E+03  0.14833682463E+03  0.92237023510E+02 0.  0.
          5    1    3    3  502    0  0.27459652758E+02  0.50729325282E+02  0.12089848539E+02  0.59085817341E+02  0.41800000000E+01 0.  1.
         -5    1    3    3    0  502 -0.42829517117E+01 -0.52010291337E+02  0.89656629143E+02  0.10382291476E+03  0.41800000000E+01 0.  1.
        -11    1    4    4    0    0  0.98395355169E-01  0.45194514357E+02  0.49213109377E+02  0.66816793878E+02  0.00000000000E+00 0.  1.
         11    1    4    4    0    0 -0.23275096402E+02 -0.43913548302E+02  0.64617223525E+02  0.81520030747E+02  0.00000000000E+00 0. -1.
</event>
<event>
 8    1  0.7232317E-009  0.2854991E+03  0.7561462E-02  0.1092723E+00
         -1   -1    0    0    0  501 -0.00000000000E+00  0.00000000000E+00  0.32846676415E+03  0.32846676415E+03  0.00000000000E+00 0.  1.
          1   -1    0    0  501    0  0.00000000000E+00 -0.00000000000E+00 -0.27694149406E+03  0.27694149406E+03  0.00000000000E+00 0. -1.
         25    2    1    2    0    0 -0.26506870634E+03  0.89721442431E+02  0.35795986340E-01  0.30652752630E+03  0.12509103400E+03 0.  0.
         23    2    1    2    0    0  0.26506870634E+03 -0.89721442431E+02  0.51489474098E+02  0.29888073191E+03  0.91472234335E+02 0.  0.
          5    1    3    3  502    0 -0.74166303716E+02  0.64816190156E+02 -0.45610612147E+02  0.10862586917E+03  0.41800000000E+01 0.  1.
         -5    1    3    3    0  502 -0.19090240262E+03  0.24905252275E+02  0.45646408133E+02  0.19790165712E+03  0.41800000000E+01 0.  1.
        -11    1    4    4    0    0  0.72812002021E+02 -0.23872411513E+02  0.57134342526E+02  0.95581445719E+02  0.00000000000E+00 0.  1.
         11    1    4    4    0    0  0.19225670431E+03 -0.65849030918E+02 -0.56448684281E+01  0.20329928619E+03  0.00000000000E+00 0. -1.
</event>
<event>
 8    1  0.7232317E-009  0.6928369E+02  0.7561462E-02  0.1362546E+00
          1   -1    0    0  501    0  0.00000000000E+00  0.00000000000E+00  0.44014689096E+02  0.44014689096E+02  0.00000000000E+00 0. -1.
         -1   -1    0    0    0  501 -0.00000000000E+00 -0.00000000000E+00 -0.42677118361E+03  0.42677118361E+03  0.00000000000E+00 0.  1.
         25    2    1    2    0    0 -0.26766481559E+02 -0.26932817409E+02 -0.85412377058E+02  0.15615519671E+03  0.12508936852E+03 0.  0.
         23    2    1    2    0    0  0.26766481559E+02  0.26932817409E+02 -0.29734411746E+03  0.31463067600E+03  0.95588267590E+02 0.  0.
          5    1    3    3  502    0 -0.14364067539E+02  0.11642095791E+02 -0.10794973970E+03  0.10960147595E+03  0.41800000000E+01 0. -1.
         -5    1    3    3    0  502 -0.12402414020E+02 -0.38574913199E+02  0.22537362639E+02  0.46553720760E+02  0.41800000000E+01 0. -1.
        -11    1    4    4    0    0  0.20748707259E+02 -0.21612192935E+02 -0.28424460569E+02  0.41298252930E+02  0.00000000000E+00 0. -1.
         11    1    4    4    0    0  0.60177742995E+01  0.48545010344E+02 -0.26891965689E+03  0.27333242307E+03  0.00000000000E+00 0.  1.
</event>
<event>
 8    1  0.7232317E-009  0.5896445E+02  0.7561462E-02  0.1402230E+00
         -1   -1    0    0    0  501 -0.00000000000E+00  0.00000000000E+00  0.71504890575E+02  0.71504890575E+02  0.00000000000E+00 0.  1.
          1   -1    0    0  501    0  0.00000000000E+00 -0.00000000000E+00 -0.19166140034E+03  0.19166140034E+03  0.00000000000E+00 0. -1.
         25    2    1    2    0    0  0.11854197090E+02 -0.86447718494E+01 -0.11973336387E+03  0.17377640126E+03  0.12508758988E+03 0.  0.
         23    2    1    2    0    0 -0.11854197090E+02  0.86447718494E+01 -0.42314589801E+00  0.89389889659E+02  0.88176636655E+02 0.  0.
          5    1    3    3  502    0 -0.48757030076E+01  0.24605062773E+02  0.17925861212E+02  0.31112545606E+02  0.41800000000E+01 0.  1.
         -5    1    3    3    0  502  0.16729900098E+02 -0.33249834623E+02 -0.13765922508E+03  0.14266385565E+03  0.41800000000E+01 0.  1.
        -11    1    4    4    0    0 -0.30522920351E+02  0.16606997545E+02  0.34519935881E+02  0.48980271615E+02  0.00000000000E+00 0.  1.
         11    1    4    4    0    0  0.18668723261E+02 -0.79622256959E+01 -0.34943081779E+02  0.40409618044E+02  0.00000000000E+00 0. -1.
</event>
<event>
 8    1  0.7232317E-009  0.1066069E+03  0.7561462E-02  0.1266986E+00
          1   -1    0    0  501    0  0.00000000000E+00  0.00000000000E+00  0.37681874920E+03  0.37681874920E+03  0.00000000000E+00 0.  1.
         -1   -1    0    0    0  501 -0.00000000000E+00 -0.00000000000E+00 -0.43645244928E+02  0.43645244928E+02  0.00000000000E+00 0. -1.
         25    2    1    2    0    0  0.38061109951E+02 -0.34776880107E+02  0.25751006227E+03  0.29088938087E+03  0.12508844972E+03 0.  0.
         23    2    1    2    0    0 -0.38061109951E+02  0.34776880107E+02  0.75663442001E+02  0.12957461326E+03  0.91687209929E+02 0.  0.
          5    1    3    3  502    0  0.56735250742E+02 -0.71220477125E+02  0.20349970746E+03  0.22298172206E+03  0.41800000000E+01 0. -1.
         -5    1    3    3    0  502 -0.18674140791E+02  0.36443597018E+02  0.54010354813E+02  0.67907658809E+02  0.41800000000E+01 0. -1.
        -11    1    4    4    0    0 -0.27829770856E+02  0.53078597763E+02  0.10147025572E+02  0.60784832107E+02  0.00000000000E+00 0. -1.
         11    1    4    4    0    0 -0.10231339095E+02 -0.18301717656E+02  0.65516416429E+02  0.68789781149E+02  0.00000000000E+00 0.  1.
</event>
<event>
 8    1  0.7232317E-009  0.9660466E+02  0.7561462E-02  0.1287602E+00
          2   -1    0    0  501    0  0.00000000000E+00  0.00000000000E+00  0.15930564526E+04  0.15930564526E+04  0.00000000000E+00 0. -1.
         -2   -1    0    0    0  501 -0.00000000000E+00 -0.00000000000E+00 -0.97564565141E+01  0.97564565141E+01  0.00000000000E+00 0.  1.
         25    2    1    2    0    0 -0.31870966254E+02 -0.49447748259E+02  0.11101008744E+04  0.11186725146E+04  0.12507359927E+03 0.  0.
         23    2    1    2    0    0  0.31870966254E+02  0.49447748259E+02  0.47319912166E+03  0.48414039451E+03  0.83747683889E+02 0.  0.
          5    1    3    3  502    0 -0.31231136920E+02 -0.67105844893E+02  0.10858477914E+04  0.10883756139E+04  0.41800000000E+01 0. -1.
         -5    1    3    3    0  502 -0.63982933366E+00  0.17658096634E+02  0.24253082948E+02  0.30296900680E+02  0.41800000000E+01 0. -1.
        -11    1    4    4    0    0  0.52269778189E+02  0.56159939308E+01  0.28649837952E+03  0.29128163445E+03  0.00000000000E+00 0.  1.
         11    1    4    4    0    0 -0.20398811935E+02  0.43831754328E+02  0.18670074214E+03  0.19285876005E+03  0.00000000000E+00 0. -1.
</event>
<event>
 8    1  0.7232317E-009  0.2381939E+03  0.7561462E-02  0.1121002E+00
          3   -1    0    0  501    0  0.00000000000E+00  0.00000000000E+00  0.55702093213E+03  0.55702093213E+03  0.00000000000E+00 0. -1.
         -3   -1    0    0    0  501 -0.00000000000E+00 -0.00000000000E+00 -0.16244661978E+03  0.16244661978E+03  0.00000000000E+00 0.  1.
         25    2    1    2    0    0  0.68244768926E+02 -0.22242032202E+03  0.13173467786E+02  0.26447837903E+03  0.12508846703E+03 0.  0.
         23    2    1    2    0    0 -0.68244768926E+02  0.22242032202E+03  0.38140084456E+03  0.45498917287E+03  0.86141714995E+02 0.  0.
          5    1    3    3  502    0  0.75059278479E+01  0.36888845263E+01  0.28323022646E+02  0.29826378153E+02  0.41800000000E+01 0.  1.
         -5    1    3    3    0  502  0.60738841078E+02 -0.22610920655E+03 -0.15149554860E+02  0.23465200088E+03  0.41800000000E+01 0.  1.
        -11    1    4    4    0    0 -0.37917216331E+02  0.10629955980E+03  0.26394572541E+03  0.28706211466E+03  0.00000000000E+00 0. -1.
         11    1    4    4    0    0 -0.30327552595E+02  0.11612076222E+03  0.11745511915E+03  0.16792705821E+03  0.00000000000E+00 0.  1.
</event>
<event>
 8    1  0.7232317E-009  0.1115443E+03  0.7561462E-02  0.1257736E+00
         -2   -1    0    0    0  501 -0.00000000000E+00  0.00000000000E+00  0.74715330824E+02  0.74715330824E+02  0.00000000000E+00 0.  1.
          2   -1    0    0  501    0  0.00000000000E+00 -0.00000000000E+00 -0.19279792410E+03  0.19279792410E+03  0.00000000000E+00 0. -1.
         25    2    1    2    0    0 -0.35043816534E+02 -0.16987866368E+02 -0.21214910177E+02  0.13272193328E+03  0.12509349495E+03 0.  0.
         23    2    1    2    0    0  0.35043816534E+02  0.16987866368E+02 -0.96867683104E+02  0.13479132165E+03  0.85256645963E+02 0.  0.
          5    1    3    3  502    0  0.23370180166E+02  0.40994696163E+02  0.94755798668E+00  0.47382493610E+02  0.41800000000E+01 0.  1.
         -5    1    3    3    0  502 -0.58413996700E+02 -0.57982562531E+02 -0.22162468163E+02  0.85339439670E+02  0.41800000000E+01 0.  1.
        -11    1    4    4    0    0 -0.24535866310E+02  0.22732684609E+02 -0.41008107121E+02  0.52919264307E+02  0.00000000000E+00 0. -1.
         11    1    4    4    0    0  0.59579682844E+02 -0.57448182412E+01 -0.55859575983E+02  0.81872057342E+02  0.00000000000E+00 0.  1.
</event>
<event>
 8    1  0.7232317E-009  0.9154678E+02  0.7561462E-02  0.1299149E+00
          3   -1    0    0  501    0  0.00000000000E+00  0.00000000000E+00  0.46058593300E+02  0.46058593300E+02  0.00000000000E+00 0. -1.
         -3   -1    0    0    0  501 -0.00000000000E+00 -0.00000000000E+00 -0.27552080419E+03  0.27552080419E+03  0.00000000000E+00 0.  1.
         25    2    1    2    0    0  0.21642753233E+02 -0.16110849419E+02 -0.15997896633E+03  0.20483342883E+03  0.12504197559E+03 0.  0.
         23    2    1    2    0    0 -0.21642753233E+02  0.16110849419E+02 -0.69483244552E+02  0.11674596866E+03  0.89853946422E+02 0.  0.
          5    1    3    3  502    0 -0.12804819111E+02 -0.51663845006E+02 -0.21227470214E+02  0.57456019397E+02  0.41800000000E+01 0.  1.
         -5    1    3    3    0  502  0.34447572343E+02  0.35552995587E+02 -0.13875149612E+03  0.14737740943E+03  0.41800000000E+01 0.  1.
        -11    1    4    4    0    0 -0.49921529357E+02  0.12904766251E+02 -0.71569882175E+02  0.88209637341E+02  0.00000000000E+00 0.  1.
         11    1    4    4    0    0  0.28278776124E+02  0.32060831680E+01  0.20866376231E+01  0.28536331315E+02  0.00000000000E+00 0. -1.
</event>
<event>
 8    1  0.7232317E-009  0.9933302E+02  0.7561462E-02  0.1281705E+00
          2   -1    0    0  501    0  0.00000000000E+00  0.00000000000E+00  0.41567397450E+03  0.41567397450E+03  0.00000000000E+00 0. -1.
         -2   -1    0    0    0  501 -0.00000000000E+00 -0.00000000000E+00 -0.58583843903E+02  0.58583843903E+02  0.00000000000E+00 0.  1.
         25    2    1    2    0    0  0.20596208762E+02  0.17647957376E+02  0.35831608764E+03  0.38049067918E+03  0.12508830507E+03 0.  0.
         23    2    1    2    0    0 -0.20596208762E+02 -0.17647957376E+02 -0.12259570390E+01  0.93767139229E+02  0.89750315952E+02 0.  0.
          5    1    3    3  502    0  0.67210069508E+02  0.22803300199E+01  0.27982579495E+03  0.28782345503E+03  0.41800000000E+01 0. -1.
         -5    1    3    3    0  502 -0.46613860746E+02  0.15367627356E+02  0.78490292691E+02  0.92667224146E+02  0.41800000000E+01 0. -1.
        -11    1    4    4    0    0 -0.27082425041E+02 -0.45762112726E+02 -0.22682162907E+02  0.57810978381E+02  0.00000000000E+00 0.  1.
         11    1    4    4    0    0  0.64862162791E+01  0.28114155350E+02  0.21456205868E+02  0.35956160848E+02  0.00000000000E+00 0. -1.
</event>
<event>
 8    1  0.7232317E-009  0.1667459E+03  0.7561462E-02  0.1181285E+00
         -1   -1    0    0    0  501 -0.00000000000E+00  0.00000000000E+00  0.65928059867E+02  0.65928059867E+02  0.00000000000E+00 0.  1.
          1   -1    0    0  501    0  0.00000000000E+00 -0.00000000000E+00 -0.61147102717E+03  0.61147102717E+03  0.00000000000E+00 0. -1.
         25    2    1    2    0    0 -0.12148760497E+03  0.61318252767E+02 -0.45283356700E+03  0.48910942390E+03  0.12510244947E+03 0.  0.
         23    2    1    2    0    0  0.12148760497E+03 -0.61318252767E+02 -0.92709400306E+02  0.18828966314E+03  0.91317019526E+02 0.  0.
          5    1    3    3  502    0 -0.54747211940E+02 -0.30307374790E+02 -0.23852584182E+03  0.24663301441E+03  0.41800000000E+01 0.  1.
         -5    1    3    3    0  502 -0.66740393033E+02  0.91625627557E+02 -0.21430772517E+03  0.24247640949E+03  0.41800000000E+01 0.  1.
        -11    1    4    4    0    0  0.51576719113E+02 -0.69941875695E+02 -0.24626231940E+02  0.90324278186E+02  0.00000000000E+00 0.  1.
         11    1    4    4    0    0  0.69910885860E+02  0.86236229277E+01 -0.68083168366E+02  0.97965384953E+02  0.00000000000E+00 0. -1.
</event>
<event>
 8    1  0.7232317E-009  0.1203078E+03  0.7561462E-02  0.1242590E+00
          1   -1    0    0  501    0  0.00000000000E+00  0.00000000000E+00  0.23162260380E+04  0.23162260380E+04  0.00000000000E+00 0. -1.
         -1   -1    0    0    0  501 -0.00000000000E+00 -0.00000000000E+00 -0.16198848324E+02  0.16198848324E+02  0.00000000000E+00 0.  1.
         25    2    1    2    0    0 -0.59168608260E+02 -0.73145789548E+02  0.19029038449E+04  0.19093305013E+04  0.12509472127E+03 0.  0.
         23    2    1    2    0    0  0.59168608260E+02  0.73145789548E+02  0.39712334473E+03  0.42309438504E+03  0.11158260165E+03 0.  0.
          5    1    3    3  502    0 -0.33819094087E+02 -0.86114962673E+02  0.18026535947E+04  0.18050310171E+04  0.41800000000E+01 0.  1.
         -5    1    3    3    0  502 -0.25349514173E+02  0.12969173125E+02  0.10025025028E+03  0.10429948419E+03  0.41800000000E+01 0.  1.
        -11    1    4    4    0    0  0.50301929763E+02  0.50517098546E+01  0.57350207188E+02  0.76451619832E+02  0.00000000000E+00 0.  1.
         11    1    4    4    0    0  0.88666784968E+01  0.68094079693E+02  0.33977313754E+03  0.34664276521E+03  0.00000000000E+00 0. -1.
</event>
<event>
 8    1  0.7232317E-009  0.9824981E+02  0.7561462E-02  0.1284020E+00
          2   -1    0    0  501    0  0.00000000000E+00  0.00000000000E+00  0.30289340953E+03  0.30289340953E+03  0.00000000000E+00 0. -1.
         -2   -1    0    0    0  501 -0.00000000000E+00 -0.00000000000E+00 -0.46105136202E+02  0.46105136202E+02  0.00000000000E+00 0.  1.
         25    2    1    2    0    0  0.18633241591E+02  0.39512396193E+02  0.13695954729E+03  0.19057206263E+03  0.12510542081E+03 0.  0.
         23    2    1    2    0    0 -0.18633241591E+02 -0.39512396193E+02  0.11982872605E+03  0.15842648311E+03  0.93976591864E+02 0.  0.
          5    1    3    3  502    0 -0.33969291276E+02  0.39054391301E+02  0.12654277606E+03  0.13678342298E+03  0.41800000000E+01 0. -1.
         -5    1    3    3    0  502  0.52602532867E+02  0.45800489278E+00  0.10416771228E+02  0.53788639650E+02  0.41800000000E+01 0. -1.
        -11    1    4    4    0    0 -0.50746898044E+02 -0.24424488436E+02  0.34577565697E+02  0.66086393047E+02  0.00000000000E+00 0.  1.
         11    1    4    4    0    0  0.32113656453E+02 -0.15087907757E+02  0.85251160350E+02  0.92340090060E+02  0.00000000000E+00 0. -1.
</event>
<event>
 8    1  0.7232317E-009  0.6810903E+02  0.7561462E-02  0.1366644E+00
         -1   -1    0    0    0  501 -0.00000000000E+00  0.00000000000E+00  0.48889374103E+02  0.48889374103E+02  0.00000000000E+00 0.  1.
          1   -1    0    0  501    0  0.00000000000E+00 -0.00000000000E+00 -0.27066591834E+03  0.27066591834E+03  0.00000000000E+00 0. -1.
         25    2    1    2    0    0  0.76834331491E+01 -0.52864215709E+00 -0.17872836582E+03  0.21829036641E+03  0.12509013036E+03 0.  0.
         23    2    1    2    0    0 -0.76834331491E+01  0.52864215709E+00 -0.43048178421E+02  0.10126492603E+03  0.91335234010E+02 0.  0.
          5    1    3    3  502    0 -0.33515632295E+02  0.66524645662E+01  0.26878207137E+00  0.34425245630E+02  0.41800000000E+01 0. -1.
         -5    1    3    3    0  502  0.41199065444E+02 -0.71811067233E+01 -0.17899714789E+03  0.18386512078E+03  0.41800000000E+01 0. -1.
        -11    1    4    4    0    0 -0.11881481043E+02 -0.28268384239E+02 -0.60146646823E+02  0.67512149006E+02  0.00000000000E+00 0.  1.
         11    1    4    4    0    0  0.41980478934E+01  0.28797026396E+02  0.17098468403E+02  0.33752777028E+02  0.00000000000E+00 0. -1.
</event>
<event>
 8    1  0.7232317E-009  0.8630383E+02  0.7561462E-02  0.1312058E+00
          2   -1    0    0  501    0  0.00000000000E+00  0.00000000000E+00  0.10529652249E+03  0.10529652249E+03  0.00000000000E+00 0. -1.
         -2   -1    0    0    0  501 -0.00000000000E+00 -0.00000000000E+00 -0.70166029455E+03  0.70166029455E+03  0.00000000000E+00 0.  1.
         25    2    1    2    0    0 -0.30943277882E+02  0.51316810439E+02 -0.66450329849E+03  0.67882751563E+03  0.12510499906E+03 0.  0.
         23    2    1    2    0    0  0.30943277882E+02 -0.51316810439E+02  0.68139526425E+02  0.12812930141E+03  0.90461159279E+02 0.  0.
          5    1    3    3  502    0 -0.48948422560E+02  0.14011734363E+02 -0.95517269595E+02  0.10832034879E+03  0.41800000000E+01 0.  1.
         -5    1    3    3    0  502  0.18005144678E+02  0.37305076076E+02 -0.56898602890E+03  0.57050716684E+03  0.41800000000E+01 0.  1.
        -11    1    4    4    0    0  0.46085172008E+02 -0.38735463937E+02  0.32173511966E+01  0.60287897576E+02  0.00000000000E+00 0.  1.
         11    1    4    4    0    0 -0.15141894126E+02 -0.12581346502E+02  0.64922175229E+02  0.67841403833E+02  0.00000000000E+00 0. -1.
</event>
<event>
 8    1  0.7232317E-009  0.1421883E+03  0.7561462E-02  0.1210414E+00
          2   -1    0    0  501    0  0.00000000000E+00  0.00000000000E+00  0.12149495833E+04  0.12149495833E+04  0.00000000000E+00 0. -1.
         -2   -1    0    0    0  501 -0.00000000000E+00 -0.00000000000E+00 -0.27040380832E+02  0.27040380832E+02  0.00000000000E+00 0.  1.
         25    2    1    2    0    0  0.41435843058E+02 -0.97085859559E+02  0.96860378448E+03  0.98233596638E+03  0.12509223128E+03 0.  0.
         23    2    1    2    0    0 -0.41435843058E+02  0.97085859559E+02  0.21930541799E+03  0.25965399775E+03  0.90458493085E+02 0.  0.
          5    1    3    3  502    0  0.79666684335E+02 -0.30858971295E+02  0.44303227028E+03  0.45121405299E+03  0.41800000000E+01 0.  1.
         -5    1    3    3    0  502 -0.38230841277E+02 -0.66226888265E+02  0.52557151420E+03  0.53112191340E+03  0.41800000000E+01 0.  1.
        -11    1    4    4    0    0 -0.57225833916E+02  0.84547612697E+02  0.21641193834E+03  0.23928481342E+03  0.00000000000E+00 0. -1.
         11    1    4    4    0    0  0.15789990858E+02  0.12538246862E+02  0.28934796550E+01  0.20369184328E+02  0.00000000000E+00 0.  1.
</event>
<event>
 8    1  0.7232317E-009  0.8869598E+02  0.7561462E-02  0.1306041E+00
         -3   -1    0    0    0  501 -0.00000000000E+00  0.00000000000E+00  0.49568703428E+02  0.49568703428E+02  0.00000000000E+00 0. -1.
          3   -1    0    0  501    0  0.00000000000E+00 -0.00000000000E+00 -0.38744428115E+03  0.38744428115E+03  0.00000000000E+00 0.  1.
         25    2    1    2    0    0 -0.45099643978E+02  0.32382061242E+02 -0.28883392869E+03  0.31961910589E+03  0.12509499872E+03 0.  0.
         23    2    1    2    0    0  0.45099643978E+02 -0.32382061242E+02 -0.49041649032E+02  0.11739387870E+03  0.91069553850E+02 0.  0.
          5    1    3    3  502    0 -0.37115508020E+02  0.43932586174E+02 -0.39592867960E+02  0.69947842403E+02  0.41800000000E+01 0.  1.
         -5    1    3    3    0  502 -0.79841359583E+01 -0.11550524932E+02 -0.24924106073E+03  0.24967126348E+03  0.41800000000E+01 0.  1.
        -11    1    4    4    0    0  0.51323040704E+02  0.17943222077E+02 -0.35414740328E+02  0.64886189271E+02  0.00000000000E+00 0.  1.
         11    1    4    4    0    0 -0.62233967259E+01 -0.50325283320E+02 -0.13626908704E+02  0.52507689426E+02  0.00000000000E+00 0. -1.
</event>
<event>
 8    1  0.7232317E-009  0.1094960E+03  0.7561462E-02  0.1261506E+00
          1   -1    0    0  501    0  0.00000000000E+00  0.00000000000E+00  0.14886622407E+03  0.14886622407E+03  0.00000000000E+00 0. -1.
         -1   -1    0    0    0  501 -0.00000000000E+00 -0.00000000000E+00 -0.95265237912E+02  0.95265237912E+02  0.00000000000E+00 0.  1.
         25    2    1    2    0    0  0.22741792674E+02 -0.19974262256E+02  0.44294343313E+02  0.13611081674E+03  0.12509198734E+03 0.  0.
         23    2    1    2    0    0 -0.22741792674E+02  0.19974262256E+02  0.93066428492E+01  0.10802064525E+03  0.10327480773E+03 0.  0.
          5    1    3    3  502    0  0.64394180821E+02 -0.31887670599E+02  0.55820142799E+02  0.91086743283E+02  0.41800000000E+01 0.  1.
         -5    1    3    3    0  502 -0.41652388147E+02  0.11913408342E+02 -0.11525799486E+02  0.45024073455E+02  0.41800000000E+01 0.  1.
        -11    1    4    4    0    0  0.95083729112E+01 -0.36901415113E+02  0.17853190606E+02  0.42081587513E+02  0.00000000000E+00 0. -1.
         11    1    4    4    0    0 -0.32250165585E+02  0.56875677369E+02 -0.85465477571E+01  0.65939057736E+02  0.00000000000E+00 0.  1.
</event>
<event>
 8    1  0.7232317E-009  0.1038101E+03  0.7561462E-02  0.1272482E+00
          2   -1    0    0  501    0  0.00000000000E+00  0.00000000000E+00  0.14413207806E+03  0.14413207806E+03  0.00000000000E+00 0. -1.
         -2   -1    0    0    0  501 -0.00000000000E+00 -0.00000000000E+00 -0.11073301354E+03  0.11073301354E+03  0.00000000000E+00 0.  1.
         25    2    1    2    0    0 -0.65278086456E+02 -0.16440086685E+02  0.18738683928E+02  0.14328209115E+03  0.12508842611E+03 0.  0.
         23    2    1    2    0    0  0.65278086456E+02  0.16440086685E+02  0.14660380590E+02  0.11158300045E+03  0.87774336849E+02 0.  0.
          5    1    3    3  502    0 -0.19819592129E+02  0.30594915404E+02 -0.40700910565E+02  0.54798737226E+02  0.41800000000E+01 0.  1.
         -5    1    3    3    0  502 -0.45458494327E+02 -0.47035002089E+02  0.59439594493E+02  0.88483353923E+02  0.41800000000E+01 0.  1.
        -11    1    4    4    0    0 -0.95491214357E+01 -0.19993112633E+02 -0.10664788825E+02  0.24589591165E+02  0.00000000000E+00 0.  1.
         11    1    4    4    0    0  0.74827207892E+02  0.36433199319E+02  0.25325169415E+02  0.86993409287E+02  0.00000000000E+00 0. -1.
</event>
<event>
 8    1  0.7232317E-009  0.1416288E+03  0.7561462E-02  0.1211154E+00
          2   -1    0    0  501    0  0.00000000000E+00  0.00000000000E+00  0.33723491114E+03  0.33723491114E+03  0.00000000000E+00 0. -1.
         -2   -1    0    0    0  501 -0.00000000000E+00 -0.00000000000E+00 -0.71725404613E+02  0.71725404613E+02  0.00000000000E+00 0.  1.
         25    2    1    2    0    0  0.15901361375E+02 -0.92129605053E+02  0.21761683244E+03  0.26784687427E+03  0.12507655605E+03 0.  0.
         23    2    1    2    0    0 -0.15901361375E+02  0.92129605053E+02  0.47892674087E+02  0.14111344149E+03  0.94226205039E+02 0.  0.
          5    1    3    3  502    0  0.68804547060E+02 -0.51026957910E+02  0.94457714602E+02  0.12758349571E+03  0.41800000000E+01 0.  1.
         -5    1    3    3    0  502 -0.52903185685E+02 -0.41102647142E+02  0.12315911784E+03  0.14026337856E+03  0.41800000000E+01 0.  1.
        -11    1    4    4    0    0  0.32588606186E+02  0.69704124046E+02  0.41169749043E+02  0.87267579309E+02  0.00000000000E+00 0. -1.
         11    1    4    4    0    0 -0.48489967561E+02  0.22425481007E+02  0.67229250442E+01  0.53845862177E+02  0.00000000000E+00 0.  1.
</event>
<event>
 8    1  0.7232317E-009  0.2346337E+03  0.7561462E-02  0.1123420E+00
         -3   -1    0    0    0  501 -0.00000000000E+00  0.00000000000E+00  0.96078790885E+03  0.96078790885E+03  0.00000000000E+00 0.  1.
          3   -1    0    0  501    0  0.00000000000E+00 -0.00000000000E+00 -0.61229616806E+02  0.61229616806E+02  0.00000000000E+00 0. -1.
         25    2    1    2    0    0  0.20577710229E+03 -0.66391193828E+02  0.44625018907E+03  0.51141053226E+03  0.12509794087E+03 0.  0.
         23    2    1    2    0    0 -0.20577710229E+03  0.66391193828E+02  0.45330810297E+03  0.51060699340E+03  0.92082892252E+02 0.  0.
          5    1    3    3  502    0  0.13500467624E+03 -0.99897387583E+02  0.34124859908E+03  0.38036013123E+03  0.41800000000E+01 0. -1.
         -5    1    3    3    0  502  0.70772426045E+02  0.33506193755E+02  0.10500158999E+03  0.13105040103E+03  0.41800000000E+01 0. -1.
        -11    1    4    4    0    0 -0.72821365988E+02  0.51232870007E+02  0.26527046066E+03  0.27981453788E+03  0.00000000000E+00 0.  1.
         11    1    4    4    0    0 -0.13295573630E+03  0.15158323821E+02  0.18803764231E+03  0.23079245552E+03  0.00000000000E+00 0. -1.
</event>
<event>
 8    1  0.7232317E-009  0.1090730E+03  0.7561462E-02  0.1262296E+00
         -1   -1    0    0    0  501 -0.00000000000E+00  0.00000000000E+00  0.38425733084E+02  0.38425733084E+02  0.00000000000E+00 0.  1.
          1   -1    0    0  501    0  0.00000000000E+00 -0.00000000000E+00 -0.35611454298E+03  0.35611454298E+03  0.00000000000E+00 0. -1.
         25    2    1    2    0    0 -0.27299422610E+02 -0.20299158294E+02 -0.23303430166E+03  0.26666112127E+03  0.12508338635E+03 0.  0.
         23    2    1    2    0    0  0.27299422610E+02  0.20299158294E+02 -0.84654508230E+02  0.12787915479E+03  0.89606797537E+02 0.  0.
          5    1    3    3  502    0  0.12265966325E+02 -0.63059571566E+02 -0.16430284281E+03  0.17646489751E+03  0.41800000000E+01 0.  1.
         -5    1    3    3    0  502 -0.39565388935E+02  0.42760413273E+02 -0.68731458850E+02  0.90196223759E+02  0.41800000000E+01 0.  1.
        -11    1    4    4    0    0  0.33899922689E+02 -0.29614655576E+02 -0.46398856221E+02  0.64645854019E+02  0.00000000000E+00 0. -1.
         11    1    4    4    0    0 -0.66005000786E+01  0.49913813869E+02 -0.38255652008E+02  0.63233300775E+02  0.00000000000E+00 0.  1.
</event>
<event>
 8    1  0.7232317E-009  0.1062158E+03  0.7561462E-02  0.1267742E+00
          2   -1    0    0  501    0  0.00000000000E+00  0.00000000000E+00  0.45892165022E+03  0.45892165022E+03  0.00000000000E+00 0. -1.
         -2   -1    0    0    0  501 -0.00000000000E+00 -0.00000000000E+00 -0.29484455488E+02  0.29484455488E+02  0.00000000000E+00 0.  1.
         25    2    1    2    0    0  0.20176867722E+01 -0.28746061970E+02  0.31555462403E+03  0.34066558439E+03  0.12509161643E+03 0.  0.
         23    2    1    2    0    0 -0.20176867722E+01  0.28746061970E+02  0.11388257070E+03  0.14774052131E+03  0.89596956371E+02 0.  0.
          5    1    3    3  502    0  0.27312167439E+02 -0.72458108479E+02  0.19867649597E+03  0.21327436421E+03  0.41800000000E+01 0. -1.
         -5    1    3    3    0  502 -0.25294480666E+02  0.43712046509E+02  0.11687812806E+03  0.12739122019E+03  0.41800000000E+01 0. -1.
        -11    1    4    4    0    0 -0.10870741662E+02 -0.26298426382E+02  0.73740483579E+02  0.79040743752E+02  0.00000000000E+00 0. -1.
         11    1    4    4    0    0  0.88530548893E+01  0.55044488352E+02  0.40142087117E+02  0.68699777561E+02  0.00000000000E+00 0.  1.
</event>
<event>
 8    1  0.7232317E-009  0.1971973E+03  0.7561462E-02  0.1152125E+00
          2   -1    0    0  501    0  0.00000000000E+00  0.00000000000E+00  0.21456484218E+03  0.21456484218E+03  0.00000000000E+00 0. -1.
         -2   -1    0    0    0  501 -0.00000000000E+00 -0.00000000000E+00 -0.19332401117E+03  0.19332401117E+03  0.00000000000E+00 0.  1.
         25    2    1    2    0    0  0.50733875338E+02 -0.16547028970E+03  0.48393062085E+02  0.21895993680E+03  0.12508885876E+03 0.  0.
         23    2    1    2    0    0 -0.50733875338E+02  0.16547028970E+03 -0.27152231079E+02  0.18892891655E+03  0.70728699826E+02 0.  0.
          5    1    3    3  502    0 -0.33878256039E+02 -0.98935465800E+02  0.12424151902E+02  0.10539352246E+03  0.41800000000E+01 0.  1.
         -5    1    3    3    0  502  0.84612131378E+02 -0.66534823896E+02  0.35968910182E+02  0.11356641434E+03  0.41800000000E+01 0.  1.
        -11    1    4    4    0    0 -0.55996987750E+02  0.87601226957E+02  0.59788679858E+01  0.10414117564E+03  0.00000000000E+00 0.  1.
         11    1    4    4    0    0  0.52631124115E+01  0.77869062739E+02 -0.33131099065E+02  0.84787740914E+02  0.00000000000E+00 0. -1.
</event>
<event>
 8    1  0.7232317E-009  0.1153354E+03  0.7561462E-02  0.1250997E+00
          2   -1    0    0  501    0  0.00000000000E+00  0.00000000000E+00  0.29005705930E+03  0.29005705930E+03  0.00000000000E+00 0. -1.
         -2   -1    0    0    0  501 -0.00000000000E+00 -0.00000000000E+00 -0.59401842070E+02  0.59401842070E+02  0.00000000000E+00 0.  1.
         25    2    1    2    0    0  0.35534871011E+02  0.57231768119E+02  0.87246178144E+02  0.16671210783E+03  0.12507129550E+03 0.  0.
         23    2    1    2    0    0 -0.35534871011E+02 -0.57231768119E+02  0.14340903908E+03  0.18274679353E+03  0.91060615618E+02 0.  0.
          5    1    3    3  502    0 -0.33340429994E+02  0.64008057051E+02  0.38016906137E+02  0.81678474471E+02  0.41800000000E+01 0. -1.
         -5    1    3    3    0  502  0.68875301005E+02 -0.67762889316E+01  0.49229272006E+02  0.85033633360E+02  0.41800000000E+01 0. -1.
        -11    1    4    4    0    0 -0.22792401590E+02  0.67784163753E+01  0.10360872782E+03  0.10630244108E+03  0.00000000000E+00 0. -1.
         11    1    4    4    0    0 -0.12742469421E+02 -0.64010184495E+02  0.39800311265E+02  0.76444352459E+02  0.00000000000E+00 0.  1.
</event>
<event>
 8    1  0.7232317E-009  0.2161979E+03  0.7561462E-02  0.1136750E+00
          2   -1    0    0  501    0  0.00000000000E+00  0.00000000000E+00  0.42169846609E+03  0.42169846609E+03  0.00000000000E+00 0. -1.
         -2   -1    0    0    0  501 -0.00000000000E+00 -0.00000000000E+00 -0.16127343821E+03  0.16127343821E+03  0.00000000000E+00 0.  1.
         25    2    1    2    0    0  0.67043335108E+02 -0.17418426503E+03 -0.28865654826E+02  0.22652697754E+03  0.12508508527E+03 0.  0.
         23    2    1    2    0    0 -0.67043335108E+02  0.17418426503E+03  0.28929068271E+03  0.35644492676E+03  0.92352150743E+02 0.  0.
          5    1    3    3  502    0 -0.11042287033E+02 -0.13798756148E+03 -0.19258982944E+02  0.13982446156E+03  0.41800000000E+01 0.  1.
         -5    1    3    3    0  502  0.78085622141E+02 -0.36196703553E+02 -0.96066718817E+01  0.86702515984E+02  0.41800000000E+01 0.  1.
        -11    1    4    4    0    0 -0.16702321246E+02 -0.81461290279E+01  0.33567279166E+02  0.38367814425E+02  0.00000000000E+00 0.  1.
         11    1    4    4    0    0 -0.50341013862E+02  0.18233039406E+03  0.25572340354E+03  0.31807711234E+03  0.00000000000E+00 0. -1.
</event>
<event>
 8    1  0.7232317E-009  0.9531774E+02  0.7561462E-02  0.1290462E+00
          1   -1    0    0  501    0  0.00000000000E+00  0.00000000000E+00  0.43082900107E+02  0.43082900107E+02  0.00000000000E+00 0. -1.
         -1   -1    0    0    0  501 -0.00000000000E+00 -0.00000000000E+00 -0.29367996731E+03  0.29367996731E+03  0.00000000000E+00 0.  1.
         25    2    1    2    0    0  0.95142790818E+01 -0.63119222722E+01 -0.99472939168E+02  0.16022511061E+03  0.12508740373E+03 0.  0.
         23    2    1    2    0    0 -0.95142790818E+01  0.63119222722E+01 -0.15112412803E+03  0.17653775681E+03  0.90535714699E+02 0.  0.
          5    1    3    3  502    0  0.45718394320E+02  0.25456683986E+02 -0.98792211593E+02  0.11187308796E+03  0.41800000000E+01 0.  1.
         -5    1    3    3    0  502 -0.36204115238E+02 -0.31768606258E+02 -0.68072757522E+00  0.48352022645E+02  0.41800000000E+01 0.  1.
        -11    1    4    4    0    0  0.26421073934E+02 -0.29125722862E+02 -0.50876008432E+02  0.64302014852E+02  0.00000000000E+00 0. -1.
         11    1    4    4    0    0 -0.35935353015E+02  0.35437645134E+02 -0.10024811960E+03  0.11223574196E+03  0.00000000000E+00 0.  1.
</event>
<event>
 8    1  0.7232317E-009  0.2000931E+03  0.7561462E-02  0.1149660E+00
          2   -1    0    0  501    0  0.00000000000E+00  0.00000000000E+00  0.13988954985E+04  0.13988954985E+04  0.00000000000E+00 0. -1.
         -2   -1    0    0    0  501 -0.00000000000E+00 -0.00000000000E+00 -0.36550441475E+02  0.36550441475E+02  0.00000000000E+00 0.  1.
         25    2    1    2    0    0  0.10454118482E+03 -0.16696338609E+03  0.64531203421E+03  0.68620517391E+03  0.12507712657E+03 0.  0.
         23    2    1    2    0    0 -0.10454118482E+03  0.16696338609E+03  0.71703302285E+03  0.74924076610E+03  0.91759130912E+02 0.  0.
          5    1    3    3  502    0  0.69681211971E+02 -0.99205390410E+02  0.55436742371E+03  0.56748382678E+03  0.41800000000E+01 0.  1.
         -5    1    3    3    0  502  0.34859972846E+02 -0.67757995683E+02  0.90944610501E+02  0.11872134713E+03  0.41800000000E+01 0.  1.
        -11    1    4    4    0    0 -0.81659376040E+02  0.86676262863E+02  0.27945128035E+03  0.30376643384E+03  0.00000000000E+00 0.  1.
         11    1    4    4    0    0 -0.22881808776E+02  0.80287123230E+02  0.43758174251E+03  0.44547433226E+03  0.00000000000E+00 0. -1.
</event>
<event>
 8    1  0.7232317E-009  0.9580188E+02  0.7561462E-02  0.1289380E+00
         -4   -1    0    0    0  501 -0.00000000000E+00  0.00000000000E+00  0.42563016423E+03  0.42563016423E+03  0.00000000000E+00 0.  1.
          4   -1    0    0  501    0  0.00000000000E+00 -0.00000000000E+00 -0.43633579385E+02  0.43633579385E+02  0.00000000000E+00 0. -1.
         25    2    1    2    0    0  0.65514554936E+02  0.35609745332E+02  0.22228686555E+03  0.26574434362E+03  0.12509354379E+03 0.  0.
         23    2    1    2    0    0 -0.65514554936E+02 -0.35609745332E+02  0.15970971929E+03  0.20351939999E+03  0.10174841947E+03 0.  0.
          5    1    3    3  502    0  0.14882654662E+02 -0.28975869932E+02  0.15809707274E+03  0.16147213771E+03  0.41800000000E+01 0. -1.
         -5    1    3    3    0  502  0.50631900273E+02  0.64585615264E+02  0.64189792813E+02  0.10427220591E+03  0.41800000000E+01 0. -1.
        -11    1    4    4    0    0 -0.29887478551E+02 -0.65093342975E+01  0.15418227885E+03  0.15718717479E+03  0.00000000000E+00 0.  1.
         11    1    4    4    0    0 -0.35627076385E+02 -0.29100411035E+02  0.55274404408E+01  0.46332225200E+02  0.00000000000E+00 0. -1.
</event>
<event>
 8    1  0.7232317E-009  0.1304432E+03  0.7561462E-02  0.1226800E+00
          1   -1    0    0  501    0  0.00000000000E+00  0.00000000000E+00  0.23446050885E+03  0.23446050885E+03  0.00000000000E+00 0. -1.
         -1   -1    0    0    0  501 -0.00000000000E+00 -0.00000000000E+00 -0.80508462976E+02  0.80508462976E+02  0.00000000000E+00 0.  1.
         25    2    1    2    0    0 -0.35513678318E+02  0.74092035077E+02  0.98659112833E+02  0.17925654021E+03  0.12509370750E+03 0.  0.
         23    2    1    2    0    0  0.35513678318E+02 -0.74092035077E+02  0.55292933042E+02  0.13571243161E+03  0.92788494118E+02 0.  0.
          5    1    3    3  502    0 -0.59132212797E+02 -0.45383360880E+01  0.70811616393E+02  0.92460653799E+02  0.41800000000E+01 0. -1.
         -5    1    3    3    0  502  0.23618534480E+02  0.78630371165E+02  0.27847496440E+02  0.86795886415E+02  0.41800000000E+01 0. -1.
        -11    1    4    4    0    0  0.30019324032E+02  0.12457880780E+02  0.32675806958E+02  0.46087601036E+02  0.00000000000E+00 0. -1.
         11    1    4    4    0    0  0.54943542857E+01 -0.86549915857E+02  0.22617126084E+02  0.89624830578E+02  0.00000000000E+00 0.  1.
</event>
<event>
 8    1  0.7232317E-009  0.1480262E+03  0.7561462E-02  0.1202920E+00
         -2   -1    0    0    0  501 -0.00000000000E+00  0.00000000000E+00  0.48065057392E+02  0.48065057392E+02  0.00000000000E+00 0.  1.
          2   -1    0    0  501    0  0.00000000000E+00 -0.00000000000E+00 -0.77686678649E+03  0.77686678649E+03  0.00000000000E+00 0. -1.
         25    2    1    2    0    0 -0.11744026830E+03  0.18683149702E+02 -0.61123892165E+03  0.63514498536E+03  0.12511936856E+03 0.  0.
         23    2    1    2    0    0  0.11744026830E+03 -0.18683149702E+02 -0.11756280745E+03  0.18978685852E+03  0.89759463403E+02 0.  0.
          5    1    3    3  502    0 -0.57812853446E+02 -0.52595137192E+02 -0.24060566673E+03  0.25301607408E+03  0.41800000000E+01 0. -1.
         -5    1    3    3    0  502 -0.59627414857E+02  0.71278286894E+02 -0.37063325492E+03  0.38212891128E+03  0.41800000000E+01 0. -1.
        -11    1    4    4    0    0  0.10970560671E+03 -0.27430143046E+02 -0.13028653475E+03  0.17251757600E+03  0.00000000000E+00 0. -1.
         11    1    4    4    0    0  0.77346615893E+01  0.87469933436E+01  0.12723727300E+02  0.17269282523E+02  0.00000000000E+00 0.  1.
</event>
<event>
 8    1  0.7232317E-009  0.1201496E+03  0.7561462E-02  0.1242850E+00
          2   -1    0    0  501    0  0.00000000000E+00  0.00000000000E+00  0.11651090184E+04  0.11651090184E+04  0.00000000000E+00 0. -1.
         -2   -1    0    0    0  501 -0.00000000000E+00 -0.00000000000E+00 -0.17299061459E+02  0.17299061459E+02  0.00000000000E+00 0.  1.
         25    2    1    2    0    0 -0.31383583755E+02 -0.79269268298E+02  0.76283721926E+03  0.77771220867E+03  0.12508840956E+03 0.  0.
         23    2    1    2    0    0  0.31383583755E+02  0.79269268298E+02  0.38497273765E+03  0.40469587115E+03  0.91138318885E+02 0.  0.
          5    1    3    3  502    0  0.16222831061E+02 -0.67615798150E+02  0.66053859674E+03  0.66420161592E+03  0.41800000000E+01 0. -1.
         -5    1    3    3    0  502 -0.47606414815E+02 -0.11653470148E+02  0.10229862252E+03  0.11351059275E+03  0.41800000000E+01 0. -1.
        -11    1    4    4    0    0 -0.24894721780E+02  0.54587776647E+02  0.23686475033E+03  0.24434500707E+03  0.00000000000E+00 0. -1.
         11    1    4    4    0    0  0.56278305535E+02  0.24681491651E+02  0.14810798732E+03  0.16035086408E+03  0.00000000000E+00 0.  1.
</event>
<event>
 8    1  0.7232317E-009  0.1106785E+03  0.7561462E-02  0.1259319E+00
          1   -1    0    0  501    0  0.00000000000E+00  0.00000000000E+00  0.11877347209E+04  0.11877347209E+04  0.00000000000E+00 0. -1.
         -1   -1    0    0    0  501 -0.00000000000E+00 -0.00000000000E+00 -0.16218184789E+02  0.16218184789E+02  0.00000000000E+00 0.  1.
         25    2    1    2    0    0 -0.74849701968E+01  0.81835913136E+02  0.72471273927E+03  0.74000648026E+03  0.12509154609E+03 0.  0.
         23    2    1    2    0    0  0.74849701968E+01 -0.81835913136E+02  0.44680379682E+03  0.46394642542E+03  0.94124977252E+02 0.  0.
          5    1    3    3  502    0  0.43440593396E+02  0.30647749194E+02  0.12434574018E+03  0.13529857792E+03  0.41800000000E+01 0. -1.
         -5    1    3    3    0  502 -0.50925563593E+02  0.51188163942E+02  0.60036699909E+03  0.60470790234E+03  0.41800000000E+01 0. -1.
        -11    1    4    4    0    0  0.16902368030E+02 -0.40919545263E+01  0.97607906211E+01  0.19942596882E+02  0.00000000000E+00 0.  1.
         11    1    4    4    0    0 -0.94173978329E+01 -0.77743958610E+02  0.43704300620E+03  0.44400382853E+03  0.00000000000E+00 0. -1.
</event>
<event>
 8    1  0.7232317E-009  0.9085746E+02  0.7561462E-02  0.1300788E+00
         -2   -1    0    0    0  501 -0.00000000000E+00  0.00000000000E+00  0.43389182219E+02  0.43389182219E+02  0.00000000000E+00 0.  1.
          2   -1    0    0  501    0  0.00000000000E+00 -0.00000000000E+00 -0.32216776464E+03  0.32216776464E+03  0.00000000000E+00 0. -1.
         25    2    1    2    0    0 -0.44275181371E+02  0.16814565559E+02 -0.15270059852E+03  0.20299667363E+03  0.12508859027E+03 0.  0.
         23    2    1    2    0    0  0.44275181371E+02 -0.16814565559E+02 -0.12607798390E+03  0.16256027323E+03  0.91033856933E+02 0.  0.
          5    1    3    3  502    0  0.12821621231E+02  0.33157832320E+02 -0.13675432615E+03  0.14136143016E+03  0.41800000000E+01 0. -1.
         -5    1    3    3    0  502 -0.57096802602E+02 -0.16343266761E+02 -0.15946272375E+02  0.61635243477E+02  0.41800000000E+01 0. -1.
        -11    1    4    4    0    0  0.17870758557E+01  0.26001740495E+02 -0.39667043370E+01  0.26363210961E+02  0.00000000000E+00 0.  1.
         11    1    4    4    0    0  0.42488105515E+02 -0.42816306054E+02 -0.12211127956E+03  0.13619706227E+03  0.00000000000E+00 0. -1.
</event>
<event>
 8    1  0.7232317E-009  0.9581700E+02  0.7561462E-02  0.1289347E+00
         -2   -1    0    0    0  501 -0.00000000000E+00  0.00000000000E+00  0.23967345367E+02  0.23967345367E+02  0.00000000000E+00 0.  1.
          2   -1    0    0  501    0  0.00000000000E+00 -0.00000000000E+00 -0.50675598623E+03  0.50675598623E+03  0.00000000000E+00 0. -1.
         25    2    1    2    0    0  0.23066614559E+01  0.23856963448E+02 -0.27246350353E+03  0.30076389921E+03  0.12509231359E+03 0.  0.
         23    2    1    2    0    0 -0.23066614559E+01 -0.23856963448E+02 -0.21032513733E+03  0.22995943239E+03  0.89834301680E+02 0.  0.
          5    1    3    3  502    0  0.19162905103E+01 -0.45918465881E+02 -0.17396800199E+03  0.17998476545E+03  0.41800000000E+01 0. -1.
         -5    1    3    3    0  502  0.39037094558E+00  0.69775429329E+02 -0.98495501544E+02  0.12077913376E+03  0.41800000000E+01 0. -1.
        -11    1    4    4    0    0 -0.41140178371E+01  0.25683458741E+02 -0.14827002437E+03  0.15053426627E+03  0.00000000000E+00 0. -1.
         11    1    4    4    0    0  0.18073563812E+01 -0.49540422189E+02 -0.62055112964E+02  0.79425166117E+02  0.00000000000E+00 0.  1.
</event>
<event>
 8    1  0.7232317E-009  0.8529663E+02  0.7561462E-02  0.1314659E+00
         -2   -1    0    0    0  501 -0.00000000000E+00  0.00000000000E+00  0.47692833991E+02  0.47692833991E+02  0.00000000000E+00 0.  1.
          2   -1    0    0  501    0  0.00000000000E+00 -0.00000000000E+00 -0.42679506801E+03  0.42679506801E+03  0.00000000000E+00 0. -1.
         25    2    1    2    0    0  0.48302070754E+02  0.39144702496E+02 -0.32239040254E+03  0.35135248432E+03  0.12509036260E+03 0.  0.
         23    2    1    2    0    0 -0.48302070754E+02 -0.39144702496E+02 -0.56711831477E+02  0.12313541768E+03  0.89892722091E+02 0.  0.
          5    1    3    3  502    0  0.49889720431E+02 -0.90832215993E+01 -0.39684889227E+02  0.64527916070E+02  0.41800000000E+01 0. -1.
         -5    1    3    3    0  502 -0.15876496770E+01  0.48227924095E+02 -0.28270551331E+03  0.28682456825E+03  0.41800000000E+01 0. -1.
        -11    1    4    4    0    0 -0.31141784614E+02 -0.43569808316E+02 -0.78513613821E+02  0.95039604907E+02  0.00000000000E+00 0. -1.
         11    1    4    4    0    0 -0.17160286140E+02  0.44251058203E+01  0.21801782344E+02  0.28095812772E+02  0.00000000000E+00 0.  1.
</event>
<event>
 8    1  0.7232317E-009  0.8069560E+02  0.7561462E-02  0.1327089E+00
         -1   -1    0    0    0  501 -0.00000000000E+00  0.00000000000E+00  0.30011019199E+02  0.30011019199E+02  0.00000000000E+00 0.  1.
          1   -1    0    0  501    0  0.00000000000E+00 -0.00000000000E+00 -0.42326916720E+03  0.42326916720E+03  0.00000000000E+00 0. -1.
         25    2    1    2    0    0  0.26493219145E+02 -0.11890068751E+01 -0.26221765203E+03  0.29173465573E+03  0.12509079870E+03 0.  0.
         23    2    1    2    0    0 -0.26493219145E+02  0.11890068751E+01 -0.13104049597E+03  0.16154553067E+03  0.90675479026E+02 0.  0.
          5    1    3    3  502    0 -0.20069028339E+02  0.47364798103E+01  0.39673984199E+01  0.21410576585E+02  0.41800000000E+01 0. -1.
         -5    1    3    3    0  502  0.46562247484E+02 -0.59254866854E+01 -0.26618505045E+03  0.27032407915E+03  0.41800000000E+01 0. -1.
        -11    1    4    4    0    0  0.41673107707E+01  0.41986916049E+02 -0.46450736892E+02  0.62752996392E+02  0.00000000000E+00 0. -1.
         11    1    4    4    0    0 -0.30660529916E+02 -0.40797909174E+02 -0.84589759076E+02  0.98792534274E+02  0.00000000000E+00 0.  1.
</event>
<event>
 8    1  0.7232317E-009  0.1143490E+03  0.7561462E-02  0.1252722E+00
          2   -1    0    0  501    0  0.00000000000E+00  0.00000000000E+00  0.16975719196E+03  0.16975719196E+03  0.00000000000E+00 0. -1.
         -2   -1    0    0    0  501 -0.00000000000E+00 -0.00000000000E+00 -0.17395223269E+03  0.17395223269E+03  0.00000000000E+00 0.  1.
         25    2    1    2    0    0 -0.22005921433E+01 -0.43641646736E+02  0.12297638006E+03  0.18077871444E+03  0.12509323565E+03 0.  0.
         23    2    1    2    0    0  0.22005921433E+01  0.43641646736E+02 -0.12717142079E+03  0.16293071020E+03  0.92002228923E+02 0.  0.
          5    1    3    3  502    0 -0.56773136019E+02  0.41355605349E+01  0.36131537300E+02  0.67551848399E+02  0.41800000000E+01 0.  1.
         -5    1    3    3    0  502  0.54572543876E+02 -0.47777207271E+02  0.86844842758E+02  0.11322686604E+03  0.41800000000E+01 0.  1.
        -11    1    4    4    0    0 -0.24226707798E+02 -0.19125153478E+02 -0.58908968932E+02  0.66505424492E+02  0.00000000000E+00 0.  1.
         11    1    4    4    0    0  0.26427299941E+02  0.62766800214E+02 -0.68262451856E+02  0.96425285712E+02  0.00000000000E+00 0. -1.
</event>
<event>
 8    1  0.7232317E-009  0.1038082E+03  0.7561462E-02  0.1272486E+00
         -1   -1    0    0    0  501 -0.00000000000E+00  0.00000000000E+00  0.64383925315E+03  0.64383925315E+03  0.00000000000E+00 0.  1.
          1   -1    0    0  501    0  0.00000000000E+00 -0.00000000000E+00 -0.20386611958E+02  0.20386611958E+02  0.00000000000E+00 0. -1.
         25    2    1    2    0    0  0.29907020443E+02 -0.77675626882E+01  0.41719691054E+03  0.43663334103E+03  0.12506257407E+03 0.  0.
         23    2    1    2    0    0 -0.29907020443E+02  0.77675626882E+01  0.20625573066E+03  0.22759252408E+03  0.91116220768E+02 0.  0.
          5    1    3    3  502    0  0.18902197011E+02 -0.59350368671E+02  0.12541683837E+03  0.14009502154E+03  0.41800000000E+01 0.  1.
         -5    1    3    3    0  502  0.11004823432E+02  0.51582805983E+02  0.29178007216E+03  0.29653831949E+03  0.41800000000E+01 0.  1.
        -11    1    4    4    0    0 -0.44984159204E+02 -0.28328687144E+02  0.85703732357E+02  0.10085246073E+03  0.00000000000E+00 0.  1.
         11    1    4    4    0    0  0.15077138761E+02  0.36096249833E+02  0.12055199830E+03  0.12674006336E+03  0.00000000000E+00 0. -1.
</event>
<event>
 8    1  0.7232317E-009  0.2523076E+03  0.7561462E-02  0.1111855E+00
         -1   -1    0    0    0  501 -0.00000000000E+00  0.00000000000E+00  0.14635310916E+03  0.14635310916E+03  0.00000000000E+00 0.  1.
          1   -1    0    0  501    0  0.00000000000E+00 -0.00000000000E+00 -0.48543992381E+03  0.48543992381E+03  0.00000000000E+00 0. -1.
         25    2    1    2    0    0  0.23589315212E+03  0.58096790043E+02 -0.16319147626E+03  0.31827642861E+03  0.12509041073E+03 0.  0.
         23    2    1    2    0    0 -0.23589315212E+03 -0.58096790043E+02 -0.17589533839E+03  0.31351660436E+03  0.91283486507E+02 0.  0.
          5    1    3    3  502    0  0.41088707128E+02  0.27353631315E+02 -0.99226870014E+02  0.11090512672E+03  0.41800000000E+01 0.  1.
         -5    1    3    3    0  502  0.19480444499E+03  0.30743158728E+02 -0.63964606242E+02  0.20737130190E+03  0.41800000000E+01 0.  1.
        -11    1    4    4    0    0 -0.14637263837E+03  0.79216371114E+01 -0.82064776759E+02  0.16799502725E+03  0.00000000000E+00 0.  1.
         11    1    4    4    0    0 -0.89520513754E+02 -0.66018427154E+02 -0.93830561634E+02  0.14552157711E+03  0.00000000000E+00 0. -1.
</event>
<event>
 8    1  0.7232317E-009  0.2252621E+03  0.7561462E-02  0.1130020E+00
          2   -1    0    0  501    0  0.00000000000E+00  0.00000000000E+00  0.41285502852E+03  0.41285502852E+03  0.00000000000E+00 0. -1.
         -2   -1    0    0    0  501 -0.00000000000E+00 -0.00000000000E+00 -0.24926788742E+03  0.24926788742E+03  0.00000000000E+00 0.  1.
         25    2    1    2    0    0 -0.15340882526E+01  0.20852078141E+03  0.30802803938E+03  0.39244442277E+03  0.12509229478E+03 0.  0.
         23    2    1    2    0    0  0.15340882526E+01 -0.20852078141E+03 -0.14444089827E+03  0.26967849317E+03  0.91542595991E+02 0.  0.
          5    1    3    3  502    0 -0.53993365728E+02  0.55707493309E+02  0.69032324060E+02  0.10393046963E+03  0.41800000000E+01 0. -1.
         -5    1    3    3    0  502  0.52459277475E+02  0.15281328810E+03  0.23899571532E+03  0.28851395313E+03  0.41800000000E+01 0. -1.
        -11    1    4    4    0    0 -0.15415242218E+02 -0.12805893095E+03 -0.36620598921E+02  0.13408127294E+03  0.00000000000E+00 0. -1.
         11    1    4    4    0    0  0.16949330471E+02 -0.80461850461E+02 -0.10782029935E+03  0.13559722023E+03  0.00000000000E+00 0.  1.
</event>
<event>
 8    1  0.7232317E-009  0.1206208E+03  0.7561462E-02  0.1242076E+00
          2   -1    0    0  501    0  0.00000000000E+00  0.00000000000E+00  0.12692319184E+03  0.12692319184E+03  0.00000000000E+00 0. -1.
         -2   -1    0    0    0  501 -0.00000000000E+00 -0.00000000000E+00 -0.14742544366E+03  0.14742544366E+03  0.00000000000E+00 0.  1.
         25    2    1    2    0    0  0.41392133238E+02  0.68018266932E+02  0.11526740984E+02  0.14872528898E+03  0.12508618027E+03 0.  0.
         23    2    1    2    0    0 -0.41392133238E+02 -0.68018266932E+02 -0.32028992811E+02  0.12562334652E+03  0.91736445759E+02 0.  0.
          5    1    3    3  502    0  0.59976721978E+02 -0.13003581208E+02  0.20904945675E+02  0.64967603135E+02  0.41800000000E+01 0. -1.
         -5    1    3    3    0  502 -0.18584588741E+02  0.81021848140E+02 -0.93782046903E+01  0.83757685843E+02  0.41800000000E+01 0. -1.
        -11    1    4    4    0    0  0.76228590299E+01 -0.38572385614E+02 -0.51879885774E+02  0.65095771442E+02  0.00000000000E+00 0.  1.
         11    1    4    4    0    0 -0.49014992267E+02 -0.29445881318E+02  0.19850892963E+02  0.60527575079E+02  0.00000000000E+00 0. -1.
</event>
<event>
 8    1  0.7232317E-009  0.1115965E+03  0.7561462E-02  0.1257642E+00
          3   -1    0    0  501    0  0.00000000000E+00  0.00000000000E+00  0.20622418642E+02  0.20622418642E+02  0.00000000000E+00 0. -1.
         -3   -1    0    0    0  501 -0.00000000000E+00 -0.00000000000E+00 -0.67479323036E+03  0.67479323036E+03  0.00000000000E+00 0.  1.
         25    2    1    2    0    0 -0.32913954313E+02  0.20032322626E+02 -0.42062315881E+03  0.44051797871E+03  0.12509046928E+03 0.  0.
         23    2    1    2    0    0  0.32913954313E+02 -0.20032322626E+02 -0.23354765291E+03  0.25489767029E+03  0.94571104473E+02 0.  0.
          5    1    3    3  502    0 -0.67144489198E+02  0.43716186680E+02 -0.19183669974E+03  0.20793816190E+03  0.41800000000E+01 0. -1.
         -5    1    3    3    0  502  0.34230534885E+02 -0.23683864055E+02 -0.22878645907E+03  0.23257981681E+03  0.41800000000E+01 0. -1.
        -11    1    4    4    0    0  0.64219764025E+02 -0.48720039070E+00 -0.16477592283E+03  0.17684886259E+03  0.00000000000E+00 0. -1.
         11    1    4    4    0    0 -0.31305809712E+02 -0.19545122235E+02 -0.68771730079E+02  0.78048807697E+02  0.00000000000E+00 0.  1.
</event>
<event>
 8    1  0.7232317E-009  0.1609644E+03  0.7561462E-02  0.1187612E+00
         -2   -1    0    0    0  501 -0.00000000000E+00  0.00000000000E+00  0.22497853855E+02  0.22497853855E+02  0.00000000000E+00 0.  1.
          2   -1    0    0  501    0  0.00000000000E+00 -0.00000000000E+00 -0.12547422102E+04  0.12547422102E+04  0.00000000000E+00 0. -1.
         25    2    1    2    0    0 -0.10428138007E+03  0.67394912572E+02 -0.77273710200E+03  0.79258208386E+03  0.12508817043E+03 0.  0.
         23    2    1    2    0    0  0.10428138007E+03 -0.67394912572E+02 -0.45950725438E+03  0.48465798023E+03  0.91267521601E+02 0.  0.
          5    1    3    3  502    0  0.13649315705E+02 -0.18455439935E+02 -0.48895757816E+02  0.54177251820E+02  0.41800000000E+01 0.  1.
         -5    1    3    3    0  502 -0.11793069578E+03  0.85850352507E+02 -0.72384134418E+03  0.73840483204E+03  0.41800000000E+01 0.  1.
        -11    1    4    4    0    0  0.69968322747E+02  0.74185513983E+01 -0.24495986967E+03  0.25486454999E+03  0.00000000000E+00 0. -1.
         11    1    4    4    0    0  0.34313057328E+02 -0.74813463970E+02 -0.21454738472E+03  0.22979343024E+03  0.00000000000E+00 0.  1.
</event>
<event>
 8    1  0.7232317E-009  0.1112522E+03  0.7561462E-02  0.1258268E+00
         -1   -1    0    0    0  501 -0.00000000000E+00  0.00000000000E+00  0.10918381759E+03  0.10918381759E+03  0.00000000000E+00 0.  1.
          1   -1    0    0  501    0  0.00000000000E+00 -0.00000000000E+00 -0.13506570697E+03  0.13506570697E+03  0.00000000000E+00 0. -1.
         25    2    1    2    0    0 -0.84215252631E+01 -0.46363137594E+02  0.14390752689E+02  0.13444412696E+03  0.12509063473E+03 0.  0.
         23    2    1    2    0    0  0.84215252631E+01  0.46363137594E+02 -0.40272642065E+02  0.10980539760E+03  0.90635958799E+02 0.  0.
          5    1    3    3  502    0  0.57210103448E+02 -0.34222026819E+02  0.70126858436E+01  0.67162439048E+02  0.41800000000E+01 0. -1.
         -5    1    3    3    0  502 -0.65631628711E+02 -0.12141110775E+02  0.73780668457E+01  0.67281687913E+02  0.41800000000E+01 0. -1.
        -11    1    4    4    0    0 -0.13854150902E+01 -0.20856228458E+02 -0.36139443397E+02  0.41748784527E+02  0.00000000000E+00 0. -1.
         11    1    4    4    0    0  0.98069403533E+01  0.67219366052E+02 -0.41331986682E+01  0.68056613071E+02  0.00000000000E+00 0.  1.
</event>
<event>
 8    1  0.7232317E-009  0.1259437E+03  0.7561462E-02  0.1233602E+00
          2   -1    0    0  501    0  0.00000000000E+00  0.00000000000E+00  0.75023401130E+02  0.75023401130E+02  0.00000000000E+00 0. -1.
         -2   -1    0    0    0  501 -0.00000000000E+00 -0.00000000000E+00 -0.29824872887E+03  0.29824872887E+03  0.00000000000E+00 0.  1.
         25    2    1    2    0    0  0.26691496240E+02 -0.90978254097E+02 -0.18545398061E+03  0.24296148621E+03  0.12509047192E+03 0.  0.
         23    2    1    2    0    0 -0.26691496240E+02  0.90978254097E+02 -0.37771347130E+02  0.13031064379E+03  0.81022901279E+02 0.  0.
          5    1    3    3  502    0 -0.31444224929E+02 -0.16028398238E+02 -0.10569456496E+01  0.35556129789E+02  0.41800000000E+01 0. -1.
         -5    1    3    3    0  502  0.58135721169E+02 -0.74949855859E+02 -0.18439703496E+03  0.20740535642E+03  0.41800000000E+01 0. -1.
        -11    1    4    4    0    0 -0.22704120109E+02 -0.66760904164E+01 -0.19973722497E+02  0.30967674171E+02  0.00000000000E+00 0.  1.
         11    1    4    4    0    0 -0.39873761312E+01  0.97654344513E+02 -0.17797624633E+02  0.99342969622E+02  0.00000000000E+00 0. -1.
</event>
<event>
 8    1  0.7232317E-009  0.1089960E+03  0.7561462E-02  0.1262441E+00
          1   -1    0    0  501    0  0.00000000000E+00  0.00000000000E+00  0.14873053029E+02  0.14873053029E+02  0.00000000000E+00 0. -1.
         -1   -1    0    0    0  501 -0.00000000000E+00 -0.00000000000E+00 -0.12216078721E+04  0.12216078721E+04  0.00000000000E+00 0.  1.
         25    2    1    2    0    0  0.16418174511E+02  0.22335951577E+02 -0.10076234972E+04  0.10157361008E+04  0.12508502413E+03 0.  0.
         23    2    1    2    0    0 -0.16418174511E+02 -0.22335951577E+02 -0.19911132188E+03  0.22074482430E+03  0.91183922732E+02 0.  0.
          5    1    3    3  502    0  0.63645609059E+02 -0.13907527391E+02 -0.41330296267E+03  0.41842680868E+03  0.41800000000E+01 0. -1.
         -5    1    3    3    0  502 -0.47227434548E+02  0.36243478968E+02 -0.59432053453E+03  0.59730929217E+03  0.41800000000E+01 0. -1.
        -11    1    4    4    0    0  0.36726300688E+02 -0.13660024262E+02 -0.60931366309E+02  0.72443418096E+02  0.00000000000E+00 0. -1.
         11    1    4    4    0    0 -0.53144475199E+02 -0.86759273152E+01 -0.13817995557E+03  0.14830140620E+03  0.00000000000E+00 0.  1.
</event>
<event>
 8    1  0.7232317E-009  0.1820900E+03  0.7561462E-02  0.1165796E+00
         -1   -1    0    0    0  501 -0.00000000000E+00  0.00000000000E+00  0.46136662910E+03  0.46136662910E+03  0.00000000000E+00 0.  1.
          1   -1    0    0  501    0  0.00000000000E+00 -0.00000000000E+00 -0.88123027238E+02  0.88123027238E+02  0.00000000000E+00 0. -1.
         25    2    1    2    0    0 -0.14852071789E+03 -0.59555405061E+02  0.11940526250E+03  0.23560714142E+03  0.12509140042E+03 0.  0.
         23    2    1    2    0    0  0.14852071789E+03  0.59555405061E+02  0.25383833936E+03  0.31388251492E+03  0.92103641232E+02 0.  0.
          5    1    3    3  502    0 -0.10343209467E+03  0.16556627452E+01  0.12388269754E+02  0.10426831280E+03  0.41800000000E+01 0. -1.
         -5    1    3    3    0  502 -0.45088623221E+02 -0.61211067806E+02  0.10701699275E+03  0.13133882862E+03  0.41800000000E+01 0. -1.
        -11    1    4    4    0    0  0.64359025001E+02  0.75122214333E+02  0.13044272294E+03  0.16370930076E+03  0.00000000000E+00 0.  1.
         11    1    4    4    0    0  0.84161692890E+02 -0.15566809272E+02  0.12339561641E+03  0.15017321416E+03  0.00000000000E+00 0. -1.
</event>
<event>
 8    1  0.7232317E-009  0.1941198E+03  0.7561462E-02  0.1154797E+00
         -1   -1    0    0    0  501 -0.00000000000E+00  0.00000000000E+00  0.26273460303E+03  0.26273460303E+03  0.00000000000E+00 0.  1.
          1   -1    0    0  501    0  0.00000000000E+00 -0.00000000000E+00 -0.25442318152E+03  0.25442318152E+03  0.00000000000E+00 0. -1.
         25    2    1    2    0    0 -0.15499840481E+03  0.61465797154E+02  0.16866909132E+03  0.26814027832E+03  0.12508955503E+03 0.  0.
         23    2    1    2    0    0  0.15499840481E+03 -0.61465797154E+02 -0.16035766981E+03  0.24901750623E+03  0.92155230082E+02 0.  0.
          5    1    3    3  502    0  0.13548092168E+02 -0.81027076567E+01  0.44754735549E+02  0.47640984739E+02  0.41800000000E+01 0.  1.
         -5    1    3    3    0  502 -0.16854649697E+03  0.69568504811E+02  0.12391435577E+03  0.22049929358E+03  0.41800000000E+01 0.  1.
        -11    1    4    4    0    0  0.77284109044E+02  0.16949137593E+02 -0.54572816667E+02  0.96116070950E+02  0.00000000000E+00 0.  1.
         11    1    4    4    0    0  0.77714295761E+02 -0.78414934747E+02 -0.10578485314E+03  0.15290143528E+03  0.00000000000E+00 0. -1.
</event>
<event>
 8    1  0.7232317E-009  0.1375825E+03  0.7561462E-02  0.1216619E+00
         -1   -1    0    0    0  501 -0.00000000000E+00  0.00000000000E+00  0.92016096008E+02  0.92016096008E+02  0.00000000000E+00 0.  1.
          1   -1    0    0  501    0  0.00000000000E+00 -0.00000000000E+00 -0.26369364103E+03  0.26369364103E+03  0.00000000000E+00 0. -1.
         25    2    1    2    0    0 -0.52937904372E+01 -0.94773704871E+02 -0.26624105805E+02  0.15927169162E+03  0.12509416209E+03 0.  0.
         23    2    1    2    0    0  0.52937904372E+01  0.94773704871E+02 -0.14505343922E+03  0.19643804542E+03  0.92397652063E+02 0.  0.
          5    1    3    3  502    0 -0.20138250625E+02 -0.11696708722E+03 -0.44548929152E+02  0.12684213858E+03  0.41800000000E+01 0.  1.
         -5    1    3    3    0  502  0.14844460187E+02  0.22193382348E+02  0.17924823347E+02  0.32429553039E+02  0.41800000000E+01 0.  1.
        -11    1    4    4    0    0 -0.12344484060E+02  0.10713212148E+03 -0.10268044611E+03  0.14890584862E+03  0.00000000000E+00 0.  1.
         11    1    4    4    0    0  0.17638274497E+02 -0.12358416604E+02 -0.42372993102E+02  0.47532196800E+02  0.00000000000E+00 0. -1.
</event>
<event>
 8    1  0.7232317E-009  0.3413839E+03  0.7561462E-02  0.1066208E+00
          2   -1    0    0  501    0  0.00000000000E+00  0.00000000000E+00  0.68974405682E+03  0.68974405682E+03  0.00000000000E+00 0.  1.
         -2   -1    0    0    0  501 -0.00000000000E+00 -0.00000000000E+00 -0.18147650027E+03  0.18147650027E+03  0.00000000000E+00 0. -1.
         25    2    1    2    0    0  0.33156209229E+03 -0.50144834333E+02  0.29286761914E+03  0.46245703044E+03  0.12508851750E+03 0.  0.
         23    2    1    2    0    0 -0.33156209229E+03  0.50144834333E+02  0.21539993741E+03  0.40876352666E+03  0.90788557859E+02 0.  0.
          5    1    3    3  502    0  0.17176681550E+03 -0.15618078648E+02  0.22940222886E+03  0.28703766006E+03  0.41800000000E+01 0. -1.
         -5    1    3    3    0  502  0.15979527678E+03 -0.34526755684E+02  0.63465390280E+02  0.17541937038E+03  0.41800000000E+01 0. -1.
        -11    1    4    4    0    0 -0.23059311932E+03 -0.69765269881E+01  0.13094420929E+03  0.26527013506E+03  0.00000000000E+00 0. -1.
         11    1    4    4    0    0 -0.10096897297E+03  0.57121361321E+02  0.84455728114E+02  0.14349339160E+03  0.00000000000E+00 0.  1.
</event>
<event>
 8    1  0.7232317E-009  0.1659563E+03  0.7561462E-02  0.1182132E+00
          1   -1    0    0  501    0  0.00000000000E+00  0.00000000000E+00  0.18464489918E+03  0.18464489918E+03  0.00000000000E+00 0. -1.
         -1   -1    0    0    0  501 -0.00000000000E+00 -0.00000000000E+00 -0.17974774243E+03  0.17974774243E+03  0.00000000000E+00 0.  1.
         25    2    1    2    0    0  0.11710608664E+03 -0.83228100726E+02  0.26244449540E+02  0.19229296303E+03  0.12508820975E+03 0.  0.
         23    2    1    2    0    0 -0.11710608664E+03  0.83228100726E+02 -0.21347292784E+02  0.17209967859E+03  0.92313813605E+02 0.  0.
          5    1    3    3  502    0  0.54026296142E+01 -0.44084752710E+02  0.54601476360E+02  0.70508492034E+02  0.41800000000E+01 0.  1.
         -5    1    3    3    0  502  0.11170345702E+03 -0.39143348016E+02 -0.28357026819E+02  0.12178447099E+03  0.41800000000E+01 0.  1.
        -11    1    4    4    0    0 -0.65928420859E+02 -0.57917455664E+01  0.41058220247E+01  0.66309567697E+02  0.00000000000E+00 0.  1.
         11    1    4    4    0    0 -0.51177665778E+02  0.89019846293E+02 -0.25453114809E+02  0.10579011089E+03  0.00000000000E+00 0. -1.
</event>
<event>
 8    1  0.7232317E-009  0.1404789E+03  0.7561462E-02  0.1212686E+00
          2   -1    0    0  501    0  0.00000000000E+00  0.00000000000E+00  0.18745464651E+03  0.18745464651E+03  0.00000000000E+00 0. -1.
         -2   -1    0    0    0  501 -0.00000000000E+00 -0.00000000000E+00 -0.15256345997E+03  0.15256345997E+03  0.00000000000E+00 0.  1.
         25    2    1    2    0    0 -0.76552981600E+02 -0.10085292186E+03  0.45047015586E+02  0.18359765386E+03  0.12508874469E+03 0.  0.
         23    2    1    2    0    0  0.76552981600E+02  0.10085292186E+03 -0.10155829046E+02  0.15642045263E+03  0.91282782034E+02 0.  0.
          5    1    3    3  502    0 -0.66927159204E+02 -0.32584032901E+02  0.77275834928E+02  0.10737779520E+03  0.41800000000E+01 0.  1.
         -5    1    3    3    0  502 -0.96258223957E+01 -0.68268888963E+02 -0.32228819342E+02  0.76219858653E+02  0.41800000000E+01 0.  1.
        -11    1    4    4    0    0  0.32542496526E+02  0.84211142296E+02 -0.42034503695E+02  0.99586294578E+02  0.00000000000E+00 0.  1.
         11    1    4    4    0    0  0.44010485074E+02  0.16641779568E+02  0.31878674649E+02  0.56834158048E+02  0.00000000000E+00 0. -1.
</event>
<event>
 8    1  0.7232317E-009  0.1237686E+03  0.7561462E-02  0.1237006E+00
         -2   -1    0    0    0  501 -0.00000000000E+00  0.00000000000E+00  0.21698134428E+03  0.21698134428E+03  0.00000000000E+00 0.  1.
          2   -1    0    0  501    0  0.00000000000E+00 -0.00000000000E+00 -0.81837690501E+02  0.81837690501E+02  0.00000000000E+00 0. -1.
         25    2    1    2    0    0  0.54167127853E+02 -0.54040507397E+02  0.83664938663E+02  0.16882328253E+03  0.12508806731E+03 0.  0.
         23    2    1    2    0    0 -0.54167127853E+02  0.54040507397E+02  0.51478715119E+02  0.12999575225E+03  0.91620867238E+02 0.  0.
          5    1    3    3  502    0  0.84760091667E+02 -0.94705721275E+00  0.54229304254E+02  0.10071474518E+03  0.41800000000E+01 0.  1.
         -5    1    3    3    0  502 -0.30592963814E+02 -0.53093450184E+02  0.29435634409E+02  0.68108537353E+02  0.41800000000E+01 0.  1.
        -11    1    4    4    0    0  0.10955585474E+02 -0.61564012989E+01  0.38337462894E+02  0.40344605478E+02  0.00000000000E+00 0.  1.
         11    1    4    4    0    0 -0.65122713327E+02  0.60196908696E+02  0.13141252224E+02  0.89651146772E+02  0.00000000000E+00 0. -1.
</event>
<event>
 8    1  0.7232317E-009  0.4024783E+03  0.7561462E-02  0.1042925E+00
          1   -1    0    0  501    0  0.00000000000E+00  0.00000000000E+00  0.79556390136E+03  0.79556390136E+03  0.00000000000E+00 0. -1.
         -1   -1    0    0    0  501 -0.00000000000E+00 -0.00000000000E+00 -0.21381993700E+03  0.21381993700E+03  0.00000000000E+00 0.  1.
         25    2    1    2    0    0 -0.33909876492E+03  0.20102787032E+03  0.23001580132E+03  0.47323937134E+03  0.12509219285E+03 0.  0.
         23    2    1    2    0    0  0.33909876492E+03 -0.20102787032E+03  0.35172816304E+03  0.53614446702E+03  0.91312714472E+02 0.  0.
          5    1    3    3  502    0 -0.17539282563E+03  0.15603611215E+03  0.18106039614E+03  0.29649662903E+03  0.41800000000E+01 0. -1.
         -5    1    3    3    0  502 -0.16370593929E+03  0.44991758178E+02  0.48955405181E+02  0.17674274231E+03  0.41800000000E+01 0. -1.
        -11    1    4    4    0    0  0.20196633815E+03 -0.15858340932E+03  0.18709559593E+03  0.31771663707E+03  0.00000000000E+00 0.  1.
         11    1    4    4    0    0  0.13713242677E+03 -0.42444461002E+02  0.16463256711E+03  0.21842782995E+03  0.00000000000E+00 0. -1.
</event>
<event>
 8    1  0.7232317E-009  0.7097291E+02  0.7561462E-02  0.1356816E+00
          1   -1    0    0  501    0  0.00000000000E+00  0.00000000000E+00  0.13246708181E+03  0.13246708181E+03  0.00000000000E+00 0. -1.
         -1   -1    0    0    0  501 -0.00000000000E+00 -0.00000000000E+00 -0.11094705418E+03  0.11094705418E+03  0.00000000000E+00 0.  1.
         25    2    1    2    0    0  0.25563438875E+02 -0.31342986816E+02 -0.29009972154E+02  0.13463112127E+03  0.12509231831E+03 0.  0.
         23    2    1    2    0    0 -0.25563438875E+02  0.31342986816E+02  0.50529999785E+02  0.10878301472E+03  0.87433352805E+02 0.  0.
          5    1    3    3  502    0  0.17450242012E+02  0.27946075265E+02 -0.58893613951E+02  0.67612308296E+02  0.41800000000E+01 0.  1.
         -5    1    3    3    0  502  0.81131968636E+01 -0.59289062081E+02  0.29883641796E+02  0.67018812977E+02  0.41800000000E+01 0.  1.
        -11    1    4    4    0    0 -0.30784169034E+02  0.21319197733E+02 -0.16418740946E+02  0.40887018837E+02  0.00000000000E+00 0.  1.
         11    1    4    4    0    0  0.52207301593E+01  0.10023789083E+02  0.66948740731E+02  0.67895995879E+02  0.00000000000E+00 0. -1.
</event>
<event>
 7    1  0.7232317E-009  0.8187551E+02  0.7561462E-02  0.1323812E+00
         -1   -1    0    0    0  501 -0.00000000000E+00  0.00000000000E+00  0.59546303350E+03  0.59546303350E+03  0.00000000000E+00 0.  1.
          1   -1    0    0  501    0  0.00000000000E+00 -0.00000000000E+00 -0.28151219073E+02  0.28151219073E+02  0.00000000000E+00 0. -1.
         23    2    1    2    0    0  0.62201477129E+02 -0.34057796302E+02  0.28090117134E+03  0.30302319400E+03  0.88817964351E+02 0.  0.
          5    1    1    2  502    0 -0.55611643222E+02  0.37128258163E+02  0.48930305737E+02  0.82962700267E+02  0.41800000000E+01 0. -1.
         -5    1    1    2    0  502 -0.65898339075E+01 -0.30704618615E+01  0.23748033735E+03  0.23762835831E+03  0.41800000000E+01 0. -1.
        -11    1    3    3    0    0  0.51865875336E+02  0.94126056913E+00  0.24963458960E+03  0.25496741619E+03  0.00000000000E+00 0.  1.
         11    1    3    3    0    0  0.10335601794E+02 -0.34999056871E+02  0.31266581745E+02  0.48055777803E+02  0.00000000000E+00 0. -1.
</event>
<event>
 8    1  0.7232317E-009  0.1932272E+03  0.7561462E-02  0.1155582E+00
         -1   -1    0    0    0  501 -0.00000000000E+00  0.00000000000E+00  0.10212481354E+03  0.10212481354E+03  0.00000000000E+00 0.  1.
          1   -1    0    0  501    0  0.00000000000E+00 -0.00000000000E+00 -0.44826937426E+03  0.44826937426E+03  0.00000000000E+00 0. -1.
         25    2    1    2    0    0 -0.20749590586E+02 -0.18099228841E+03 -0.14370215476E+03  0.26360431637E+03  0.12509265507E+03 0.  0.
         23    2    1    2    0    0  0.20749590586E+02  0.18099228841E+03 -0.20244240595E+03  0.28678987143E+03  0.89870733021E+02 0.  0.
          5    1    3    3  502    0 -0.30961152742E+02 -0.53635055497E+02 -0.11782852072E+03  0.13317786923E+03  0.41800000000E+01 0.  1.
         -5    1    3    3    0  502  0.10211562155E+02 -0.12735723291E+03 -0.25873634046E+02  0.13042644714E+03  0.41800000000E+01 0.  1.
        -11    1    4    4    0    0 -0.11099565939E+02 -0.15874919972E+01 -0.35930627396E+02  0.37639480335E+02  0.00000000000E+00 0. -1.
         11    1    4    4    0    0  0.31849156525E+02  0.18257978040E+03 -0.16651177856E+03  0.24915039109E+03  0.00000000000E+00 0.  1.
</event>
<event>
 8    1  0.7232317E-009  0.1002440E+03  0.7561462E-02  0.1279784E+00
         -3   -1    0    0    0  501 -0.00000000000E+00  0.00000000000E+00  0.11951193208E+03  0.11951193208E+03  0.00000000000E+00 0.  1.
          3   -1    0    0  501    0  0.00000000000E+00 -0.00000000000E+00 -0.20391621862E+03  0.20391621862E+03  0.00000000000E+00 0. -1.
         25    2    1    2    0    0 -0.52808995615E+02 -0.47853926747E+02  0.43468550520E+02  0.15038453673E+03  0.12508879119E+03 0.  0.
         23    2    1    2    0    0  0.52808995615E+02  0.47853926747E+02 -0.12787283706E+03  0.17304361397E+03  0.92270480412E+02 0.  0.
          5    1    3    3  502    0  0.13764457164E+02 -0.16723586977E+02 -0.35899530699E+02  0.42135345576E+02  0.41800000000E+01 0. -1.
         -5    1    3    3    0  502 -0.66573452779E+02 -0.31130339770E+02  0.79368081219E+02  0.10824919115E+03  0.41800000000E+01 0. -1.
        -11    1    4    4    0    0  0.19917374523E+02 -0.20734133337E+02 -0.59843720080E+01  0.29366967863E+02  0.00000000000E+00 0.  1.
         11    1    4    4    0    0  0.32891621092E+02  0.68588060084E+02 -0.12188846505E+03  0.14367664611E+03  0.00000000000E+00 0. -1.
</event>
<event>
 8    1  0.7232317E-009  0.1424573E+03  0.7561462E-02  0.1210060E+00
          1   -1    0    0  501    0  0.00000000000E+00  0.00000000000E+00  0.39151891719E+02  0.39151891719E+02  0.00000000000E+00 0. -1.
         -1   -1    0    0    0  501 -0.00000000000E+00 -0.00000000000E+00 -0.53804900940E+03  0.53804900940E+03  0.00000000000E+00 0.  1.
         25    2    1    2    0    0 -0.94819688211E+01  0.92177643030E+02 -0.21944246836E+03  0.26905348341E+03  0.12509258335E+03 0.  0.
         23    2    1    2    0    0  0.94819688211E+01 -0.92177643030E+02 -0.27945464932E+03  0.30814741770E+03  0.90957706678E+02 0.  0.
          5    1    3    3  502    0 -0.61684218516E+02  0.17170341113E+02 -0.87905479271E+02  0.10883294131E+03  0.41800000000E+01 0. -1.
         -5    1    3    3    0  502  0.52202249695E+02  0.75007301917E+02 -0.13153698909E+03  0.16022054210E+03  0.41800000000E+01 0. -1.
        -11    1    4    4    0    0 -0.30756517850E+02 -0.82266004261E+02 -0.17586890807E+03  0.19657958102E+03  0.00000000000E+00 0.  1.
         11    1    4    4    0    0  0.40238486671E+02 -0.99116387690E+01 -0.10358574125E+03  0.11156783669E+03  0.00000000000E+00 0. -1.
</event>
<event>
 8    1  0.7232317E-009  0.9516029E+02  0.7561462E-02  0.1290815E+00
         -3   -1    0    0    0  501 -0.00000000000E+00  0.00000000000E+00  0.68228241558E+02  0.68228241558E+02  0.00000000000E+00 0.  1.
          3   -1    0    0  501    0  0.00000000000E+00 -0.00000000000E+00 -0.18409690519E+03  0.18409690519E+03  0.00000000000E+00 0. -1.
         25    2    1    2    0    0 -0.46318239187E+01  0.64837533931E+01 -0.46916698922E+02  0.13383597662E+03  0.12508956451E+03 0.  0.
         23    2    1    2    0    0  0.46318239187E+01 -0.64837533931E+01 -0.68951964707E+02  0.11848917013E+03  0.96030292874E+02 0.  0.
          5    1    3    3  502    0 -0.38954952268E+02 -0.34908719527E+02  0.12136682530E+02  0.53859803824E+02  0.41800000000E+01 0.  1.
         -5    1    3    3    0  502  0.34323128349E+02  0.41392472920E+02 -0.59053381451E+02  0.79976172795E+02  0.41800000000E+01 0.  1.
        -11    1    4    4    0    0 -0.37654130916E+02  0.92841065681E+01 -0.61560193213E+02  0.72757718478E+02  0.00000000000E+00 0. -1.
         11    1    4    4    0    0  0.42285954834E+02 -0.15767859961E+02 -0.73917714940E+01  0.45731451648E+02  0.00000000000E+00 0.  1.
</event>
<event>
 8    1  0.7232317E-009  0.7587810E+02  0.7561462E-02  0.1341173E+00
          1   -1    0    0  501    0  0.00000000000E+00  0.00000000000E+00  0.61575095615E+03  0.61575095615E+03  0.00000000000E+00 0. -1.
         -1   -1    0    0    0  501 -0.00000000000E+00 -0.00000000000E+00 -0.20815767406E+02  0.20815767406E+02  0.00000000000E+00 0.  1.
         25    2    1    2    0    0 -0.76515649852E+01  0.73210451558E+00  0.43133300637E+03  0.44917221487E+03  0.12509370008E+03 0.  0.
         23    2    1    2    0    0  0.76515649852E+01 -0.73210451558E+00  0.16360218237E+03  0.18739450869E+03  0.91060119624E+02 0.  0.
          5    1    3    3  502    0 -0.28380018208E+02 -0.16700910187E+02  0.41686092867E+03  0.41818040615E+03  0.41800000000E+01 0. -1.
         -5    1    3    3    0  502  0.20728453223E+02  0.17433014703E+02  0.14472077700E+02  0.30991808718E+02  0.41800000000E+01 0. -1.
        -11    1    4    4    0    0  0.23502915459E+02 -0.41346221572E+02  0.78748746347E+02  0.91995989720E+02  0.00000000000E+00 0. -1.
         11    1    4    4    0    0 -0.15851350473E+02  0.40614117057E+02  0.84853436023E+02  0.95398518967E+02  0.00000000000E+00 0.  1.
</event>
<event>
 8    1  0.7232317E-009  0.1165955E+03  0.7561462E-02  0.1248822E+00
         -2   -1    0    0    0  501 -0.00000000000E+00  0.00000000000E+00  0.64227562244E+02  0.64227562244E+02  0.00000000000E+00 0.  1.
          2   -1    0    0  501    0  0.00000000000E+00 -0.00000000000E+00 -0.33148984842E+03  0.33148984842E+03  0.00000000000E+00 0. -1.
         25    2    1    2    0    0 -0.95400558877E+02 -0.81826832844E+01 -0.12629907645E+03  0.20190923577E+03  0.12509060650E+03 0.  0.
         23    2    1    2    0    0  0.95400558877E+02  0.81826832844E+01 -0.14096320972E+03  0.19380817490E+03  0.92318791270E+02 0.  0.
          5    1    3    3  502    0 -0.21987989849E+02 -0.38081495473E+02 -0.11312853666E+03  0.12144632642E+03  0.41800000000E+01 0.  1.
         -5    1    3    3    0  502 -0.73412569029E+02  0.29898812189E+02 -0.13170539794E+02  0.80462909344E+02  0.41800000000E+01 0.  1.
        -11    1    4    4    0    0  0.62165086301E+02 -0.20791170816E+02 -0.25714530221E+02  0.70413122379E+02  0.00000000000E+00 0.  1.
         11    1    4    4    0    0  0.33235472577E+02  0.28973854100E+02 -0.11524867950E+03  0.12339505252E+03  0.00000000000E+00 0. -1.
</event>
<event>
 8    1  0.7232317E-009  0.9805958E+02  0.7561462E-02  0.1284430E+00
          2   -1    0    0  501    0  0.00000000000E+00  0.00000000000E+00  0.31637316440E+02  0.31637316440E+02  0.00000000000E+00 0. -1.
         -2   -1    0    0    0  501 -0.00000000000E+00 -0.00000000000E+00 -0.51248751161E+03  0.51248751161E+03  0.00000000000E+00 0.  1.
         25    2    1    2    0    0 -0.59871585423E+02  0.20183602813E+02 -0.22790074056E+03  0.26754439540E+03  0.12509704792E+03 0.  0.
         23    2    1    2    0    0  0.59871585423E+02 -0.20183602813E+02 -0.25294945461E+03  0.27658043266E+03  0.92311020875E+02 0.  0.
          5    1    3    3  502    0 -0.79472747323E+02  0.17426242422E+02 -0.67290202248E+02  0.10566473021E+03  0.41800000000E+01 0. -1.
         -5    1    3    3    0  502  0.19601161901E+02  0.27573603902E+01 -0.16061053831E+03  0.16187966519E+03  0.41800000000E+01 0. -1.
        -11    1    4    4    0    0  0.59265319167E+02 -0.41972615676E+02 -0.24103797284E+03  0.25174070564E+03  0.00000000000E+00 0.  1.
         11    1    4    4    0    0  0.60626625546E+00  0.21789012863E+02 -0.11911481769E+02  0.24839727016E+02  0.00000000000E+00 0. -1.
</event>
<event>
 8    1  0.7232317E-009  0.1129353E+03  0.7561462E-02  0.1255229E+00
          1   -1    0    0  501    0  0.00000000000E+00  0.00000000000E+00  0.27242281426E+04  0.27242281426E+04  0.00000000000E+00 0. -1.
         -1   -1    0    0    0  501 -0.00000000000E+00 -0.00000000000E+00 -0.14902196985E+02  0.14902196985E+02  0.00000000000E+00 0.  1.
         25    2    1    2    0    0  0.29043363035E+02 -0.66479108005E+02  0.24863839668E+04  0.24905856881E+04  0.12509536520E+03 0.  0.
         23    2    1    2    0    0 -0.29043363035E+02  0.66479108005E+02  0.22294197885E+03  0.24854465157E+03  0.82512599980E+02 0.  0.
          5    1    3    3  502    0  0.54646363081E+02 -0.92682939239E+02  0.18832767641E+04  0.18863523517E+04  0.41800000000E+01 0. -1.
         -5    1    3    3    0  502 -0.25603000046E+02  0.26203831234E+02  0.60310720272E+03  0.60423333635E+03  0.41800000000E+01 0. -1.
        -11    1    4    4    0    0  0.86419673105E+01  0.81497316252E+01 -0.29331265041E+01  0.12235397650E+02  0.00000000000E+00 0.  1.
         11    1    4    4    0    0 -0.37685330346E+02  0.58329376380E+02  0.22587510535E+03  0.23630925392E+03  0.00000000000E+00 0. -1.
</event>
<event>
 8    1  0.7232317E-009  0.2427654E+03  0.7561462E-02  0.1117964E+00
          2   -1    0    0  501    0  0.00000000000E+00  0.00000000000E+00  0.76111113873E+03  0.76111113873E+03  0.00000000000E+00 0. -1.
         -2   -1    0    0    0  501 -0.00000000000E+00 -0.00000000000E+00 -0.82178577984E+02  0.82178577984E+02  0.00000000000E+00 0.  1.
         25    2    1    2    0    0  0.16821875902E+03  0.14324400628E+03  0.28025613089E+03  0.37816077789E+03  0.12508268789E+03 0.  0.
         23    2    1    2    0    0 -0.16821875902E+03 -0.14324400628E+03  0.39867642986E+03  0.46512893883E+03  0.92658716767E+02 0.  0.
          5    1    3    3  502    0 -0.12180424507E+02  0.41570179977E+02  0.27915200842E+02  0.51702741151E+02  0.41800000000E+01 0. -1.
         -5    1    3    3    0  502  0.18039918352E+03  0.10167382630E+03  0.25234093005E+03  0.32645803673E+03  0.41800000000E+01 0. -1.
        -11    1    4    4    0    0 -0.12267473016E+03 -0.14421957279E+03  0.35327293231E+03  0.40081185025E+03  0.00000000000E+00 0. -1.
         11    1    4    4    0    0 -0.45544028853E+02  0.97556650931E+00  0.45403497551E+02  0.64317088585E+02  0.00000000000E+00 0.  1.
</event>
<event>
 8    1  0.7232317E-009  0.1080215E+03  0.7561462E-02  0.1264278E+00
          2   -1    0    0  501    0  0.00000000000E+00  0.00000000000E+00  0.34459672891E+03  0.34459672891E+03  0.00000000000E+00 0. -1.
         -2   -1    0    0    0  501 -0.00000000000E+00 -0.00000000000E+00 -0.38661046938E+02  0.38661046938E+02  0.00000000000E+00 0.  1.
         25    2    1    2    0    0 -0.32194893654E+02  0.17033218254E+02  0.20488660955E+03  0.24280286576E+03  0.12509223456E+03 0.  0.
         23    2    1    2    0    0  0.32194893654E+02 -0.17033218254E+02  0.10104907242E+03  0.14045491009E+03  0.90498757054E+02 0.  0.
          5    1    3    3  502    0 -0.66330288246E+02 -0.28691735161E+02  0.10199092078E+03  0.12507015282E+03  0.41800000000E+01 0. -1.
         -5    1    3    3    0  502  0.34135394592E+02  0.45724953415E+02  0.10289568877E+03  0.11773271294E+03  0.41800000000E+01 0. -1.
        -11    1    4    4    0    0  0.34799104022E+02 -0.45818510409E+02  0.94785674195E+02  0.11088118673E+03  0.00000000000E+00 0.  1.
         11    1    4    4    0    0 -0.26042103680E+01  0.28785292155E+02  0.62633982273E+01  0.29573723361E+02  0.00000000000E+00 0. -1.
</event>
<event>
 8    1  0.7232317E-009  0.1201891E+03  0.7561462E-02  0.1242785E+00
         -3   -1    0    0    0  501 -0.00000000000E+00  0.00000000000E+00  0.33528304010E+03  0.33528304010E+03  0.00000000000E+00 0.  1.
          3   -1    0    0  501    0  0.00000000000E+00 -0.00000000000E+00 -0.61076016967E+02  0.61076016967E+02  0.00000000000E+00 0. -1.
         25    2    1    2    0    0 -0.28035722484E+02  0.95768343907E+02  0.10815443060E+03  0.19313614067E+03  0.12508641232E+03 0.  0.
         23    2    1    2    0    0  0.28035722484E+02 -0.95768343907E+02  0.16605259253E+03  0.20322291639E+03  0.61388214100E+02 0.  0.
          5    1    3    3  502    0  0.28189746019E+02  0.54921928646E+02  0.10688480857E+03  0.12350269118E+03  0.41800000000E+01 0.  1.
         -5    1    3    3    0  502 -0.56225468503E+02  0.40846415261E+02  0.12696220343E+01  0.69633449493E+02  0.41800000000E+01 0.  1.
        -11    1    4    4    0    0 -0.11883303980E+02 -0.21853162662E+02  0.76469467609E+02  0.80413637576E+02  0.00000000000E+00 0.  1.
         11    1    4    4    0    0  0.39919026464E+02 -0.73915181245E+02  0.89583124922E+02  0.12280927882E+03  0.00000000000E+00 0. -1.
</event>
<event>
 8    1  0.7232317E-009  0.1529202E+03  0.7561462E-02  0.1196930E+00
         -1   -1    0    0    0  501 -0.00000000000E+00  0.00000000000E+00  0.21239355376E+03  0.21239355376E+03  0.00000000000E+00 0.  1.
          1   -1    0    0  501    0  0.00000000000E+00 -0.00000000000E+00 -0.14281108900E+03  0.14281108900E+03  0.00000000000E+00 0. -1.
         25    2    1    2    0    0  0.53906000959E+02 -0.11692806122E+03  0.82478916460E+02  0.19755892796E+03  0.12509488365E+03 0.  0.
         23    2    1    2    0    0 -0.53906000959E+02  0.11692806122E+03 -0.12896451700E+02  0.15764571480E+03  0.90043458886E+02 0.  0.
          5    1    3    3  502    0  0.92933926710E+02 -0.90347700915E+02  0.45476010410E+02  0.13742256626E+03  0.41800000000E+01 0. -1.
         -5    1    3    3    0  502 -0.39027925750E+02 -0.26580360305E+02  0.37002906049E+02  0.60136361699E+02  0.41800000000E+01 0. -1.
        -11    1    4    4    0    0 -0.45581625512E+02  0.99153101373E+02  0.27668831076E+02  0.11258146521E+03  0.00000000000E+00 0.  1.
         11    1    4    4    0    0 -0.83243754472E+01  0.17774959847E+02 -0.40565282776E+02  0.45064249587E+02  0.00000000000E+00 0. -1.
</event>
<event>
 8    1  0.7232317E-009  0.1002605E+03  0.7561462E-02  0.1279749E+00
          1   -1    0    0  501    0  0.00000000000E+00  0.00000000000E+00  0.15693490269E+03  0.15693490269E+03  0.00000000000E+00 0. -1.
         -1   -1    0    0    0  501 -0.00000000000E+00 -0.00000000000E+00 -0.10477877735E+03  0.10477877735E+03  0.00000000000E+00 0.  1.
         25    2    1    2    0    0  0.56658447960E+02 -0.23662940389E+01 -0.11173755371E+02  0.13779184824E+03  0.12508381814E+03 0.  0.
         23    2    1    2    0    0 -0.56658447960E+02  0.23662940389E+01  0.63329880711E+02  0.12392183180E+03  0.90167441652E+02 0.  0.
          5    1    3    3  502    0 -0.32631678828E+02 -0.18548978791E+02  0.18728573536E+02  0.42155936047E+02  0.41800000000E+01 0.  1.
         -5    1    3    3    0  502  0.89290126788E+02  0.16182684752E+02 -0.29902328907E+02  0.95635912196E+02  0.41800000000E+01 0.  1.
        -11    1    4    4    0    0 -0.43842893025E+02  0.21541665023E+02 -0.75090214748E+01  0.49422950178E+02  0.00000000000E+00 0.  1.
         11    1    4    4    0    0 -0.12815554934E+02 -0.19175370984E+02  0.70838902186E+02  0.74498881626E+02  0.00000000000E+00 0. -1.
</event>
<event>
 8    1  0.7232317E-009  0.7189807E+02  0.7561462E-02  0.1353755E+00
          1   -1    0    0  501    0  0.00000000000E+00  0.00000000000E+00  0.81595384623E+02  0.81595384623E+02  0.00000000000E+00 0. -1.
         -1   -1    0    0    0  501 -0.00000000000E+00 -0.00000000000E+00 -0.20916882684E+03  0.20916882684E+03  0.00000000000E+00 0.  1.
         25    2    1    2    0    0  0.61148180759E+01 -0.30453137413E+02  0.15248132115E+01  0.12888854602E+03  0.12508056469E+03 0.  0.
         23    2    1    2    0    0 -0.61148180759E+01  0.30453137413E+02 -0.12909825543E+03  0.16187566544E+03  0.92588265610E+02 0.  0.
          5    1    3    3  502    0 -0.11868670398E+02 -0.27696170578E+02  0.60127226663E+02  0.67384708858E+02  0.41800000000E+01 0. -1.
         -5    1    3    3    0  502  0.17983488473E+02 -0.27569668354E+01 -0.58602413451E+02  0.61503837166E+02  0.41800000000E+01 0. -1.
        -11    1    4    4    0    0 -0.45645209950E+02  0.14308135159E+01 -0.82123852199E+02  0.93967332189E+02  0.00000000000E+00 0.  1.
         11    1    4    4    0    0  0.39530391874E+02  0.29022323897E+02 -0.46974403228E+02  0.67908333250E+02  0.00000000000E+00 0. -1.
</event>
<event>
 8    1  0.7232317E-009  0.1092667E+03  0.7561462E-02  0.1261934E+00
         -1   -1    0    0    0  501 -0.00000000000E+00  0.00000000000E+00  0.36005328586E+02  0.36005328586E+02  0.00000000000E+00 0.  1.
          1   -1    0    0  501    0  0.00000000000E+00 -0.00000000000E+00 -0.64278876577E+03  0.64278876577E+03  0.00000000000E+00 0. -1.
         25    2    1    2    0    0 -0.47331757239E+02  0.99615363304E+01 -0.11647906434E+03  0.17764076415E+03  0.12509732694E+03 0.  0.
         23    2    1    2    0    0  0.47331757239E+02 -0.99615363304E+01 -0.49030437284E+03  0.50115333020E+03  0.91742873833E+02 0.  0.
          5    1    3    3  502    0  0.27378041257E+02  0.28248218976E+02 -0.19374381836E+01  0.39607386750E+02  0.41800000000E+01 0. -1.
         -5    1    3    3    0  502 -0.74709798497E+02 -0.18286682646E+02 -0.11454162616E+03  0.13803337740E+03  0.41800000000E+01 0. -1.
        -11    1    4    4    0    0 -0.27039278388E+02 -0.12921719343E+01 -0.93197977400E+02  0.97049756700E+02  0.00000000000E+00 0. -1.
         11    1    4    4    0    0  0.74371035627E+02 -0.86693643960E+01 -0.39710639544E+03  0.40410357350E+03  0.00000000000E+00 0.  1.
</event>
<event>
 8    1  0.7232317E-009  0.1075804E+03  0.7561462E-02  0.1265117E+00
         -2   -1    0    0    0  501 -0.00000000000E+00  0.00000000000E+00  0.89301059558E+02  0.89301059558E+02  0.00000000000E+00 0.  1.
          2   -1    0    0  501    0  0.00000000000E+00 -0.00000000000E+00 -0.15786634221E+03  0.15786634221E+03  0.00000000000E+00 0. -1.
         25    2    1    2    0    0  0.41238374047E+02  0.23193964168E+02 -0.38474207874E+02  0.13916214038E+03  0.12508906098E+03 0.  0.
         23    2    1    2    0    0 -0.41238374047E+02 -0.23193964168E+02 -0.30091074777E+02  0.10800526138E+03  0.92309805748E+02 0.  0.
          5    1    3    3  502    0  0.61447680576E+02  0.49231705411E+02  0.10953907907E+02  0.79605519685E+02  0.41800000000E+01 0. -1.
         -5    1    3    3    0  502 -0.20209306529E+02 -0.26037741243E+02 -0.49428115781E+02  0.59556620699E+02  0.41800000000E+01 0. -1.
        -11    1    4    4    0    0 -0.61448591705E+02  0.11900485396E+02 -0.24085298380E+02  0.67064540357E+02  0.00000000000E+00 0.  1.
         11    1    4    4    0    0  0.20210217658E+02 -0.35094449564E+02 -0.60057763978E+01  0.40940721026E+02  0.00000000000E+00 0. -1.
</event>
<event>
 8    1  0.7232317E-009  0.9220046E+02  0.7561462E-02  0.1297609E+00
         -1   -1    0    0    0  501 -0.00000000000E+00  0.00000000000E+00  0.63934723310E+02  0.63934723310E+02  0.00000000000E+00 0.  1.
          1   -1    0    0  501    0  0.00000000000E+00 -0.00000000000E+00 -0.25793778542E+03  0.25793778542E+03  0.00000000000E+00 0. -1.
         25    2    1    2    0    0 -0.11665788391E+02 -0.12431280454E+02 -0.24369222762E+02  0.12857753805E+03  0.12509075473E+03 0.  0.
         23    2    1    2    0    0  0.11665788391E+02  0.12431280454E+02 -0.16963383935E+03  0.19329497069E+03  0.91086106992E+02 0.  0.
          5    1    3    3  502    0  0.10859197636E+02  0.50378887793E+02 -0.32737908728E+02  0.61198019383E+02  0.41800000000E+01 0. -1.
         -5    1    3    3    0  502 -0.22524986027E+02 -0.62810168246E+02  0.83686859664E+01  0.67379518665E+02  0.41800000000E+01 0. -1.
        -11    1    4    4    0    0 -0.24075064662E+02  0.17467116719E+02 -0.12834429715E+02  0.32394930020E+02  0.00000000000E+00 0.  1.
         11    1    4    4    0    0  0.35740853053E+02 -0.50358362650E+01 -0.15679940964E+03  0.16090004067E+03  0.00000000000E+00 0. -1.
</event>
<event>
 8    1  0.7232317E-009  0.1132690E+03  0.7561462E-02  0.1254633E+00
         -1   -1    0    0    0  501 -0.00000000000E+00  0.00000000000E+00  0.22237092776E+03  0.22237092776E+03  0.00000000000E+00 0.  1.
          1   -1    0    0  501    0  0.00000000000E+00 -0.00000000000E+00 -0.65218675688E+02  0.65218675688E+02  0.00000000000E+00 0. -1.
         25    2    1    2    0    0 -0.47865950292E+00  0.42205656280E+02  0.12404754074E+03  0.18115553994E+03  0.12509192920E+03 0.  0.
         23    2    1    2    0    0  0.47865950292E+00 -0.42205656280E+02  0.33104711331E+02  0.10643406350E+03  0.91927914282E+02 0.  0.
          5    1    3    3  502    0 -0.61008618720E+02  0.26348143553E+02  0.82098264044E+02  0.10570654467E+03  0.41800000000E+01 0.  1.
         -5    1    3    3    0  502  0.60529959217E+02  0.15857512728E+02  0.41949276696E+02  0.75448995275E+02  0.41800000000E+01 0.  1.
        -11    1    4    4    0    0 -0.31988926423E+02 -0.53943529212E+02  0.69050149513E+01  0.63094175556E+02  0.00000000000E+00 0.  1.
         11    1    4    4    0    0  0.32467585926E+02  0.11737872932E+02  0.26199696379E+02  0.43339887946E+02  0.00000000000E+00 0. -1.
</event>
<event>
 8    1  0.7232317E-009  0.1060261E+03  0.7561462E-02  0.1268111E+00
          2   -1    0    0  501    0  0.00000000000E+00  0.00000000000E+00  0.19519014899E+03  0.19519014899E+03  0.00000000000E+00 0. -1.
         -2   -1    0    0    0  501 -0.00000000000E+00 -0.00000000000E+00 -0.70042363013E+02  0.70042363013E+02  0.00000000000E+00 0.  1.
         25    2    1    2    0    0 -0.17525143029E+02 -0.74496722060E+01  0.11038191816E+03  0.16790964643E+03  0.12508738247E+03 0.  0.
         23    2    1    2    0    0  0.17525143029E+02  0.74496722060E+01  0.14765867817E+02  0.97322865575E+02  0.94292529169E+02 0.  0.
          5    1    3    3  502    0 -0.64382104630E+02 -0.28247413298E+02  0.40845584521E+02  0.81417479263E+02  0.41800000000E+01 0.  1.
         -5    1    3    3    0  502  0.46856961601E+02  0.20797741092E+02  0.69536333637E+02  0.86492167164E+02  0.41800000000E+01 0.  1.
        -11    1    4    4    0    0  0.88718140785E+01 -0.40500994855E+02 -0.10021344530E+02  0.42655210883E+02  0.00000000000E+00 0.  1.
         11    1    4    4    0    0  0.86533289504E+01  0.47950667061E+02  0.24787212346E+02  0.54667654691E+02  0.00000000000E+00 0. -1.
</event>
<event>
 8    1  0.7232317E-009  0.1123031E+03  0.7561462E-02  0.1256363E+00
         -2   -1    0    0    0  501 -0.00000000000E+00  0.00000000000E+00  0.36229963408E+02  0.36229963408E+02  0.00000000000E+00 0.  1.
          2   -1    0    0  501    0  0.00000000000E+00 -0.00000000000E+00 -0.60067445409E+03  0.60067445409E+03  0.00000000000E+00 0. -1.
         25    2    1    2    0    0 -0.37640699471E+02 -0.59921727934E+02 -0.45842723264E+03  0.48042572017E+03  0.12508360898E+03 0.  0.
         23    2    1    2    0    0  0.37640699471E+02  0.59921727934E+02 -0.10601725804E+03  0.15647869733E+03  0.90766116918E+02 0.  0.
          5    1    3    3  502    0 -0.52670509734E+02 -0.87692209139E+02 -0.40904016350E+03  0.42165795841E+03  0.41800000000E+01 0.  1.
         -5    1    3    3    0  502  0.15029810263E+02  0.27770481205E+02 -0.49387069148E+02  0.58767761756E+02  0.41800000000E+01 0.  1.
        -11    1    4    4    0    0  0.52275421969E+02  0.40899113299E+02 -0.23291493778E+02  0.70341672521E+02  0.00000000000E+00 0.  1.
         11    1    4    4    0    0 -0.14634722498E+02  0.19022614635E+02 -0.82725764260E+02  0.86137024807E+02  0.00000000000E+00 0. -1.
</event>
<event>
 8    1  0.7232317E-009  0.9477090E+02  0.7561462E-02  0.1291693E+00
         -1   -1    0    0    0  501 -0.00000000000E+00  0.00000000000E+00  0.26967076617E+03  0.26967076617E+03  0.00000000000E+00 0.  1.
          1   -1    0    0  501    0  0.00000000000E+00 -0.00000000000E+00 -0.49605400740E+02  0.49605400740E+02  0.00000000000E+00 0. -1.
         25    2    1    2    0    0 -0.35911311635E+02 -0.30277962145E+02  0.12068022520E+03  0.18004348014E+03  0.12508221573E+03 0.  0.
         23    2    1    2    0    0  0.35911311635E+02  0.30277962145E+02  0.99385140222E+02  0.13923268676E+03  0.85451493092E+02 0.  0.
          5    1    3    3  502    0 -0.43919985107E+02 -0.52488893586E+02  0.13549609949E+03  0.15185754647E+03  0.41800000000E+01 0. -1.
         -5    1    3    3    0  502  0.80086734719E+01  0.22210931441E+02 -0.14815874287E+02  0.28185933675E+02  0.41800000000E+01 0. -1.
        -11    1    4    4    0    0  0.55533635226E+02 -0.58932683995E+01  0.50082064959E+02  0.75012855461E+02  0.00000000000E+00 0. -1.
         11    1    4    4    0    0 -0.19622323591E+02  0.36171230545E+02  0.49303075263E+02  0.64219831303E+02  0.00000000000E+00 0.  1.
</event>
<event>
 8    1  0.7232317E-009  0.1181734E+03  0.7561462E-02  0.1246141E+00
         -2   -1    0    0    0  501 -0.00000000000E+00  0.00000000000E+00  0.21503301065E+02  0.21503301065E+02  0.00000000000E+00 0. -1.
          2   -1    0    0  501    0  0.00000000000E+00 -0.00000000000E+00 -0.99494512243E+03  0.99494512243E+03  0.00000000000E+00 0.  1.
         25    2    1    2    0    0 -0.46904533684E+02  0.69946654198E+02 -0.69346473737E+03  0.70967128077E+03  0.12508962811E+03 0.  0.
         23    2    1    2    0    0  0.46904533684E+02 -0.69946654198E+02 -0.27997708400E+03  0.30677714273E+03  0.92911129702E+02 0.  0.
          5    1    3    3  502    0 -0.33351921466E+02 -0.30967311098E+02 -0.28759324420E+03  0.29120211457E+03  0.41800000000E+01 0. -1.
         -5    1    3    3    0  502 -0.13552612218E+02  0.10091396530E+03 -0.40587149317E+03  0.41846916619E+03  0.41800000000E+01 0. -1.
        -11    1    4    4    0    0  0.97171875832E+01 -0.39496062712E+02 -0.24234254018E+03  0.24573210918E+03  0.00000000000E+00 0.  1.
         11    1    4    4    0    0  0.37187346101E+02 -0.30450591486E+02 -0.37634543822E+02  0.61045033545E+02  0.00000000000E+00 0. -1.
</event>
<event>
 8    1  0.7232317E-009  0.1678063E+03  0.7561462E-02  0.1180155E+00
         -1   -1    0    0    0  501 -0.00000000000E+00  0.00000000000E+00  0.33582349528E+02  0.33582349528E+02  0.00000000000E+00 0.  1.
          1   -1    0    0  501    0  0.00000000000E+00 -0.00000000000E+00 -0.93883656831E+03  0.93883656831E+03  0.00000000000E+00 0. -1.
         25    2    1    2    0    0 -0.12671409902E+03  0.53393667079E+02 -0.55214706868E+03  0.58259915080E+03  0.12509212000E+03 0.  0.
         23    2    1    2    0    0  0.12671409902E+03 -0.53393667079E+02 -0.35310715010E+03  0.38981976703E+03  0.91473738001E+02 0.  0.
          5    1    3    3  502    0 -0.55629127027E+02  0.83408605155E+02 -0.22355029504E+03  0.24503836842E+03  0.41800000000E+01 0.  1.
         -5    1    3    3    0  502 -0.71084971997E+02 -0.30014938076E+02 -0.32859677364E+03  0.33756078238E+03  0.41800000000E+01 0.  1.
        -11    1    4    4    0    0  0.34763801491E+02 -0.56105244954E+02 -0.20602944572E+03  0.21634336807E+03  0.00000000000E+00 0. -1.
         11    1    4    4    0    0  0.91950297533E+02  0.27115778753E+01 -0.14707770438E+03  0.17347639896E+03  0.00000000000E+00 0.  1.
</event>
<event>
 8    1  0.7232317E-009  0.2045192E+03  0.7561462E-02  0.1145981E+00
         -1   -1    0    0    0  501 -0.00000000000E+00  0.00000000000E+00  0.23961066447E+03  0.23961066447E+03  0.00000000000E+00 0.  1.
          1   -1    0    0  501    0  0.00000000000E+00 -0.00000000000E+00 -0.24506176839E+03  0.24506176839E+03  0.00000000000E+00 0. -1.
         25    2    1    2    0    0  0.19116132446E+03  0.14618413137E+02 -0.10357779983E+03  0.25126033182E+03  0.12508814395E+03 0.  0.
         23    2    1    2    0    0 -0.19116132446E+03 -0.14618413137E+02  0.98126695918E+02  0.23341210104E+03  0.89977833303E+02 0.  0.
          5    1    3    3  502    0  0.12961229974E+03  0.33158473809E+02 -0.55562747887E+01  0.13396707513E+03  0.41800000000E+01 0.  1.
         -5    1    3    3    0  502  0.61549024726E+02 -0.18540060671E+02 -0.98021525044E+02  0.11729325670E+03  0.41800000000E+01 0.  1.
        -11    1    4    4    0    0 -0.10627513122E+03 -0.51645834499E+02  0.43632256701E+02  0.12595820561E+03  0.00000000000E+00 0.  1.
         11    1    4    4    0    0 -0.84886193245E+02  0.37027421361E+02  0.54494439218E+02  0.10745389542E+03  0.00000000000E+00 0. -1.
</event>
<event>
 8    1  0.7232317E-009  0.2764669E+03  0.7561462E-02  0.1097634E+00
         -2   -1    0    0    0  501 -0.00000000000E+00  0.00000000000E+00  0.41921513063E+02  0.41921513063E+02  0.00000000000E+00 0.  1.
          2   -1    0    0  501    0  0.00000000000E+00 -0.00000000000E+00 -0.19087044642E+04  0.19087044642E+04  0.00000000000E+00 0. -1.
         25    2    1    2    0    0 -0.18930517425E+03  0.17207326542E+03 -0.77843360527E+03  0.82888930842E+03  0.12511175055E+03 0.  0.
         23    2    1    2    0    0  0.18930517425E+03 -0.17207326542E+03 -0.10883493459E+04  0.11217366688E+04  0.91341107431E+02 0.  0.
          5    1    3    3  502    0  0.17780987764E+02  0.94042287249E+01 -0.41489034434E+02  0.46297034700E+02  0.41800000000E+01 0.  1.
         -5    1    3    3    0  502 -0.20708616202E+03  0.16266903670E+03 -0.73694457084E+03  0.78259227372E+03  0.41800000000E+01 0.  1.
        -11    1    4    4    0    0  0.19393540929E+02 -0.65828315980E+02 -0.21478376251E+03  0.22548068931E+03  0.00000000000E+00 0.  1.
         11    1    4    4    0    0  0.16991163332E+03 -0.10624494944E+03 -0.87356558335E+03  0.89625597953E+03  0.00000000000E+00 0. -1.
</event>
<event>
 8    1  0.7232317E-009  0.1526944E+03  0.7561462E-02  0.1197201E+00
          1   -1    0    0  501    0  0.00000000000E+00  0.00000000000E+00  0.70728416752E+03  0.70728416752E+03  0.00000000000E+00 0. -1.
         -1   -1    0    0    0  501 -0.00000000000E+00 -0.00000000000E+00 -0.59740060077E+02  0.59740060077E+02  0.00000000000E+00 0.  1.
         25    2    1    2    0    0  0.83616913375E+01  0.14731014518E+03  0.16583241458E+03  0.25478789645E+03  0.12508511381E+03 0.  0.
         23    2    1    2    0    0 -0.83616913375E+01 -0.14731014518E+03  0.48171169287E+03  0.51223633115E+03  0.92572712783E+02 0.  0.
          5    1    3    3  502    0 -0.71874143588E+01  0.11175200907E+03  0.18102402150E+03  0.21290218227E+03  0.41800000000E+01 0. -1.
         -5    1    3    3    0  502  0.15549105696E+02  0.35558136111E+02 -0.15191606919E+02  0.41885714180E+02  0.41800000000E+01 0. -1.
        -11    1    4    4    0    0 -0.26986145809E+02 -0.78551177656E+02  0.13675940476E+03  0.16000523231E+03  0.00000000000E+00 0.  1.
         11    1    4    4    0    0  0.18624454471E+02 -0.68758967520E+02  0.34495228811E+03  0.35223109884E+03  0.00000000000E+00 0. -1.
</event>
<event>
 8    1  0.7232317E-009  0.1405007E+03  0.7561462E-02  0.1212657E+00
         -2   -1    0    0    0  501 -0.00000000000E+00  0.00000000000E+00  0.50097696968E+03  0.50097696968E+03  0.00000000000E+00 0.  1.
          2   -1    0    0  501    0  0.00000000000E+00 -0.00000000000E+00 -0.50570387380E+02  0.50570387380E+02  0.00000000000E+00 0. -1.
         25    2    1    2    0    0 -0.87282726074E+02  0.76187902584E+02  0.28207088959E+03  0.32959833340E+03  0.12509278096E+03 0.  0.
         23    2    1    2    0    0  0.87282726074E+02 -0.76187902584E+02  0.16833569271E+03  0.22194902366E+03  0.86611736479E+02 0.  0.
          5    1    3    3  502    0 -0.63706364722E+02 -0.19302582700E+02  0.75325877030E+02  0.10061088786E+03  0.41800000000E+01 0.  1.
         -5    1    3    3    0  502 -0.23576361352E+02  0.95490485283E+02  0.20674501256E+03  0.22898744554E+03  0.41800000000E+01 0.  1.
        -11    1    4    4    0    0  0.56657701454E+02 -0.49449634792E+02  0.35744117031E+02  0.83264658874E+02  0.00000000000E+00 0. -1.
         11    1    4    4    0    0  0.30625024620E+02 -0.26738267792E+02  0.13259157567E+03  0.13868436479E+03  0.00000000000E+00 0.  1.
</event>
<event>
 8    1  0.7232317E-009  0.1256937E+03  0.7561462E-02  0.1233989E+00
          2   -1    0    0  501    0  0.00000000000E+00  0.00000000000E+00  0.10091234523E+04  0.10091234523E+04  0.00000000000E+00 0.  1.
         -2   -1    0    0    0  501 -0.00000000000E+00 -0.00000000000E+00 -0.18573392532E+02  0.18573392532E+02  0.00000000000E+00 0. -1.
         25    2    1    2    0    0 -0.11543250682E+02 -0.69860177063E+02  0.74259371773E+03  0.75637762006E+03  0.12509190041E+03 0.  0.
         23    2    1    2    0    0  0.11543250682E+02  0.69860177063E+02  0.24795634201E+03  0.27131922474E+03  0.84368733511E+02 0.  0.
          5    1    3    3  502    0  0.19031811336E+02 -0.97819094223E+02  0.45649259727E+03  0.46726197020E+03  0.41800000000E+01 0.  1.
         -5    1    3    3    0  502 -0.30575062018E+02  0.27958917160E+02  0.28610112046E+03  0.28911564986E+03  0.41800000000E+01 0.  1.
        -11    1    4    4    0    0 -0.27733548531E+02 -0.23200796485E+01  0.56952046232E+02  0.63388232770E+02  0.00000000000E+00 0.  1.
         11    1    4    4    0    0  0.39276799213E+02  0.72180256712E+02  0.19100429578E+03  0.20793099197E+03  0.00000000000E+00 0. -1.
</event>
<event>
 8    1  0.7232317E-009  0.9132564E+02  0.7561462E-02  0.1299673E+00
          1   -1    0    0  501    0  0.00000000000E+00  0.00000000000E+00  0.31157829539E+02  0.31157829539E+02  0.00000000000E+00 0. -1.
         -1   -1    0    0    0  501 -0.00000000000E+00 -0.00000000000E+00 -0.41246075387E+03  0.41246075387E+03  0.00000000000E+00 0.  1.
         25    2    1    2    0    0 -0.19879489864E+02 -0.24354299406E+02 -0.20820321465E+03  0.24491617066E+03  0.12508807316E+03 0.  0.
         23    2    1    2    0    0  0.19879489864E+02  0.24354299406E+02 -0.17309970969E+03  0.19870241275E+03  0.92362402095E+02 0.  0.
          5    1    3    3  502    0 -0.57460568944E+02  0.53001617551E+01 -0.18028482328E+03  0.18934069453E+03  0.41800000000E+01 0.  1.
         -5    1    3    3    0  502  0.37581079080E+02 -0.29654461161E+02 -0.27918391366E+02  0.55575476138E+02  0.41800000000E+01 0.  1.
        -11    1    4    4    0    0 -0.26098123248E+02  0.37800605954E+01 -0.10337841908E+02  0.28324404150E+02  0.00000000000E+00 0. -1.
         11    1    4    4    0    0  0.45977613112E+02  0.20574238811E+02 -0.16276186778E+03  0.17037800860E+03  0.00000000000E+00 0.  1.
</event>
<event>
 8    1  0.7232317E-009  0.2346245E+03  0.7561462E-02  0.1123427E+00
          2   -1    0    0  501    0  0.00000000000E+00  0.00000000000E+00  0.35432806171E+03  0.35432806171E+03  0.00000000000E+00 0. -1.
         -2   -1    0    0    0  501 -0.00000000000E+00 -0.00000000000E+00 -0.30766481352E+03  0.30766481352E+03  0.00000000000E+00 0.  1.
         25    2    1    2    0    0 -0.52314961810E+02 -0.21344703345E+03  0.24503592562E+03  0.35211709370E+03  0.12508937410E+03 0.  0.
         23    2    1    2    0    0  0.52314961810E+02  0.21344703345E+03 -0.19837267743E+03  0.30987578153E+03  0.91513876074E+02 0.  0.
          5    1    3    3  502    0  0.33582352393E+02 -0.10337641820E+03  0.75299797948E+02  0.13229508760E+03  0.41800000000E+01 0. -1.
         -5    1    3    3    0  502 -0.85897314203E+02 -0.11007061525E+03  0.16973612767E+03  0.21982200610E+03  0.41800000000E+01 0. -1.
        -11    1    4    4    0    0  0.37281758516E+02  0.10746352315E+03 -0.43868738867E+02  0.12191310256E+03  0.00000000000E+00 0. -1.
         11    1    4    4    0    0  0.15033203294E+02  0.10598351030E+03 -0.15450393856E+03  0.18796267897E+03  0.00000000000E+00 0.  1.
</event>
<event>
 8    1  0.7232317E-009  0.1336185E+03  0.7561462E-02  0.1222183E+00
         -1   -1    0    0    0  501 -0.00000000000E+00  0.00000000000E+00  0.21750216319E+03  0.21750216319E+03  0.00000000000E+00 0.  1.
          1   -1    0    0  501    0  0.00000000000E+00 -0.00000000000E+00 -0.10982200745E+03  0.10982200745E+03  0.00000000000E+00 0. -1.
         25    2    1    2    0    0 -0.78457711671E+02  0.49933487288E+02 -0.35018036667E+01  0.15591008434E+03  0.12508687419E+03 0.  0.
         23    2    1    2    0    0  0.78457711671E+02 -0.49933487288E+02  0.11118195941E+03  0.17141408630E+03  0.91500793504E+02 0.  0.
          5    1    3    3  502    0  0.27859692549E+02 -0.11571033573E+02 -0.11966649651E+02  0.32721925230E+02  0.41800000000E+01 0. -1.
         -5    1    3    3    0  502 -0.10631740422E+03  0.61504520862E+02  0.84648459846E+01  0.12318815911E+03  0.41800000000E+01 0. -1.
        -11    1    4    4    0    0 -0.84651117704E+01  0.61287964581E+01  0.50338835731E+02  0.51412242181E+02  0.00000000000E+00 0.  1.
         11    1    4    4    0    0  0.86922823441E+02 -0.56062283747E+02  0.60843123676E+02  0.12000184412E+03  0.00000000000E+00 0. -1.
</event>
<event>
 8    1  0.7232317E-009  0.1677613E+03  0.7561462E-02  0.1180203E+00
          2   -1    0    0  501    0  0.00000000000E+00  0.00000000000E+00  0.14345952930E+04  0.14345952930E+04  0.00000000000E+00 0. -1.
         -2   -1    0    0    0  501 -0.00000000000E+00 -0.00000000000E+00 -0.31765790580E+02  0.31765790580E+02  0.00000000000E+00 0.  1.
         25    2    1    2    0    0  0.11810668126E+03  0.62896430984E+02  0.11603800841E+04  0.11747484860E+04  0.12508763529E+03 0.  0.
         23    2    1    2    0    0 -0.11810668126E+03 -0.62896430984E+02  0.24244941830E+03  0.29161259760E+03  0.91384010941E+02 0.  0.
          5    1    3    3  502    0  0.14411346856E+03  0.54664079948E+02  0.92600773927E+03  0.93875697549E+03  0.41800000000E+01 0. -1.
         -5    1    3    3    0  502 -0.26006787302E+02  0.82323510365E+01  0.23437234487E+03  0.23599151051E+03  0.41800000000E+01 0. -1.
        -11    1    4    4    0    0 -0.11548426284E+03 -0.77383555161E+02  0.17988859636E+03  0.22734277352E+03  0.00000000000E+00 0.  1.
         11    1    4    4    0    0 -0.26224184260E+01  0.14487124176E+02  0.62560821938E+02  0.64269824077E+02  0.00000000000E+00 0. -1.
</event>
<event>
 8    1  0.7232317E-009  0.9108624E+02  0.7561462E-02  0.1300242E+00
         -1   -1    0    0    0  501 -0.00000000000E+00  0.00000000000E+00  0.71934878189E+02  0.71934878189E+02  0.00000000000E+00 0.  1.
          1   -1    0    0  501    0  0.00000000000E+00 -0.00000000000E+00 -0.18865518409E+03  0.18865518409E+03  0.00000000000E+00 0. -1.
         25    2    1    2    0    0 -0.31727901579E+02 -0.42726317674E+01 -0.34657755919E+02  0.13369177635E+03  0.12508963145E+03 0.  0.
         23    2    1    2    0    0  0.31727901579E+02  0.42726317674E+01 -0.82062549981E+02  0.12689828593E+03  0.91345485614E+02 0.  0.
          5    1    3    3  502    0  0.90980198652E+01  0.54729116081E+02 -0.25626773126E+02  0.61255644747E+02  0.41800000000E+01 0.  1.
         -5    1    3    3    0  502 -0.40825921444E+02 -0.59001747849E+02 -0.90309827927E+01  0.72436131600E+02  0.41800000000E+01 0.  1.
        -11    1    4    4    0    0  0.42794886799E+02  0.67480362508E+01 -0.98109092310E+02  0.10724892691E+03  0.00000000000E+00 0. -1.
         11    1    4    4    0    0 -0.11066985220E+02 -0.24754044833E+01  0.16046542329E+02  0.19649359021E+02  0.00000000000E+00 0.  1.
</event>
<event>
 8    1  0.7232317E-009  0.1005167E+03  0.7561462E-02  0.1279213E+00
          1   -1    0    0  501    0  0.00000000000E+00  0.00000000000E+00  0.12569030699E+03  0.12569030699E+03  0.00000000000E+00 0. -1.
         -1   -1    0    0    0  501 -0.00000000000E+00 -0.00000000000E+00 -0.16078896126E+03  0.16078896126E+03  0.00000000000E+00 0.  1.
         25    2    1    2    0    0 -0.55316013446E+02  0.66959356442E+02 -0.40740229910E+01  0.15232418580E+03  0.12507055272E+03 0.  0.
         23    2    1    2    0    0  0.55316013446E+02 -0.66959356442E+02 -0.31024631276E+02  0.13415508245E+03  0.97425056546E+02 0.  0.
          5    1    3    3  502    0 -0.28688109317E+02  0.62770592939E+02  0.54284216826E+02  0.87905651414E+02  0.41800000000E+01 0.  1.
         -5    1    3    3    0  502 -0.26627904129E+02  0.41887635036E+01 -0.58358239817E+02  0.64418534387E+02  0.41800000000E+01 0.  1.
        -11    1    4    4    0    0 -0.28959064236E+01 -0.40615072230E+02  0.26167897825E+02  0.48401748345E+02  0.00000000000E+00 0. -1.
         11    1    4    4    0    0  0.58211919869E+02 -0.26344284212E+02 -0.57192529100E+02  0.85753334107E+02  0.00000000000E+00 0.  1.
</event>
<event>
 8    1  0.7232317E-009  0.1227485E+03  0.7561462E-02  0.1238631E+00
          2   -1    0    0  501    0  0.00000000000E+00  0.00000000000E+00  0.27969878216E+03  0.27969878216E+03  0.00000000000E+00 0. -1.
         -2   -1    0    0    0  501 -0.00000000000E+00 -0.00000000000E+00 -0.83937979096E+02  0.83937979096E+02  0.00000000000E+00 0.  1.
         25    2    1    2    0    0  0.48246261088E+02 -0.49972396898E+02  0.20928728956E+03  0.25349985258E+03  0.12504424628E+03 0.  0.
         23    2    1    2    0    0 -0.48246261088E+02  0.49972396898E+02 -0.13526486494E+02  0.11013690868E+03  0.84393309304E+02 0.  0.
          5    1    3    3  502    0  0.89547356394E+02 -0.25703387732E+02  0.11881429844E+03  0.15104205736E+03  0.41800000000E+01 0. -1.
         -5    1    3    3    0  502 -0.41301095306E+02 -0.24269009166E+02  0.90472991121E+02  0.10245779522E+03  0.41800000000E+01 0. -1.
        -11    1    4    4    0    0 -0.61810311026E+02  0.60873102363E+02  0.20577020772E+01  0.86777204831E+02  0.00000000000E+00 0. -1.
         11    1    4    4    0    0  0.13564049937E+02 -0.10900705465E+02 -0.15584188571E+02  0.23359703846E+02  0.00000000000E+00 0.  1.
</event>
<event>
 8    1  0.7232317E-009  0.1071359E+03  0.7561462E-02  0.1265968E+00
          2   -1    0    0  501    0  0.00000000000E+00  0.00000000000E+00  0.36487605667E+02  0.36487605667E+02  0.00000000000E+00 0.  1.
         -2   -1    0    0    0  501 -0.00000000000E+00 -0.00000000000E+00 -0.45432633862E+03  0.45432633862E+03  0.00000000000E+00 0. -1.
         25    2    1    2    0    0  0.45787092029E+02 -0.62756876526E+02 -0.24974509738E+03  0.28992172013E+03  0.12508839589E+03 0.  0.
         23    2    1    2    0    0 -0.45787092029E+02  0.62756876526E+02 -0.16809363557E+03  0.20089222416E+03  0.77893080955E+02 0.  0.
          5    1    3    3  502    0  0.59709521279E+01 -0.81747554269E+02 -0.22425727214E+03  0.23880349957E+03  0.41800000000E+01 0.  1.
         -5    1    3    3    0  502  0.39816139901E+02  0.18990677744E+02 -0.25487825247E+02  0.51118220564E+02  0.41800000000E+01 0.  1.
        -11    1    4    4    0    0  0.10828158052E+01  0.31577091063E+02 -0.12784187766E+03  0.13168838541E+03  0.00000000000E+00 0. -1.
         11    1    4    4    0    0 -0.46869907834E+02  0.31179785463E+02 -0.40251757911E+02  0.69203838743E+02  0.00000000000E+00 0.  1.
</event>
<event>
 8    1  0.7232317E-009  0.1379303E+03  0.7561462E-02  0.1216141E+00
          1   -1    0    0  501    0  0.00000000000E+00  0.00000000000E+00  0.22057672982E+03  0.22057672982E+03  0.00000000000E+00 0. -1.
         -1   -1    0    0    0  501 -0.00000000000E+00 -0.00000000000E+00 -0.99160716971E+02  0.99160716971E+02  0.00000000000E+00 0.  1.
         25    2    1    2    0    0  0.75013063462E+02  0.65250331842E+02  0.53545800618E+02  0.16851943637E+03  0.12508829752E+03 0.  0.
         23    2    1    2    0    0 -0.75013063462E+02 -0.65250331842E+02  0.67870212233E+02  0.15121801042E+03  0.91520246240E+02 0.  0.
          5    1    3    3  502    0  0.10355630798E+03  0.31184716266E+02  0.59463087177E+02  0.12348978334E+03  0.41800000000E+01 0.  1.
         -5    1    3    3    0  502 -0.28543244520E+02  0.34065615576E+02 -0.59172865596E+01  0.45029653036E+02  0.41800000000E+01 0.  1.
        -11    1    4    4    0    0  0.15610523124E+01 -0.43306243712E+02 -0.45363240076E+01  0.43571158629E+02  0.00000000000E+00 0.  1.
         11    1    4    4    0    0 -0.76574115775E+02 -0.21944088130E+02  0.72406536240E+02  0.10764685179E+03  0.00000000000E+00 0. -1.
</event>
<event>
 8    1  0.7232317E-009  0.8536671E+02  0.7561462E-02  0.1314476E+00
          1   -1    0    0  501    0  0.00000000000E+00  0.00000000000E+00  0.94528498512E+03  0.94528498512E+03  0.00000000000E+00 0. -1.
         -1   -1    0    0    0  501 -0.00000000000E+00 -0.00000000000E+00 -0.33880375110E+02  0.33880375110E+02  0.00000000000E+00 0.  1.
         25    2    1    2    0    0  0.84485089771E+01  0.45716559710E+02  0.84845465841E+03  0.85888560085E+03  0.12509111409E+03 0.  0.
         23    2    1    2    0    0 -0.84485089771E+01 -0.45716559710E+02  0.62949951593E+02  0.12027975938E+03  0.91340806735E+02 0.  0.
          5    1    3    3  502    0 -0.43485011628E+02 -0.55614066349E+01  0.14233435996E+03  0.14899133500E+03  0.41800000000E+01 0. -1.
         -5    1    3    3    0  502  0.51933520606E+02  0.51277966345E+02  0.70612029846E+03  0.70989426585E+03  0.41800000000E+01 0. -1.
        -11    1    4    4    0    0 -0.10597242720E+02 -0.32677566634E+01 -0.22365126173E+02  0.24963546535E+02  0.00000000000E+00 0.  1.
         11    1    4    4    0    0  0.21487337426E+01 -0.42448803047E+02  0.85315077766E+02  0.95316212844E+02  0.00000000000E+00 0. -1.
</event>
<event>
 8    1  0.7232317E-009  0.8414393E+02  0.7561462E-02  0.1317687E+00
          1   -1    0    0  501    0  0.00000000000E+00  0.00000000000E+00  0.26069775237E+03  0.26069775237E+03  0.00000000000E+00 0. -1.
         -1   -1    0    0    0  501 -0.00000000000E+00 -0.00000000000E+00 -0.83555790209E+02  0.83555790209E+02  0.00000000000E+00 0.  1.
         25    2    1    2    0    0 -0.42175847783E+01 -0.29539880146E+02 -0.13320336662E+02  0.12928804687E+03  0.12509026802E+03 0.  0.
         23    2    1    2    0    0  0.42175847783E+01  0.29539880146E+02  0.19046229882E+03  0.21496549571E+03  0.95099340339E+02 0.  0.
          5    1    3    3  502    0 -0.32384437085E+02 -0.69829025917E+01  0.47727933974E+02  0.58248955144E+02  0.41800000000E+01 0.  1.
         -5    1    3    3    0  502  0.28166852307E+02 -0.22556977555E+02 -0.61048270636E+02  0.71039091724E+02  0.41800000000E+01 0.  1.
        -11    1    4    4    0    0  0.21287211515E+01 -0.34464844149E+02  0.52127849745E+02  0.62527351256E+02  0.00000000000E+00 0.  1.
         11    1    4    4    0    0  0.20888636268E+01  0.64004724295E+02  0.13833444908E+03  0.15243814446E+03  0.00000000000E+00 0. -1.
</event>
<event>
 8    1  0.7232317E-009  0.1053067E+03  0.7561462E-02  0.1269516E+00
          1   -1    0    0  501    0  0.00000000000E+00  0.00000000000E+00  0.10107156691E+03  0.10107156691E+03  0.00000000000E+00 0. -1.
         -1   -1    0    0    0  501 -0.00000000000E+00 -0.00000000000E+00 -0.15364589662E+03  0.15364589662E+03  0.00000000000E+00 0.  1.
         25    2    1    2    0    0  0.13375370604E+02 -0.51944967652E+02 -0.58348021343E+02  0.14808461224E+03  0.12508949030E+03 0.  0.
         23    2    1    2    0    0 -0.13375370604E+02  0.51944967652E+02  0.57736916305E+01  0.10663285128E+03  0.91978526053E+02 0.  0.
          5    1    3    3  502    0  0.51401589014E+02 -0.36595046592E+02 -0.79638377524E+02  0.10169102400E+03  0.41800000000E+01 0.  1.
         -5    1    3    3    0  502 -0.38026218409E+02 -0.15349921060E+02  0.21290356181E+02  0.46393588235E+02  0.41800000000E+01 0.  1.
        -11    1    4    4    0    0 -0.26813437454E+02 -0.19694158687E+02 -0.20115866700E+01  0.33329668397E+02  0.00000000000E+00 0.  1.
         11    1    4    4    0    0  0.13438066850E+02  0.71639126339E+02  0.77852783006E+01  0.73303182888E+02  0.00000000000E+00 0. -1.
</event>
<event>
 8    1  0.7232317E-009  0.1084005E+03  0.7561462E-02  0.1263561E+00
         -1   -1    0    0    0  501 -0.00000000000E+00  0.00000000000E+00  0.41524140811E+03  0.41524140811E+03  0.00000000000E+00 0.  1.
          1   -1    0    0  501    0  0.00000000000E+00 -0.00000000000E+00 -0.13304188077E+03  0.13304188077E+03  0.00000000000E+00 0. -1.
         25    2    1    2    0    0 -0.25096428882E+02 -0.23654894753E+02 -0.93361923543E+02  0.15985428926E+03  0.12509020840E+03 0.  0.
         23    2    1    2    0    0  0.25096428882E+02  0.23654894753E+02  0.37556145088E+03  0.38842899962E+03  0.92958590646E+02 0.  0.
          5    1    3    3  502    0 -0.27124619447E+02  0.49062576112E+02 -0.32650997271E+02  0.65011086575E+02  0.41800000000E+01 0.  1.
         -5    1    3    3    0  502  0.20281905653E+01 -0.72717470865E+02 -0.60710926272E+02  0.94843202681E+02  0.41800000000E+01 0.  1.
        -11    1    4    4    0    0  0.28444582429E+02 -0.25648923753E+02  0.79191953421E+02  0.87967761401E+02  0.00000000000E+00 0. -1.
         11    1    4    4    0    0 -0.33481535474E+01  0.49303818507E+02  0.29636949746E+03  0.30046123822E+03  0.00000000000E+00 0.  1.
</event>
<event>
 8    1  0.7232317E-009  0.1207751E+03  0.7561462E-02  0.1241824E+00
          1   -1    0    0  501    0  0.00000000000E+00  0.00000000000E+00  0.50368942681E+02  0.50368942681E+02  0.00000000000E+00 0. -1.
         -1   -1    0    0    0  501 -0.00000000000E+00 -0.00000000000E+00 -0.33180376256E+03  0.33180376256E+03  0.00000000000E+00 0.  1.
         25    2    1    2    0    0  0.32419257409E+02 -0.58690537855E+02 -0.18513756168E+03  0.23327907766E+03  0.12509046264E+03 0.  0.
         23    2    1    2    0    0 -0.32419257409E+02  0.58690537855E+02 -0.96297258203E+02  0.14889362759E+03  0.91654584793E+02 0.  0.
          5    1    3    3  502    0 -0.46630710686E+02 -0.22799368692E+02 -0.93192451093E+02  0.10675457710E+03  0.41800000000E+01 0.  1.
         -5    1    3    3    0  502  0.79049968095E+02 -0.35891169163E+02 -0.91945110584E+02  0.12652450055E+03  0.41800000000E+01 0.  1.
        -11    1    4    4    0    0 -0.41330694891E+02  0.74049068091E+02 -0.48020538362E+02  0.97454927684E+02  0.00000000000E+00 0. -1.
         11    1    4    4    0    0  0.89114374816E+01 -0.15358530236E+02 -0.48276719841E+02  0.51438699902E+02  0.00000000000E+00 0.  1.
</event>
<event>
 8    1  0.7232317E-009  0.8265108E+02  0.7561462E-02  0.1321692E+00
          1   -1    0    0  501    0  0.00000000000E+00  0.00000000000E+00  0.12506125532E+04  0.12506125532E+04  0.00000000000E+00 0. -1.
         -1   -1    0    0    0  501 -0.00000000000E+00 -0.00000000000E+00 -0.18666558865E+02  0.18666558865E+02  0.00000000000E+00 0.  1.
         25    2    1    2    0    0 -0.71061715303E+01 -0.53846234609E+02  0.10416331657E+04  0.10505222589E+04  0.12508976725E+03 0.  0.
         23    2    1    2    0    0  0.71061715303E+01  0.53846234609E+02  0.19031282866E+03  0.21875685320E+03  0.93196960339E+02 0.  0.
          5    1    3    3  502    0 -0.16199598675E+02 -0.14021618331E+02  0.94834949627E+03  0.94860069168E+03  0.41800000000E+01 0.  1.
         -5    1    3    3    0  502  0.90934271451E+01 -0.39824616278E+02  0.93283669408E+02  0.10192156718E+03  0.41800000000E+01 0.  1.
        -11    1    4    4    0    0  0.37744164810E+02  0.60263169166E+02  0.16042148574E+03  0.17547456973E+03  0.00000000000E+00 0.  1.
         11    1    4    4    0    0 -0.30637993279E+02 -0.64169345570E+01  0.29891342923E+02  0.43282283477E+02  0.00000000000E+00 0. -1.
</event>
<event>
 8    1  0.7232317E-009  0.1557872E+03  0.7561462E-02  0.1193537E+00
         -2   -1    0    0    0  501 -0.00000000000E+00  0.00000000000E+00  0.11347368587E+04  0.11347368587E+04  0.00000000000E+00 0.  1.
          2   -1    0    0  501    0  0.00000000000E+00 -0.00000000000E+00 -0.29180200617E+02  0.29180200617E+02  0.00000000000E+00 0. -1.
         25    2    1    2    0    0 -0.14579840443E+03  0.11916782458E+02  0.56825816660E+03  0.59996806327E+03  0.12508056846E+03 0.  0.
         23    2    1    2    0    0  0.14579840443E+03 -0.11916782458E+02  0.53729849144E+03  0.56394899600E+03  0.89160623291E+02 0.  0.
          5    1    3    3  502    0 -0.73440168359E+02  0.11750089193E+02  0.92714096544E+02  0.11893232959E+03  0.41800000000E+01 0. -1.
         -5    1    3    3    0  502 -0.72358236071E+02  0.16669326500E+00  0.47554407005E+03  0.48103573368E+03  0.41800000000E+01 0. -1.
        -11    1    4    4    0    0  0.33379424249E+02 -0.36570254972E+02  0.97644455395E+02  0.10948063382E+03  0.00000000000E+00 0. -1.
         11    1    4    4    0    0  0.11241898018E+03  0.24653472514E+02  0.43965403605E+03  0.45446836218E+03  0.00000000000E+00 0.  1.
</event>
<event>
 8    1  0.7232317E-009  0.1464079E+03  0.7561462E-02  0.1204958E+00
          1   -1    0    0  501    0  0.00000000000E+00  0.00000000000E+00  0.12814557298E+04  0.12814557298E+04  0.00000000000E+00 0. -1.
         -1   -1    0    0    0  501 -0.00000000000E+00 -0.00000000000E+00 -0.21344018855E+02  0.21344018855E+02  0.00000000000E+00 0.  1.
         25    2    1    2    0    0  0.36171930962E+02 -0.11695486797E+03  0.76879199712E+03  0.78846229162E+03  0.12507917792E+03 0.  0.
         23    2    1    2    0    0 -0.36171930962E+02  0.11695486797E+03  0.49131971387E+03  0.51433745708E+03  0.90338855328E+02 0.  0.
          5    1    3    3  502    0  0.46539474369E+02 -0.31081079880E+02  0.55451874137E+03  0.55735129239E+03  0.41800000000E+01 0.  1.
         -5    1    3    3    0  502 -0.10367543407E+02 -0.85873788086E+02  0.21427325574E+03  0.23111099923E+03  0.41800000000E+01 0.  1.
        -11    1    4    4    0    0  0.17914626207E+01  0.11176718071E+03  0.39950006500E+03  0.41484384285E+03  0.00000000000E+00 0.  1.
         11    1    4    4    0    0 -0.37963393583E+02  0.51876872591E+01  0.91819648875E+02  0.99493614222E+02  0.00000000000E+00 0. -1.
</event>
<event>
 8    1  0.7232317E-009  0.6706190E+02  0.7561462E-02  0.1370379E+00
         -1   -1    0    0    0  501 -0.00000000000E+00  0.00000000000E+00  0.28797692653E+03  0.28797692653E+03  0.00000000000E+00 0.  1.
          1   -1    0    0  501    0  0.00000000000E+00 -0.00000000000E+00 -0.50969508181E+02  0.50969508181E+02  0.00000000000E+00 0. -1.
         25    2    1    2    0    0  0.17170670021E+02  0.71424772170E+01  0.20038248200E+03  0.23695286124E+03  0.12509065699E+03 0.  0.
         23    2    1    2    0    0 -0.17170670021E+02 -0.71424772170E+01  0.36624936354E+02  0.10199357348E+03  0.93356607577E+02 0.  0.
          5    1    3    3  502    0  0.38655972743E+02  0.28694054936E+02  0.20049403956E+03  0.20623521842E+03  0.41800000000E+01 0. -1.
         -5    1    3    3    0  502 -0.21485302722E+02 -0.21551577719E+02 -0.11155755840E+00  0.30717642818E+02  0.41800000000E+01 0. -1.
        -11    1    4    4    0    0  0.16883708894E+02  0.69107577012E+01  0.57032117336E+02  0.59878882804E+02  0.00000000000E+00 0.  1.
         11    1    4    4    0    0 -0.34054378915E+02 -0.14053234918E+02 -0.20407180983E+02  0.42114690675E+02  0.00000000000E+00 0. -1.
</event>
<event>
 8    1  0.7232317E-009  0.6426385E+02  0.7561462E-02  0.1380762E+00
          2   -1    0    0  501    0  0.00000000000E+00  0.00000000000E+00  0.22883769133E+03  0.22883769133E+03  0.00000000000E+00 0. -1.
         -2   -1    0    0    0  501 -0.00000000000E+00 -0.00000000000E+00 -0.53450182213E+02  0.53450182213E+02  0.00000000000E+00 0.  1.
         25    2    1    2    0    0  0.49461527294E+00 -0.82998592818E+01  0.12673110236E+03  0.17826282975E+03  0.12509089438E+03 0.  0.
         23    2    1    2    0    0 -0.49461527294E+00  0.82998592818E+01  0.48656406762E+02  0.10402504380E+03  0.91567633529E+02 0.  0.
          5    1    3    3  502    0 -0.41890159949E+02 -0.22377322647E+02  0.12453887867E+03  0.13335267065E+03  0.41800000000E+01 0. -1.
         -5    1    3    3    0  502  0.42384775222E+02  0.14077463365E+02  0.21922236892E+01  0.44910159097E+02  0.41800000000E+01 0. -1.
        -11    1    4    4    0    0  0.14756993322E+02 -0.51805284471E+01  0.71637848735E+02  0.73325221434E+02  0.00000000000E+00 0. -1.
         11    1    4    4    0    0 -0.15251608595E+02  0.13480387729E+02 -0.22981441974E+02  0.30699822365E+02  0.00000000000E+00 0.  1.
</event>
<event>
 8    1  0.7232317E-009  0.7697574E+02  0.7561462E-02  0.1337860E+00
         -2   -1    0    0    0  501 -0.00000000000E+00  0.00000000000E+00  0.64499480459E+02  0.64499480459E+02  0.00000000000E+00 0.  1.
          2   -1    0    0  501    0  0.00000000000E+00 -0.00000000000E+00 -0.20735901572E+03  0.20735901572E+03  0.00000000000E+00 0. -1.
         25    2    1    2    0    0 -0.32494060712E+02 -0.16233648174E+01 -0.58671195393E+02  0.14194563170E+03  0.12509098247E+03 0.  0.
         23    2    1    2    0    0  0.32494060712E+02  0.16233648174E+01 -0.84188339873E+02  0.12991286448E+03  0.93440764617E+02 0.  0.
          5    1    3    3  502    0 -0.31359545283E+02 -0.31358459596E+02 -0.88829491020E+02  0.99372656920E+02  0.41800000000E+01 0. -1.
         -5    1    3    3    0  502 -0.11345154296E+01  0.29735094778E+02  0.30158295627E+02  0.42572974783E+02  0.41800000000E+01 0. -1.
        -11    1    4    4    0    0  0.36299028460E+02 -0.30254146494E+02 -0.89261754191E+01  0.48089598198E+02  0.00000000000E+00 0.  1.
         11    1    4    4    0    0 -0.38049677483E+01  0.31877511311E+02 -0.75262164453E+02  0.81823266283E+02  0.00000000000E+00 0. -1.
</event>
<event>
 8    1  0.7232317E-009  0.1253063E+03  0.7561462E-02  0.1234591E+00
         -2   -1    0    0    0  501 -0.00000000000E+00  0.00000000000E+00  0.63456731115E+02  0.63456731115E+02  0.00000000000E+00 0.  1.
          2   -1    0    0  501    0  0.00000000000E+00 -0.00000000000E+00 -0.32476088013E+03  0.32476088013E+03  0.00000000000E+00 0. -1.
         25    2    1    2    0    0  0.27190521161E+02  0.63624551514E+02 -0.56385635946E+02  0.15369351138E+03  0.12511973267E+03 0.  0.
         23    2    1    2    0    0 -0.27190521161E+02 -0.63624551514E+02 -0.20491851307E+03  0.23452409986E+03  0.90678268732E+02 0.  0.
          5    1    3    3  502    0 -0.48755782742E+02  0.10168237123E+02 -0.18224331179E+02  0.53198853784E+02  0.41800000000E+01 0. -1.
         -5    1    3    3    0  502  0.75946303903E+02  0.53456314390E+02 -0.38161304767E+02  0.10049465760E+03  0.41800000000E+01 0. -1.
        -11    1    4    4    0    0  0.17537380842E+02 -0.60317811925E+02 -0.79461591222E+02  0.10129137496E+03  0.00000000000E+00 0.  1.
         11    1    4    4    0    0 -0.44727902003E+02 -0.33067395892E+01 -0.12545692185E+03  0.13323272490E+03  0.00000000000E+00 0. -1.
</event>
<event>
 8    1  0.7232317E-009  0.1066923E+03  0.7561462E-02  0.1266821E+00
         -2   -1    0    0    0  501 -0.00000000000E+00  0.00000000000E+00  0.87333851649E+02  0.87333851649E+02  0.00000000000E+00 0.  1.
          2   -1    0    0  501    0  0.00000000000E+00 -0.00000000000E+00 -0.26277128106E+03  0.26277128106E+03  0.00000000000E+00 0. -1.
         25    2    1    2    0    0 -0.41105232602E+02 -0.25226475757E+02  0.12534915031E+02  0.13465751364E+03  0.12509798823E+03 0.  0.
         23    2    1    2    0    0  0.41105232602E+02  0.25226475757E+02 -0.18797234444E+03  0.21544761907E+03  0.93584502250E+02 0.  0.
          5    1    3    3  502    0  0.12699313237E-01 -0.57627612418E+02 -0.31779889859E+02  0.65942214656E+02  0.41800000000E+01 0.  1.
         -5    1    3    3    0  502 -0.41117931915E+02  0.32401136661E+02  0.44314804890E+02  0.68715298983E+02  0.41800000000E+01 0.  1.
        -11    1    4    4    0    0  0.20234813672E+02  0.59563572298E+02 -0.13520204345E+03  0.14912028495E+03  0.00000000000E+00 0.  1.
         11    1    4    4    0    0  0.20870418930E+02 -0.34337096541E+02 -0.52770300986E+02  0.66327334119E+02  0.00000000000E+00 0. -1.
</event>
<event>
 8    1  0.7232317E-009  0.2807584E+03  0.7561462E-02  0.1095275E+00
          1   -1    0    0  501    0  0.00000000000E+00  0.00000000000E+00  0.11181950297E+04  0.11181950297E+04  0.00000000000E+00 0. -1.
         -1   -1    0    0    0  501 -0.00000000000E+00 -0.00000000000E+00 -0.87588182057E+02  0.87588182057E+02  0.00000000000E+00 0.  1.
         25    2    1    2    0    0 -0.37681075568E+01  0.26723921922E+03  0.75865938696E+03  0.81402867671E+03  0.12509045591E+03 0.  0.
         23    2    1    2    0    0  0.37681075568E+01 -0.26723921922E+03  0.27194746070E+03  0.39175453506E+03  0.89917714834E+02 0.  0.
          5    1    3    3  502    0 -0.28226156059E+02  0.89055624604E+01  0.39925140044E+02  0.49874985075E+02  0.41800000000E+01 0. -1.
         -5    1    3    3    0  502  0.24458048503E+02  0.25833365675E+03  0.71873424692E+03  0.76415369164E+03  0.41800000000E+01 0. -1.
        -11    1    4    4    0    0 -0.23206753644E+02 -0.15113168899E+03  0.10062034206E+03  0.18304041649E+03  0.00000000000E+00 0.  1.
         11    1    4    4    0    0  0.26974861201E+02 -0.11610753022E+03  0.17132711863E+03  0.20871411857E+03  0.00000000000E+00 0. -1.
</event>
<event>
 8    1  0.7232317E-009  0.1046864E+03  0.7561462E-02  0.1270739E+00
         -2   -1    0    0    0  501 -0.00000000000E+00  0.00000000000E+00  0.15626528643E+03  0.15626528643E+03  0.00000000000E+00 0.  1.
          2   -1    0    0  501    0  0.00000000000E+00 -0.00000000000E+00 -0.14994974682E+03  0.14994974682E+03  0.00000000000E+00 0. -1.
         25    2    1    2    0    0  0.45246764238E+02 -0.25875703484E+02  0.97435673310E+02  0.16690590146E+03  0.12508816013E+03 0.  0.
         23    2    1    2    0    0 -0.45246764238E+02  0.25875703484E+02 -0.91120133707E+02  0.13930913179E+03  0.91582387655E+02 0.  0.
          5    1    3    3  502    0  0.67828389859E+02 -0.47584827266E+02  0.10557698866E+03  0.13427203429E+03  0.41800000000E+01 0.  1.
         -5    1    3    3    0  502 -0.22581625620E+02  0.21709123782E+02 -0.81413153538E+01  0.32633867174E+02  0.41800000000E+01 0.  1.
        -11    1    4    4    0    0  0.91962705920E+00 -0.25627667941E+02 -0.94336659984E+00  0.25661508501E+02  0.00000000000E+00 0.  1.
         11    1    4    4    0    0 -0.46166391297E+02  0.51503371424E+02 -0.90176767107E+02  0.11364762329E+03  0.00000000000E+00 0. -1.
</event>
<event>
 8    1  0.7232317E-009  0.1381476E+03  0.7561462E-02  0.1215843E+00
          2   -1    0    0  501    0  0.00000000000E+00  0.00000000000E+00  0.79569710271E+03  0.79569710271E+03  0.00000000000E+00 0. -1.
         -2   -1    0    0    0  501 -0.00000000000E+00 -0.00000000000E+00 -0.25685722021E+02  0.25685722021E+02  0.00000000000E+00 0.  1.
         25    2    1    2    0    0 -0.31392833279E+02 -0.70459496010E+02  0.32211951156E+03  0.35406607735E+03  0.12510698158E+03 0.  0.
         23    2    1    2    0    0  0.31392833279E+02  0.70459496010E+02  0.44789186913E+03  0.46731674738E+03  0.10875553041E+03 0.  0.
          5    1    3    3  502    0  0.48086644639E+02 -0.35151043081E+02  0.12216569160E+03  0.13597738718E+03  0.41800000000E+01 0. -1.
         -5    1    3    3    0  502 -0.79479477918E+02 -0.35308452929E+02  0.19995381996E+03  0.21808869016E+03  0.41800000000E+01 0. -1.
        -11    1    4    4    0    0  0.38454431465E+02 -0.16804112262E+02  0.97401278584E+02  0.10605720418E+03  0.00000000000E+00 0. -1.
         11    1    4    4    0    0 -0.70615981859E+01  0.87263608272E+02  0.35049059054E+03  0.36125954320E+03  0.00000000000E+00 0.  1.
</event>
<event>
 8    1  0.7232317E-009  0.9635752E+02  0.7561462E-02  0.1288148E+00
         -2   -1    0    0    0  501 -0.00000000000E+00  0.00000000000E+00  0.19201797094E+02  0.19201797094E+02  0.00000000000E+00 0. -1.
          2   -1    0    0  501    0  0.00000000000E+00 -0.00000000000E+00 -0.59817096895E+03  0.59817096895E+03  0.00000000000E+00 0.  1.
         25    2    1    2    0    0 -0.28703044234E+01  0.10940985268E+02 -0.30775531308E+03  0.33241215741E+03  0.12512619972E+03 0.  0.
         23    2    1    2    0    0  0.28703044234E+01 -0.10940985268E+02 -0.27121385877E+03  0.28496060863E+03  0.86704368264E+02 0.  0.
          5    1    3    3  502    0  0.58693642637E+01 -0.46602510953E+02 -0.52487411227E+02  0.70559508227E+02  0.41800000000E+01 0. -1.
         -5    1    3    3    0  502 -0.87396686871E+01  0.57543496220E+02 -0.25526790185E+03  0.26185264918E+03  0.41800000000E+01 0. -1.
        -11    1    4    4    0    0  0.20086522164E+02  0.33771186508E+02 -0.13263354768E+03  0.13833155598E+03  0.00000000000E+00 0.  1.
         11    1    4    4    0    0 -0.17216217740E+02 -0.44712171776E+02 -0.13858031110E+03  0.14662905265E+03  0.00000000000E+00 0. -1.
</event>
<event>
 8    1  0.7232317E-009  0.5796656E+02  0.7561462E-02  0.1406569E+00
          2   -1    0    0  501    0  0.00000000000E+00  0.00000000000E+00  0.13862191536E+03  0.13862191536E+03  0.00000000000E+00 0. -1.
         -2   -1    0    0    0  501 -0.00000000000E+00 -0.00000000000E+00 -0.90642375059E+02  0.90642375059E+02  0.00000000000E+00 0.  1.
         25    2    1    2    0    0  0.46311688676E+01 -0.32115789365E+02  0.11691766957E+02  0.12975905491E+03  0.12509133969E+03 0.  0.
         23    2    1    2    0    0 -0.46311688676E+01  0.32115789365E+02  0.36287773340E+02  0.99505235505E+02  0.86784893543E+02 0.  0.
          5    1    3    3  502    0  0.13648145328E+02 -0.29940355903E+02  0.66341058509E+02  0.74170784185E+02  0.41800000000E+01 0.  1.
         -5    1    3    3    0  502 -0.90169764608E+01 -0.21754334617E+01 -0.54649291551E+02  0.55588270726E+02  0.41800000000E+01 0.  1.
        -11    1    4    4    0    0  0.32601277652E+01 -0.19805867534E+02  0.42126113862E+02  0.46663800648E+02  0.00000000000E+00 0. -1.
         11    1    4    4    0    0 -0.78912966328E+01  0.51921656899E+02 -0.58383405227E+01  0.52841434857E+02  0.00000000000E+00 0.  1.
</event>
<event>
 8    1  0.7232317E-009  0.1289524E+03  0.7561462E-02  0.1229018E+00
         -1   -1    0    0    0  501 -0.00000000000E+00  0.00000000000E+00  0.88399245524E+02  0.88399245524E+02  0.00000000000E+00 0.  1.
          1   -1    0    0  501    0  0.00000000000E+00 -0.00000000000E+00 -0.19734039420E+03  0.19734039420E+03  0.00000000000E+00 0. -1.
         25    2    1    2    0    0 -0.65451976792E+02 -0.31502254343E+02 -0.80189829372E+02  0.16539201555E+03  0.12509099400E+03 0.  0.
         23    2    1    2    0    0  0.65451976792E+02  0.31502254343E+02 -0.28751319307E+02  0.12034762417E+03  0.91545393046E+02 0.  0.
          5    1    3    3  502    0 -0.93664859107E+02  0.60799050779E+01 -0.35592675072E+02  0.10047080171E+03  0.41800000000E+01 0. -1.
         -5    1    3    3    0  502  0.28212882315E+02 -0.37582159420E+02 -0.44597154300E+02  0.64921213844E+02  0.41800000000E+01 0. -1.
        -11    1    4    4    0    0 -0.87752793371E+01 -0.23043090763E+02 -0.80329401391E+01  0.25932945969E+02  0.00000000000E+00 0.  1.
         11    1    4    4    0    0  0.74227256129E+02  0.54545345106E+02 -0.20718379168E+02  0.94414678205E+02  0.00000000000E+00 0. -1.
</event>
<event>
 8    1  0.7232317E-009  0.4102397E+03  0.7561462E-02  0.1040291E+00
          1   -1    0    0  501    0  0.00000000000E+00  0.00000000000E+00  0.23413865130E+03  0.23413865130E+03  0.00000000000E+00 0. -1.
         -1   -1    0    0    0  501 -0.00000000000E+00 -0.00000000000E+00 -0.76707040420E+03  0.76707040420E+03  0.00000000000E+00 0.  1.
         25    2    1    2    0    0 -0.33700372345E+03  0.21940735761E+03 -0.17818045023E+03  0.45728125424E+03  0.12508706743E+03 0.  0.
         23    2    1    2    0    0  0.33700372345E+03 -0.21940735761E+03 -0.35475130267E+03  0.54392780127E+03  0.91092634435E+02 0.  0.
          5    1    3    3  502    0 -0.29975126401E+03  0.14134852622E+03 -0.16307835311E+03  0.36938089799E+03  0.41800000000E+01 0.  1.
         -5    1    3    3    0  502 -0.37252459443E+02  0.78058831387E+02 -0.15102097113E+02  0.87900356252E+02  0.41800000000E+01 0.  1.
        -11    1    4    4    0    0  0.26249529085E+03 -0.17870953166E+03 -0.22623686830E+03  0.38990254551E+03  0.00000000000E+00 0. -1.
         11    1    4    4    0    0  0.74508432608E+02 -0.40697825954E+02 -0.12851443438E+03  0.15402525576E+03  0.00000000000E+00 0.  1.
</event>
<event>
 8    1  0.7232317E-009  0.1932237E+03  0.7561462E-02  0.1155586E+00
          3   -1    0    0  501    0  0.00000000000E+00  0.00000000000E+00  0.29218928796E+03  0.29218928796E+03  0.00000000000E+00 0. -1.
         -3   -1    0    0    0  501 -0.00000000000E+00 -0.00000000000E+00 -0.15132676615E+03  0.15132676615E+03  0.00000000000E+00 0.  1.
         25    2    1    2    0    0 -0.10071788388E+03  0.14938202429E+03  0.91493347087E+02  0.23765049350E+03  0.12509053996E+03 0.  0.
         23    2    1    2    0    0  0.10071788388E+03 -0.14938202429E+03  0.49369174729E+02  0.20586556061E+03  0.86511457723E+02 0.  0.
          5    1    3    3  502    0 -0.93156176078E+02  0.92553212089E+02  0.21356121294E+01  0.13140092636E+03  0.41800000000E+01 0.  1.
         -5    1    3    3    0  502 -0.75617078013E+01  0.56828812201E+02  0.89357734958E+02  0.10624956714E+03  0.41800000000E+01 0.  1.
        -11    1    4    4    0    0  0.58872517611E+02 -0.14377615797E+03  0.25729928038E+02  0.15747884343E+03  0.00000000000E+00 0.  1.
         11    1    4    4    0    0  0.41845366268E+02 -0.56058663177E+01  0.23639246691E+02  0.48386717179E+02  0.00000000000E+00 0. -1.
</event>
<event>
 7    1  0.7232317E-009  0.9362080E+02  0.7561462E-02  0.1294313E+00
          1   -1    0    0  501    0  0.00000000000E+00  0.00000000000E+00  0.34906653857E+03  0.34906653857E+03  0.00000000000E+00 0. -1.
         -1   -1    0    0    0  501 -0.00000000000E+00 -0.00000000000E+00 -0.50039994416E+02  0.50039994416E+02  0.00000000000E+00 0.  1.
         25    2    1    2    0    0  0.16000615885E+02 -0.17959857944E+01  0.11044496058E+03  0.16765545948E+03  0.12510403072E+03 0.  0.
          5    1    3    3  502    0  0.23236358395E+01  0.61130615780E+02  0.48166963874E+02  0.77973587053E+02  0.41800000000E+01 0.  1.
         -5    1    3    3    0  502  0.13676980045E+02 -0.62926601574E+02  0.62277996707E+02  0.89681872431E+02  0.41800000000E+01 0.  1.
        -11    1    1    2    0    0  0.19866859687E+02 -0.11716613305E+02 -0.12851918438E+02  0.26403464710E+02  0.00000000000E+00 0.  1.
         11    1    1    2    0    0 -0.35867475572E+02  0.13512599100E+02  0.20143350201E+03  0.20504760879E+03  0.00000000000E+00 0. -1.
</event>
<event>
 8    1  0.7232317E-009  0.1692235E+03  0.7561462E-02  0.1178660E+00
          1   -1    0    0  501    0  0.00000000000E+00  0.00000000000E+00  0.20332591925E+03  0.20332591925E+03  0.00000000000E+00 0. -1.
         -1   -1    0    0    0  501 -0.00000000000E+00 -0.00000000000E+00 -0.15577541246E+03  0.15577541246E+03  0.00000000000E+00 0.  1.
         25    2    1    2    0    0 -0.13402469100E+03 -0.31912425395E+02 -0.59243066961E+01  0.18618136708E+03  0.12508950134E+03 0.  0.
         23    2    1    2    0    0  0.13402469100E+03  0.31912425395E+02  0.53474813484E+02  0.17291996463E+03  0.89781611692E+02 0.  0.
          5    1    3    3  502    0 -0.15244362836E+03 -0.28861478366E+02  0.17211803381E+02  0.15615941642E+03  0.41800000000E+01 0. -1.
         -5    1    3    3    0  502  0.18418937367E+02 -0.30509470295E+01 -0.23136110077E+02  0.30021950653E+02  0.41800000000E+01 0. -1.
        -11    1    4    4    0    0  0.32498621169E+02 -0.30798955604E+02  0.19570269939E+02  0.48864419670E+02  0.00000000000E+00 0.  1.
         11    1    4    4    0    0  0.10152606983E+03  0.62711381000E+02  0.33904543545E+02  0.12405554496E+03  0.00000000000E+00 0. -1.
</event>
<event>
 8    1  0.7232317E-009  0.8379864E+02  0.7561462E-02  0.1318604E+00
          2   -1    0    0  501    0  0.00000000000E+00  0.00000000000E+00  0.14279056909E+03  0.14279056909E+03  0.00000000000E+00 0. -1.
         -2   -1    0    0    0  501 -0.00000000000E+00 -0.00000000000E+00 -0.90943362990E+02  0.90943362990E+02  0.00000000000E+00 0.  1.
         25    2    1    2    0    0 -0.19337686715E+02  0.66831128158E+01  0.56999076644E+02  0.13897982561E+03  0.12509151476E+03 0.  0.
         23    2    1    2    0    0  0.19337686715E+02 -0.66831128158E+01 -0.51518705398E+01  0.94754106474E+02  0.92375260753E+02 0.  0.
          5    1    3    3  502    0  0.20137155833E+02  0.22381782703E+02  0.83414889059E+02  0.88780433423E+02  0.41800000000E+01 0.  1.
         -5    1    3    3    0  502 -0.39474842548E+02 -0.15698669887E+02 -0.26415812415E+02  0.50199392187E+02  0.41800000000E+01 0.  1.
        -11    1    4    4    0    0 -0.37351127104E+02 -0.59397241984E+01  0.69137971651E-01  0.37820520879E+02  0.00000000000E+00 0.  1.
         11    1    4    4    0    0  0.56688813819E+02 -0.74338861746E+00 -0.52210085115E+01  0.56933585595E+02  0.00000000000E+00 0. -1.
</event>
<event>
 8    1  0.7232317E-009  0.8480318E+02  0.7561462E-02  0.1315948E+00
         -1   -1    0    0    0  501 -0.00000000000E+00  0.00000000000E+00  0.33851846448E+02  0.33851846448E+02  0.00000000000E+00 0.  1.
          1   -1    0    0  501    0  0.00000000000E+00 -0.00000000000E+00 -0.51746985753E+03  0.51746985753E+03  0.00000000000E+00 0. -1.
         25    2    1    2    0    0  0.91668290946E+01 -0.50857045433E+02 -0.15492318742E+03  0.20572481502E+03  0.12510409941E+03 0.  0.
         23    2    1    2    0    0 -0.91668290946E+01  0.50857045433E+02 -0.32869482366E+03  0.34559688896E+03  0.93415484412E+02 0.  0.
          5    1    3    3  502    0  0.92497425643E+01 -0.66603612455E+02 -0.20649185629E+02  0.70466021576E+02  0.41800000000E+01 0.  1.
         -5    1    3    3    0  502 -0.82913469717E-01  0.15746567022E+02 -0.13427400179E+03  0.13525879345E+03  0.41800000000E+01 0.  1.
        -11    1    4    4    0    0 -0.34545436157E+02  0.69648838605E+01 -0.43756813650E+02  0.56183231549E+02  0.00000000000E+00 0.  1.
         11    1    4    4    0    0  0.25378607063E+02  0.43892161573E+02 -0.28493801001E+03  0.28941365741E+03  0.00000000000E+00 0. -1.
</event>
<event>
 8    1  0.7232317E-009  0.2904610E+03  0.7561462E-02  0.1090109E+00
          2   -1    0    0  501    0  0.00000000000E+00  0.00000000000E+00  0.45277127640E+03  0.45277127640E+03  0.00000000000E+00 0.  1.
         -2   -1    0    0    0  501 -0.00000000000E+00 -0.00000000000E+00 -0.20684740421E+03  0.20684740421E+03  0.00000000000E+00 0. -1.
         25    2    1    2    0    0 -0.75303120808E+02  0.26515748079E+03  0.21149165099E+03  0.36926237532E+03  0.12508770431E+03 0.  0.
         23    2    1    2    0    0  0.75303120808E+02 -0.26515748079E+03  0.34432221198E+02  0.29035630528E+03  0.84511280552E+02 0.  0.
          5    1    3    3  502    0 -0.86348932569E+02  0.27116589970E+03  0.18446885299E+03  0.33916561359E+03  0.41800000000E+01 0.  1.
         -5    1    3    3    0  502  0.11045811761E+02 -0.60084189144E+01  0.27022797995E+02  0.30096761733E+02  0.41800000000E+01 0.  1.
        -11    1    4    4    0    0  0.56761224720E+02 -0.86623175512E+02 -0.13839427948E+02  0.10448416595E+03  0.00000000000E+00 0. -1.
         11    1    4    4    0    0  0.18541896088E+02 -0.17853430527E+03  0.48271649147E+02  0.18587213934E+03  0.00000000000E+00 0.  1.
</event>
<event>
 8    1  0.7232317E-009  0.1163832E+03  0.7561462E-02  0.1249186E+00
          2   -1    0    0  501    0  0.00000000000E+00  0.00000000000E+00  0.94479502803E+03  0.94479502803E+03  0.00000000000E+00 0.  1.
         -2   -1    0    0    0  501 -0.00000000000E+00 -0.00000000000E+00 -0.15668270389E+02  0.15668270389E+02  0.00000000000E+00 0. -1.
         25    2    1    2    0    0 -0.47675842029E+02  0.23741657940E+02  0.49088171474E+03  0.50936115315E+03  0.12508906520E+03 0.  0.
         23    2    1    2    0    0  0.47675842029E+02 -0.23741657940E+02  0.43824504290E+03  0.45110214528E+03  0.92724191064E+02 0.  0.
          5    1    3    3  502    0 -0.86006885713E+02 -0.31132915682E+01  0.36396821623E+03  0.37402835694E+03  0.41800000000E+01 0.  1.
         -5    1    3    3    0  502  0.38331043684E+02  0.26854949508E+02  0.12691349851E+03  0.13533279620E+03  0.41800000000E+01 0.  1.
        -11    1    4    4    0    0  0.71866813602E+02 -0.22826721476E+02  0.38885199407E+03  0.39609565941E+03  0.00000000000E+00 0. -1.
         11    1    4    4    0    0 -0.24190971573E+02 -0.91493646414E+00  0.49393048831E+02  0.55006485865E+02  0.00000000000E+00 0.  1.
</event>
<event>
 8    1  0.7232317E-009  0.1145733E+03  0.7561462E-02  0.1252328E+00
         -2   -1    0    0    0  501 -0.00000000000E+00  0.00000000000E+00  0.46760261484E+02  0.46760261484E+02  0.00000000000E+00 0.  1.
          2   -1    0    0  501    0  0.00000000000E+00 -0.00000000000E+00 -0.30577109329E+03  0.30577109329E+03  0.00000000000E+00 0. -1.
         25    2    1    2    0    0 -0.41879235484E+02 -0.24035217715E+02 -0.17338527305E+03  0.21918785158E+03  0.12509715951E+03 0.  0.
         23    2    1    2    0    0  0.41879235484E+02  0.24035217715E+02 -0.85625558759E+02  0.13334350319E+03  0.90095457571E+02 0.  0.
          5    1    3    3  502    0  0.40162371062E+02  0.10775257931E+02 -0.78584192485E+02  0.89006010703E+02  0.41800000000E+01 0.  1.
         -5    1    3    3    0  502 -0.82041606545E+02 -0.34810475646E+02 -0.94801080563E+02  0.13018184088E+03  0.41800000000E+01 0.  1.
        -11    1    4    4    0    0  0.22708435101E+02 -0.31814073848E+02 -0.53084772126E+02  0.65922692233E+02  0.00000000000E+00 0.  1.
         11    1    4    4    0    0  0.19170800383E+02  0.55849291563E+02 -0.32540786633E+02  0.67420810957E+02  0.00000000000E+00 0. -1.
</event>
<event>
 8    1  0.7232317E-009  0.1050693E+03  0.7561462E-02  0.1269983E+00
          1   -1    0    0  501    0  0.00000000000E+00  0.00000000000E+00  0.48824170405E+03  0.48824170405E+03  0.00000000000E+00 0. -1.
         -1   -1    0    0    0  501 -0.00000000000E+00 -0.00000000000E+00 -0.35147118176E+02  0.35147118176E+02  0.00000000000E+00 0.  1.
         25    2    1    2    0    0 -0.50434066964E+02  0.44300182911E+02  0.19241216020E+03  0.23910982414E+03  0.12507984366E+03 0.  0.
         23    2    1    2    0    0  0.50434066964E+02 -0.44300182911E+02  0.26068242567E+03  0.28427899808E+03  0.91395406781E+02 0.  0.
          5    1    3    3  502    0 -0.74421204795E+02  0.79652335507E+01  0.17786295320E+03  0.19301467092E+03  0.41800000000E+01 0.  1.
         -5    1    3    3    0  502  0.23987137831E+02  0.36334949361E+02  0.14549207003E+02  0.46095153224E+02  0.41800000000E+01 0.  1.
        -11    1    4    4    0    0 -0.48712067666E+01  0.11734915662E+02  0.79821762516E+00  0.12730830779E+02  0.00000000000E+00 0.  1.
         11    1    4    4    0    0  0.55305273731E+02 -0.56035098573E+02  0.25988420804E+03  0.27154816730E+03  0.00000000000E+00 0. -1.
</event>
<event>
 8    1  0.7232317E-009  0.1366359E+03  0.7561462E-02  0.1217929E+00
         -1   -1    0    0    0  501 -0.00000000000E+00  0.00000000000E+00  0.19597563768E+03  0.19597563768E+03  0.00000000000E+00 0.  1.
          1   -1    0    0  501    0  0.00000000000E+00 -0.00000000000E+00 -0.14467525593E+03  0.14467525593E+03  0.00000000000E+00 0. -1.
         25    2    1    2    0    0 -0.56124223334E+02 -0.98052337122E+02  0.89839065643E+02  0.19099865315E+03  0.12508092793E+03 0.  0.
         23    2    1    2    0    0  0.56124223334E+02  0.98052337122E+02 -0.38538683898E+02  0.14965224045E+03  0.90257263730E+02 0.  0.
          5    1    3    3  502    0 -0.12080723927E+02 -0.10168550510E+03  0.14433569632E+02  0.10349727615E+03  0.41800000000E+01 0. -1.
         -5    1    3    3    0  502 -0.44043499406E+02  0.36331679748E+01  0.75405496011E+02  0.87501377007E+02  0.41800000000E+01 0. -1.
        -11    1    4    4    0    0  0.23596914785E+02  0.54214037302E+00 -0.40460585691E+02  0.46841939520E+02  0.00000000000E+00 0. -1.
         11    1    4    4    0    0  0.32527308548E+02  0.97510196749E+02  0.19219017924E+01  0.10281030093E+03  0.00000000000E+00 0.  1.
</event>
<event>
 8    1  0.7232317E-009  0.1290852E+03  0.7561462E-02  0.1228819E+00
         -1   -1    0    0    0  501 -0.00000000000E+00  0.00000000000E+00  0.17400922618E+02  0.17400922618E+02  0.00000000000E+00 0.  1.
          1   -1    0    0  501    0  0.00000000000E+00 -0.00000000000E+00 -0.10917472367E+04  0.10917472367E+04  0.00000000000E+00 0. -1.
         25    2    1    2    0    0  0.92560500016E+02  0.31335581019E+01 -0.49336427250E+03  0.51733343042E+03  0.12509319526E+03 0.  0.
         23    2    1    2    0    0 -0.92560500016E+02 -0.31335581019E+01 -0.58098204153E+03  0.59181472885E+03  0.64243874027E+02 0.  0.
          5    1    3    3  502    0 -0.10740586136E+02 -0.34384679705E+02 -0.58938268710E+02  0.69201577348E+02  0.41800000000E+01 0. -1.
         -5    1    3    3    0  502  0.10330108615E+03  0.37518237807E+02 -0.43442600379E+03  0.44813185307E+03  0.41800000000E+01 0. -1.
        -11    1    4    4    0    0 -0.55966116627E+02 -0.32751108606E+02 -0.37052802172E+03  0.37615934949E+03  0.00000000000E+00 0.  1.
         11    1    4    4    0    0 -0.36594383388E+02  0.29617550504E+02 -0.21045401981E+03  0.21565537936E+03  0.00000000000E+00 0. -1.
</event>
<event>
 8    1  0.7232317E-009  0.8696037E+02  0.7561462E-02  0.1310384E+00
          1   -1    0    0  501    0  0.00000000000E+00  0.00000000000E+00  0.32817126267E+03  0.32817126267E+03  0.00000000000E+00 0. -1.
         -1   -1    0    0    0  501 -0.00000000000E+00 -0.00000000000E+00 -0.46099015509E+02  0.46099015509E+02  0.00000000000E+00 0.  1.
         25    2    1    2    0    0  0.42695485024E+01 -0.49236632135E+02  0.20616511443E+03  0.24615770456E+03  0.12508831326E+03 0.  0.
         23    2    1    2    0    0 -0.42695485024E+01  0.49236632135E+02  0.75907132728E+02  0.12811257362E+03  0.90600572473E+02 0.  0.
          5    1    3    3  502    0 -0.43050925142E+02 -0.53693108332E+02  0.56718653419E+02  0.89279393387E+02  0.41800000000E+01 0. -1.
         -5    1    3    3    0  502  0.47320473644E+02  0.44564761969E+01  0.14944646102E+03  0.15687831117E+03  0.41800000000E+01 0. -1.
        -11    1    4    4    0    0  0.12425240319E+02  0.18577450142E+02 -0.17505872685E+02  0.28389502095E+02  0.00000000000E+00 0.  1.
         11    1    4    4    0    0 -0.16694788821E+02  0.30659181993E+02  0.93413005413E+02  0.99723071526E+02  0.00000000000E+00 0. -1.
</event>
<event>
 8    1  0.7232317E-009  0.1630420E+03  0.7561462E-02  0.1185305E+00
          1   -1    0    0  501    0  0.00000000000E+00  0.00000000000E+00  0.21102920830E+03  0.21102920830E+03  0.00000000000E+00 0. -1.
         -1   -1    0    0    0  501 -0.00000000000E+00 -0.00000000000E+00 -0.13396728167E+03  0.13396728167E+03  0.00000000000E+00 0.  1.
         25    2    1    2    0    0 -0.10763827255E+03 -0.59469784705E+02  0.51006225029E+01  0.17548951557E+03  0.12509156931E+03 0.  0.
         23    2    1    2    0    0  0.10763827255E+03  0.59469784705E+02  0.71961304127E+02  0.16950697440E+03  0.91823374310E+02 0.  0.
          5    1    3    3  502    0 -0.76572819300E+02  0.28140884554E+02  0.10082679277E+02  0.82306979415E+02  0.41800000000E+01 0.  1.
         -5    1    3    3    0  502 -0.31065453249E+02 -0.87610669260E+02 -0.49820567746E+01  0.93182536150E+02  0.41800000000E+01 0.  1.
        -11    1    4    4    0    0 -0.15697471899E+02  0.46024246421E+01 -0.36534194321E+00  0.16362347366E+02  0.00000000000E+00 0.  1.
         11    1    4    4    0    0  0.12333574445E+03  0.54867360063E+02  0.72326646070E+02  0.15314462704E+03  0.00000000000E+00 0. -1.
</event>
<event>
 8    1  0.7232317E-009  0.1866613E+03  0.7561462E-02  0.1161508E+00
         -2   -1    0    0    0  501 -0.00000000000E+00  0.00000000000E+00  0.30987929562E+03  0.30987929562E+03  0.00000000000E+00 0.  1.
          2   -1    0    0  501    0  0.00000000000E+00 -0.00000000000E+00 -0.13876954424E+03  0.13876954424E+03  0.00000000000E+00 0. -1.
         25    2    1    2    0    0 -0.12419053385E+03  0.12326317571E+03  0.66273331043E+02  0.22509758310E+03  0.12513859647E+03 0.  0.
         23    2    1    2    0    0  0.12419053385E+03 -0.12326317571E+03  0.10483642033E+03  0.22355125676E+03  0.91473439790E+02 0.  0.
          5    1    3    3  502    0 -0.39922862337E+02  0.29041901627E+02 -0.36981771245E+02  0.61825486587E+02  0.41800000000E+01 0. -1.
         -5    1    3    3    0  502 -0.84267671510E+02  0.94221274085E+02  0.10325510229E+03  0.16327209652E+03  0.41800000000E+01 0. -1.
        -11    1    4    4    0    0 -0.11777375129E+02 -0.30524918508E+02  0.20606657388E+02  0.38666672258E+02  0.00000000000E+00 0.  1.
         11    1    4    4    0    0  0.13596790898E+03 -0.92738257204E+02  0.84229762942E+02  0.18488458450E+03  0.00000000000E+00 0. -1.
</event>
<event>
 8    1  0.7232317E-009  0.1679710E+03  0.7561462E-02  0.1179980E+00
         -1   -1    0    0    0  501 -0.00000000000E+00  0.00000000000E+00  0.36522473898E+03  0.36522473898E+03  0.00000000000E+00 0.  1.
          1   -1    0    0  501    0  0.00000000000E+00 -0.00000000000E+00 -0.80403471257E+02  0.80403471257E+02  0.00000000000E+00 0. -1.
         25    2    1    2    0    0 -0.94708005149E+02 -0.92357673903E+02  0.16471572387E+03  0.24551719804E+03  0.12509148123E+03 0.  0.
         23    2    1    2    0    0  0.94708005149E+02  0.92357673903E+02  0.12010554386E+03  0.20011101220E+03  0.90108431185E+02 0.  0.
          5    1    3    3  502    0 -0.62998714344E+02  0.15743092245E+02  0.35819857360E+02  0.74277974822E+02  0.41800000000E+01 0. -1.
         -5    1    3    3    0  502 -0.31709290805E+02 -0.10810076615E+03  0.12889586651E+03  0.17123922322E+03  0.41800000000E+01 0. -1.
        -11    1    4    4    0    0 -0.10843380685E+02  0.37793074282E+02  0.43995398157E+02  0.59004156018E+02  0.00000000000E+00 0.  1.
         11    1    4    4    0    0  0.10555138583E+03  0.54564599621E+02  0.76110145700E+02  0.14110685618E+03  0.00000000000E+00 0. -1.
</event>
<event>
 8    1  0.7232317E-009  0.1137436E+03  0.7561462E-02  0.1253790E+00
          1   -1    0    0  501    0  0.00000000000E+00  0.00000000000E+00  0.15786754453E+03  0.15786754453E+03  0.00000000000E+00 0. -1.
         -1   -1    0    0    0  501 -0.00000000000E+00 -0.00000000000E+00 -0.82302095298E+02  0.82302095298E+02  0.00000000000E+00 0.  1.
         25    2    1    2    0    0 -0.73545606742E+01 -0.30849518373E+02  0.45840220924E+02  0.13694650014E+03  0.12508891118E+03 0.  0.
         23    2    1    2    0    0  0.73545606742E+01  0.30849518373E+02  0.29725228304E+02  0.10322313968E+03  0.93625023480E+02 0.  0.
          5    1    3    3  502    0 -0.65812027619E+02 -0.10626793230E+02  0.28057845406E+02  0.72449063503E+02  0.41800000000E+01 0.  1.
         -5    1    3    3    0  502  0.58457466945E+02 -0.20222725143E+02  0.17782375517E+02  0.64497436638E+02  0.41800000000E+01 0.  1.
        -11    1    4    4    0    0  0.23827539144E+02 -0.28472603259E+02  0.14005474811E+02  0.39681155259E+02  0.00000000000E+00 0.  1.
         11    1    4    4    0    0 -0.16472978470E+02  0.59322121632E+02  0.15719753493E+02  0.63541984423E+02  0.00000000000E+00 0. -1.
</event>
<event>
 8    1  0.7232317E-009  0.1352382E+03  0.7561462E-02  0.1219884E+00
          2   -1    0    0  501    0  0.00000000000E+00  0.00000000000E+00  0.97376253563E+02  0.97376253563E+02  0.00000000000E+00 0. -1.
         -2   -1    0    0    0  501 -0.00000000000E+00 -0.00000000000E+00 -0.20033988527E+03  0.20033988527E+03  0.00000000000E+00 0.  1.
         25    2    1    2    0    0  0.47631565901E+02  0.73305056157E+02 -0.60685136709E+02  0.16423277267E+03  0.12508925003E+03 0.  0.
         23    2    1    2    0    0 -0.47631565901E+02 -0.73305056157E+02 -0.42278495001E+02  0.13348336616E+03  0.91585700711E+02 0.  0.
          5    1    3    3  502    0  0.79365645476E+02  0.79078643914E+02 -0.67686687542E+02  0.13096296299E+03  0.41800000000E+01 0. -1.
         -5    1    3    3    0  502 -0.31734079575E+02 -0.57735877568E+01  0.70015508333E+01  0.33269809680E+02  0.41800000000E+01 0. -1.
        -11    1    4    4    0    0 -0.33655657003E+00 -0.78279920072E+02 -0.19087643919E+02  0.80574172706E+02  0.00000000000E+00 0.  1.
         11    1    4    4    0    0 -0.47295009331E+02  0.49748639148E+01 -0.23190851081E+02  0.52909193459E+02  0.00000000000E+00 0. -1.
</event>
<event>
 8    1  0.7232317E-009  0.1037563E+03  0.7561462E-02  0.1272590E+00
          1   -1    0    0  501    0  0.00000000000E+00  0.00000000000E+00  0.33235283215E+03  0.33235283215E+03  0.00000000000E+00 0. -1.
         -1   -1    0    0    0  501 -0.00000000000E+00 -0.00000000000E+00 -0.52140244882E+02  0.52140244882E+02  0.00000000000E+00 0.  1.
         25    2    1    2    0    0  0.25516487434E+02 -0.45459790707E+02  0.23429425785E+03  0.27066472639E+03  0.12509161103E+03 0.  0.
         23    2    1    2    0    0 -0.25516487434E+02  0.45459790707E+02  0.45918329413E+02  0.11382835064E+03  0.90170487024E+02 0.  0.
          5    1    3    3  502    0  0.69430089377E+02 -0.54785906970E+02  0.17552811989E+03  0.19659508179E+03  0.41800000000E+01 0.  1.
         -5    1    3    3    0  502 -0.43913601943E+02  0.93261162629E+01  0.58766137966E+02  0.74069644603E+02  0.41800000000E+01 0.  1.
        -11    1    4    4    0    0  0.13640777602E+02 -0.31751430546E+00  0.51550512085E+02  0.53325668539E+02  0.00000000000E+00 0.  1.
         11    1    4    4    0    0 -0.39157265035E+02  0.45777305012E+02 -0.56321826713E+01  0.60502682096E+02  0.00000000000E+00 0. -1.
</event>
<event>
 8    1  0.7232317E-009  0.1054391E+03  0.7561462E-02  0.1269257E+00
          1   -1    0    0  501    0  0.00000000000E+00  0.00000000000E+00  0.13336965676E+03  0.13336965676E+03  0.00000000000E+00 0. -1.
         -1   -1    0    0    0  501 -0.00000000000E+00 -0.00000000000E+00 -0.21940357590E+03  0.21940357590E+03  0.00000000000E+00 0.  1.
         25    2    1    2    0    0 -0.57616176952E+02 -0.36142943183E+02  0.70129990005E+02  0.15871992575E+03  0.12509141914E+03 0.  0.
         23    2    1    2    0    0  0.57616176952E+02  0.36142943183E+02 -0.15616390915E+03  0.19405330691E+03  0.92970872933E+02 0.  0.
          5    1    3    3  502    0  0.24974120168E+02 -0.25049953321E+02 -0.15783071114E+02  0.38958754771E+02  0.41800000000E+01 0. -1.
         -5    1    3    3    0  502 -0.82590297121E+02 -0.11092989863E+02  0.85913061119E+02  0.11976117098E+03  0.41800000000E+01 0. -1.
        -11    1    4    4    0    0  0.10342368067E+02 -0.17496476929E+02 -0.10292046231E+03  0.10490811619E+03  0.00000000000E+00 0. -1.
         11    1    4    4    0    0  0.47273808885E+02  0.53639420112E+02 -0.53243446848E+02  0.89145190721E+02  0.00000000000E+00 0.  1.
</event>
<event>
 8    1  0.7232317E-009  0.1205190E+03  0.7561462E-02  0.1242243E+00
         -1   -1    0    0    0  501 -0.00000000000E+00  0.00000000000E+00  0.24447989947E+03  0.24447989947E+03  0.00000000000E+00 0.  1.
          1   -1    0    0  501    0  0.00000000000E+00 -0.00000000000E+00 -0.73127273510E+02  0.73127273510E+02  0.00000000000E+00 0. -1.
         25    2    1    2    0    0 -0.95922717221E+01  0.42827534636E+02  0.15913472511E+03  0.20711669819E+03  0.12508899444E+03 0.  0.
         23    2    1    2    0    0  0.95922717221E+01 -0.42827534636E+02  0.12217900851E+02  0.11049047480E+03  0.10066110728E+03 0.  0.
          5    1    3    3  502    0  0.54546522896E+02  0.40278059378E+02  0.74711765540E+02  0.10098002544E+03  0.41800000000E+01 0.  1.
         -5    1    3    3    0  502 -0.64138794618E+02  0.25494752584E+01  0.84422959573E+02  0.10613667275E+03  0.41800000000E+01 0.  1.
        -11    1    4    4    0    0 -0.25627487164E+02 -0.63124480750E+02  0.14949045790E+02  0.69749137187E+02  0.00000000000E+00 0.  1.
         11    1    4    4    0    0  0.35219758886E+02  0.20296946114E+02 -0.27311449386E+01  0.40741337610E+02  0.00000000000E+00 0. -1.
</event>
<event>
 8    1  0.7232317E-009  0.7824470E+02  0.7561462E-02  0.1334108E+00
          2   -1    0    0  501    0  0.00000000000E+00  0.00000000000E+00  0.40357574122E+03  0.40357574122E+03  0.00000000000E+00 0. -1.
         -2   -1    0    0    0  501 -0.00000000000E+00 -0.00000000000E+00 -0.31524285974E+02  0.31524285974E+02  0.00000000000E+00 0.  1.
         25    2    1    2    0    0  0.29536557296E+00  0.11308286056E+02  0.27212295769E+03  0.29971010958E+03  0.12508909269E+03 0.  0.
         23    2    1    2    0    0 -0.29536557296E+00 -0.11308286056E+02  0.99928497554E+02  0.13538991761E+03  0.90646349031E+02 0.  0.
          5    1    3    3  502    0  0.48732732937E+02  0.55030590667E+01  0.42824738510E+02  0.65242574651E+02  0.41800000000E+01 0.  1.
         -5    1    3    3    0  502 -0.48437367364E+02  0.58052269889E+01  0.22929821918E+03  0.23446753493E+03  0.41800000000E+01 0.  1.
        -11    1    4    4    0    0  0.20368478921E+02 -0.25944103638E+02  0.10456761338E+03  0.10964651027E+03  0.00000000000E+00 0. -1.
         11    1    4    4    0    0 -0.20663844494E+02  0.14635817582E+02 -0.46391158273E+01  0.25743407335E+02  0.00000000000E+00 0.  1.
</event>
<event>
 8    1  0.7232317E-009  0.1710899E+03  0.7561462E-02  0.1176716E+00
          2   -1    0    0  501    0  0.00000000000E+00  0.00000000000E+00  0.10414142233E+03  0.10414142233E+03  0.00000000000E+00 0. -1.
         -2   -1    0    0    0  501 -0.00000000000E+00 -0.00000000000E+00 -0.45254373238E+03  0.45254373238E+03  0.00000000000E+00 0.  1.
         25    2    1    2    0    0  0.57311593817E+02 -0.13651865719E+03 -0.33067449849E+03  0.38329508993E+03  0.12509012535E+03 0.  0.
         23    2    1    2    0    0 -0.57311593817E+02  0.13651865719E+03 -0.17727811561E+02  0.17339006479E+03  0.88475288738E+02 0.  0.
          5    1    3    3  502    0  0.61782568969E+02 -0.16504393632E+02 -0.17679858900E+03  0.18805503000E+03  0.41800000000E+01 0.  1.
         -5    1    3    3    0  502 -0.44709751522E+01 -0.12001426356E+03 -0.15387590949E+03  0.19524005992E+03  0.41800000000E+01 0.  1.
        -11    1    4    4    0    0 -0.40166664990E+02  0.13484205762E+03 -0.39014180113E+02  0.14600632770E+03  0.00000000000E+00 0.  1.
         11    1    4    4    0    0 -0.17144928827E+02  0.16765995714E+01  0.21286368551E+02  0.27383737085E+02  0.00000000000E+00 0. -1.
</event>
<event>
 8    1  0.7232317E-009  0.1121767E+03  0.7561462E-02  0.1256591E+00
          1   -1    0    0  501    0  0.00000000000E+00  0.00000000000E+00  0.11894060619E+04  0.11894060619E+04  0.00000000000E+00 0. -1.
         -1   -1    0    0    0  501 -0.00000000000E+00 -0.00000000000E+00 -0.13888574575E+02  0.13888574575E+02  0.00000000000E+00 0.  1.
         25    2    1    2    0    0 -0.15863244810E+02 -0.41657409330E+02  0.88509362290E+03  0.89499996467E+03  0.12508890109E+03 0.  0.
         23    2    1    2    0    0  0.15863244810E+02  0.41657409330E+02  0.29042386445E+03  0.30829467183E+03  0.93341316400E+02 0.  0.
          5    1    3    3  502    0  0.51468706365E+02 -0.53435329839E+01  0.47342176914E+03  0.47625961930E+03  0.41800000000E+01 0.  1.
         -5    1    3    3    0  502 -0.67331951175E+02 -0.36313876346E+02  0.41167185376E+03  0.41874034537E+03  0.41800000000E+01 0.  1.
        -11    1    4    4    0    0  0.47599214951E+02  0.42880252231E+02  0.24236770655E+03  0.25069205507E+03  0.00000000000E+00 0. -1.
         11    1    4    4    0    0 -0.31735970141E+02 -0.12228429017E+01  0.48056157902E+02  0.57602616762E+02  0.00000000000E+00 0.  1.
</event>
<event>
 8    1  0.7232317E-009  0.1556280E+03  0.7561462E-02  0.1193723E+00
          3   -1    0    0  501    0  0.00000000000E+00  0.00000000000E+00  0.12428436447E+03  0.12428436447E+03  0.00000000000E+00 0. -1.
         -3   -1    0    0    0  501 -0.00000000000E+00 -0.00000000000E+00 -0.24511451450E+03  0.24511451450E+03  0.00000000000E+00 0.  1.
         25    2    1    2    0    0 -0.10870167588E+03 -0.72372505869E+02 -0.10226881277E+03  0.20774397105E+03  0.12507922889E+03 0.  0.
         23    2    1    2    0    0  0.10870167588E+03  0.72372505869E+02 -0.18561337255E+02  0.16165490792E+03  0.93455615505E+02 0.  0.
          5    1    3    3  502    0 -0.19853586150E+02 -0.87977902155E+02 -0.56430983583E+02  0.10647161339E+03  0.41800000000E+01 0.  1.
         -5    1    3    3    0  502 -0.88848089726E+02  0.15605396286E+02 -0.45837829183E+02  0.10127235766E+03  0.41800000000E+01 0.  1.
        -11    1    4    4    0    0  0.73202200317E+02  0.46246908376E+02 -0.56590531776E+02  0.10343996787E+03  0.00000000000E+00 0.  1.
         11    1    4    4    0    0  0.35499475558E+02  0.26125597493E+02  0.38029194521E+02  0.58214940052E+02  0.00000000000E+00 0. -1.
</event>
<event>
 8    1  0.1491459E-008  0.9383963E+02  0.7561462E-02  0.1293811E+00
         -1   -1    0    0    0  501 -0.00000000000E+00  0.00000000000E+00  0.15359851544E+02  0.15359851544E+02  0.00000000000E+00 0.  1.
          1   -1    0    0  501    0  0.00000000000E+00 -0.00000000000E+00 -0.71407644352E+03  0.71407644352E+03  0.00000000000E+00 0. -1.
         25    2    1    2    0    0 -0.33743871150E+02 -0.25069659957E+02 -0.49865519483E+03  0.51582120912E+03  0.12508948702E+03 0.  0.
         23    2    1    2    0    0  0.33743871150E+02  0.25069659957E+02 -0.20006139715E+03  0.21361508594E+03  0.61965358238E+02 0.  0.
          5    1    3    3  502    0 -0.71024571788E+02 -0.79255091424E+01 -0.42850537060E+03  0.43444404534E+03  0.41800000000E+01 0. -1.
         -5    1    3    3    0  502  0.37280700638E+02 -0.17144150815E+02 -0.70149824227E+02  0.81377163789E+02  0.41800000000E+01 0. -1.
        -11    1    4    4    0    0 -0.24818949251E+01  0.36711350571E+02 -0.10153777562E+03  0.10799908768E+03  0.00000000000E+00 0.  1.
         11    1    4    4    0    0  0.36225766075E+02 -0.11641690614E+02 -0.98523621533E+02  0.10561599826E+03  0.00000000000E+00 0. -1.
</event>
<event>
 8    1  0.7232317E-009  0.1060778E+03  0.7561462E-02  0.1268010E+00
          2   -1    0    0  501    0  0.00000000000E+00  0.00000000000E+00  0.83582477870E+03  0.83582477870E+03  0.00000000000E+00 0. -1.
         -2   -1    0    0    0  501 -0.00000000000E+00 -0.00000000000E+00 -0.21412354829E+02  0.21412354829E+02  0.00000000000E+00 0.  1.
         25    2    1    2    0    0  0.39196208271E+02 -0.45090478657E+02  0.60891871487E+03  0.62449913072E+03  0.12509064291E+03 0.  0.
         23    2    1    2    0    0 -0.39196208271E+02  0.45090478657E+02  0.20549370900E+03  0.23273800280E+03  0.91486717634E+02 0.  0.
          5    1    3    3  502    0  0.20350392346E+02 -0.85513874908E+02  0.48048800326E+03  0.48848025031E+03  0.41800000000E+01 0.  1.
         -5    1    3    3    0  502  0.18845815925E+02  0.40423396251E+02  0.12843071162E+03  0.13601888041E+03  0.41800000000E+01 0.  1.
        -11    1    4    4    0    0 -0.47000477878E+02  0.16643667898E+02  0.19524411426E+03  0.20151010088E+03  0.00000000000E+00 0. -1.
         11    1    4    4    0    0  0.78042696068E+01  0.28446810759E+02  0.10249594734E+02  0.31227901925E+02  0.00000000000E+00 0.  1.
</event>
<event>
 8    1  0.7232317E-009  0.1347267E+03  0.7561462E-02  0.1220606E+00
         -1   -1    0    0    0  501 -0.00000000000E+00  0.00000000000E+00  0.41735969715E+03  0.41735969715E+03  0.00000000000E+00 0.  1.
          1   -1    0    0  501    0  0.00000000000E+00 -0.00000000000E+00 -0.63383379337E+02  0.63383379337E+02  0.00000000000E+00 0. -1.
         25    2    1    2    0    0  0.48553362282E+02 -0.98259659842E+02  0.26397578686E+03  0.31200002262E+03  0.12509359826E+03 0.  0.
         23    2    1    2    0    0 -0.48553362282E+02  0.98259659842E+02  0.90000530953E+02  0.16874305386E+03  0.91442511527E+02 0.  0.
          5    1    3    3  502    0  0.45462857878E+02 -0.22523587570E+02  0.21663049257E+03  0.22253185425E+03  0.41800000000E+01 0.  1.
         -5    1    3    3    0  502  0.30905044039E+01 -0.75736072272E+02  0.47345294285E+02  0.89468168370E+02  0.41800000000E+01 0.  1.
        -11    1    4    4    0    0 -0.28707525835E+02  0.11383748992E+03  0.76531639590E+02  0.14014345511E+03  0.00000000000E+00 0.  1.
         11    1    4    4    0    0 -0.19845836447E+02 -0.15577830082E+02  0.13468891363E+02  0.28599598754E+02  0.00000000000E+00 0. -1.
</event>
<event>
 8    1  0.7232317E-009  0.1556034E+03  0.7561462E-02  0.1193752E+00
         -1   -1    0    0    0  501 -0.00000000000E+00  0.00000000000E+00  0.18251619231E+03  0.18251619231E+03  0.00000000000E+00 0.  1.
          1   -1    0    0  501    0  0.00000000000E+00 -0.00000000000E+00 -0.32037711417E+03  0.32037711417E+03  0.00000000000E+00 0. -1.
         25    2    1    2    0    0  0.40545773518E+02 -0.12667485572E+03  0.10584722862E+03  0.21104909615E+03  0.12509039275E+03 0.  0.
         23    2    1    2    0    0 -0.40545773518E+02  0.12667485572E+03 -0.24370815047E+03  0.29184421032E+03  0.89938321482E+02 0.  0.
          5    1    3    3  502    0  0.64043925954E+02 -0.72864631541E+02  0.87390367600E+01  0.97492164530E+02  0.41800000000E+01 0. -1.
         -5    1    3    3    0  502 -0.23498152436E+02 -0.53810224182E+02  0.97108191855E+02  0.11355693162E+03  0.41800000000E+01 0. -1.
        -11    1    4    4    0    0  0.22966312184E+02  0.54262038195E+02 -0.58191224805E+02  0.82813277490E+02  0.00000000000E+00 0. -1.
         11    1    4    4    0    0 -0.63512085702E+02  0.72412817528E+02 -0.18551692567E+03  0.20903093283E+03  0.00000000000E+00 0.  1.
</event>
<event>
 8    1  0.7232317E-009  0.7303867E+02  0.7561462E-02  0.1350054E+00
         -2   -1    0    0    0  501 -0.00000000000E+00  0.00000000000E+00  0.39317189448E+02  0.39317189448E+02  0.00000000000E+00 0.  1.
          2   -1    0    0  501    0  0.00000000000E+00 -0.00000000000E+00 -0.45043490114E+03  0.45043490114E+03  0.00000000000E+00 0. -1.
         25    2    1    2    0    0  0.31876377369E+02 -0.27077781445E+02 -0.10736462965E+03  0.17007019086E+03  0.12508955367E+03 0.  0.
         23    2    1    2    0    0 -0.31876377369E+02  0.27077781445E+02 -0.30375308204E+03  0.31968189973E+03  0.90450386849E+02 0.  0.
          5    1    3    3  502    0  0.22533076115E+02 -0.29180199666E+02  0.20086116847E+02  0.42191800883E+02  0.41800000000E+01 0.  1.
         -5    1    3    3    0  502  0.93433012532E+01  0.21024182204E+01 -0.12745074649E+03  0.12787838997E+03  0.41800000000E+01 0.  1.
        -11    1    4    4    0    0  0.78660355917E+01  0.51354557355E+02 -0.13603851838E+03  0.14562157656E+03  0.00000000000E+00 0.  1.
         11    1    4    4    0    0 -0.39742412960E+02 -0.24276775910E+02 -0.16771456367E+03  0.17406032317E+03  0.00000000000E+00 0. -1.
</event>
<event>
 8    1  0.7232317E-009  0.1132965E+03  0.7561462E-02  0.1254584E+00
          4   -1    0    0  501    0  0.00000000000E+00  0.00000000000E+00  0.74169214826E+03  0.74169214826E+03  0.00000000000E+00 0. -1.
         -4   -1    0    0    0  501 -0.00000000000E+00 -0.00000000000E+00 -0.21304323256E+02  0.21304323256E+02  0.00000000000E+00 0.  1.
         25    2    1    2    0    0 -0.39468344416E+02  0.14875368286E+02  0.25603703611E+03  0.28806527839E+03  0.12509042316E+03 0.  0.
         23    2    1    2    0    0  0.39468344416E+02 -0.14875368286E+02  0.46435078890E+03  0.47493119313E+03  0.90326940936E+02 0.  0.
          5    1    3    3  502    0 -0.45536946858E+02  0.64576772192E+02  0.18342124848E+03  0.19976135720E+03  0.41800000000E+01 0.  1.
         -5    1    3    3    0  502  0.60686024419E+01 -0.49701403906E+02  0.72615787623E+02  0.88303921192E+02  0.41800000000E+01 0.  1.
        -11    1    4    4    0    0  0.42257357516E+02  0.30275334999E+02  0.19509482803E+03  0.20190163966E+03  0.00000000000E+00 0.  1.
         11    1    4    4    0    0 -0.27890131006E+01 -0.45150703285E+02  0.26925596087E+03  0.27302955347E+03  0.00000000000E+00 0. -1.
</event>
<event>
 8    1  0.7232317E-009  0.1134283E+03  0.7561462E-02  0.1254350E+00
         -2   -1    0    0    0  501 -0.00000000000E+00  0.00000000000E+00  0.39641554146E+02  0.39641554146E+02  0.00000000000E+00 0.  1.
          2   -1    0    0  501    0  0.00000000000E+00 -0.00000000000E+00 -0.48744795551E+03  0.48744795551E+03  0.00000000000E+00 0. -1.
         25    2    1    2    0    0 -0.56720584589E+02 -0.50142211797E+02 -0.31924588571E+03  0.35113634591E+03  0.12508929512E+03 0.  0.
         23    2    1    2    0    0  0.56720584589E+02  0.50142211797E+02 -0.12856051565E+03  0.17595316374E+03  0.93275095967E+02 0.  0.
          5    1    3    3  502    0 -0.93263533223E+02 -0.15362051817E+02 -0.18796405154E+03  0.21043297350E+03  0.41800000000E+01 0.  1.
         -5    1    3    3    0  502  0.36542948634E+02 -0.34780159980E+02 -0.13128183417E+03  0.14070337241E+03  0.41800000000E+01 0.  1.
        -11    1    4    4    0    0 -0.14047350072E+01  0.12040999404E+02  0.13292007517E+02  0.17989897469E+02  0.00000000000E+00 0.  1.
         11    1    4    4    0    0  0.58125319596E+02  0.38101212392E+02 -0.14185252316E+03  0.15796326627E+03  0.00000000000E+00 0. -1.
</event>
<event>
 8    1  0.7232317E-009  0.1075803E+03  0.7561462E-02  0.1265118E+00
         -1   -1    0    0    0  501 -0.00000000000E+00  0.00000000000E+00  0.27123699238E+02  0.27123699238E+02  0.00000000000E+00 0.  1.
          1   -1    0    0  501    0  0.00000000000E+00 -0.00000000000E+00 -0.87898566502E+03  0.87898566502E+03  0.00000000000E+00 0. -1.
         25    2    1    2    0    0 -0.32819830380E+02 -0.70765393075E+02 -0.23649238821E+03  0.27867727391E+03  0.12508993240E+03 0.  0.
         23    2    1    2    0    0  0.32819830380E+02  0.70765393075E+02 -0.61536957757E+03  0.62743209035E+03  0.94373878144E+02 0.  0.
          5    1    3    3  502    0 -0.20503236779E+02 -0.76940051915E+02 -0.24783672555E+03  0.26034720901E+03  0.41800000000E+01 0. -1.
         -5    1    3    3    0  502 -0.12316593601E+02  0.61746588399E+01  0.11344337337E+02  0.18330064903E+02  0.41800000000E+01 0. -1.
        -11    1    4    4    0    0 -0.17571119655E+02  0.68357337026E+02 -0.31084648256E+03  0.31875853791E+03  0.00000000000E+00 0.  1.
         11    1    4    4    0    0  0.50390950035E+02  0.24080560498E+01 -0.30452309501E+03  0.30867355244E+03  0.00000000000E+00 0. -1.
</event>
<event>
 8    1  0.7232317E-009  0.1774836E+03  0.7561462E-02  0.1170261E+00
         -1   -1    0    0    0  501 -0.00000000000E+00  0.00000000000E+00  0.22773193600E+03  0.22773193600E+03  0.00000000000E+00 0. -1.
          1   -1    0    0  501    0  0.00000000000E+00 -0.00000000000E+00 -0.19453062185E+03  0.19453062185E+03  0.00000000000E+00 0.  1.
         25    2    1    2    0    0  0.20422961909E+02 -0.15496835884E+03 -0.72960248493E+02  0.21307947715E+03  0.12508947241E+03 0.  0.
         23    2    1    2    0    0 -0.20422961909E+02  0.15496835884E+03  0.10616156264E+03  0.20918308069E+03  0.89749619766E+02 0.  0.
          5    1    3    3  502    0 -0.29896751940E+02 -0.13917927243E+03 -0.31481417711E+02  0.14585348029E+03  0.41800000000E+01 0. -1.
         -5    1    3    3    0  502  0.50319713849E+02 -0.15789086414E+02 -0.41478830781E+02  0.67225996866E+02  0.41800000000E+01 0. -1.
        -11    1    4    4    0    0 -0.23384202270E+02  0.56673645247E+02  0.90935245340E+02  0.10967197375E+03  0.00000000000E+00 0.  1.
         11    1    4    4    0    0  0.29612403613E+01  0.98294713597E+02  0.15226317304E+02  0.99511106939E+02  0.00000000000E+00 0. -1.
</event>
<event>
 8    1  0.7232317E-009  0.8288578E+02  0.7561462E-02  0.1321056E+00
          1   -1    0    0  501    0  0.00000000000E+00  0.00000000000E+00  0.26111560991E+03  0.26111560991E+03  0.00000000000E+00 0. -1.
         -1   -1    0    0    0  501 -0.00000000000E+00 -0.00000000000E+00 -0.62659388366E+02  0.62659388366E+02  0.00000000000E+00 0.  1.
         25    2    1    2    0    0 -0.10465012530E+01 -0.53581013685E+02  0.15986323876E+03  0.20994251841E+03  0.12509031033E+03 0.  0.
         23    2    1    2    0    0  0.10465012530E+01  0.53581013685E+02  0.38592982790E+02  0.11383247987E+03  0.92716745841E+02 0.  0.
          5    1    3    3  502    0  0.27427168654E+02  0.17046564657E+02  0.11909043409E+03  0.12346189225E+03  0.41800000000E+01 0. -1.
         -5    1    3    3    0  502 -0.28473669907E+02 -0.70627578342E+02  0.40772804666E+02  0.86480626158E+02  0.41800000000E+01 0. -1.
        -11    1    4    4    0    0  0.81542893569E+01  0.10574109838E+02  0.62641218758E+02  0.64048626224E+02  0.00000000000E+00 0. -1.
         11    1    4    4    0    0 -0.71077881039E+01  0.43006903847E+02 -0.24048235968E+02  0.49783853641E+02  0.00000000000E+00 0.  1.
</event>
<event>
 8    1  0.7232317E-009  0.2428625E+03  0.7561462E-02  0.1117900E+00
         -2   -1    0    0    0  501 -0.00000000000E+00  0.00000000000E+00  0.12919248062E+04  0.12919248062E+04  0.00000000000E+00 0.  1.
          2   -1    0    0  501    0  0.00000000000E+00 -0.00000000000E+00 -0.82150134933E+02  0.82150134933E+02  0.00000000000E+00 0. -1.
         25    2    1    2    0    0  0.21064984928E+03 -0.11609419098E+03  0.21220518354E+03  0.34427962748E+03  0.12508477842E+03 0.  0.
         23    2    1    2    0    0 -0.21064984928E+03  0.11609419098E+03  0.99756948775E+03  0.10297953137E+04  0.86500202415E+02 0.  0.
          5    1    3    3  502    0  0.62683620780E+02 -0.41911284670E+02  0.50666192820E+00  0.75521660490E+02  0.41800000000E+01 0.  1.
         -5    1    3    3    0  502  0.14796622850E+03 -0.74182906307E+02  0.21169852162E+03  0.26875796699E+03  0.41800000000E+01 0.  1.
        -11    1    4    4    0    0 -0.15086896554E+03  0.59087819410E+02  0.78897280315E+03  0.80543832742E+03  0.00000000000E+00 0.  1.
         11    1    4    4    0    0 -0.59780883743E+02  0.57006371568E+02  0.20859668460E+03  0.22435698627E+03  0.00000000000E+00 0. -1.
</event>
<event>
 8    1  0.7232317E-009  0.6407709E+02  0.7561462E-02  0.1381477E+00
          3   -1    0    0  501    0  0.00000000000E+00  0.00000000000E+00  0.68094285246E+03  0.68094285246E+03  0.00000000000E+00 0. -1.
         -3   -1    0    0    0  501 -0.00000000000E+00 -0.00000000000E+00 -0.54923870971E+02  0.54923870971E+02  0.00000000000E+00 0.  1.
         25    2    1    2    0    0 -0.43902088713E+01 -0.46307407402E+02  0.61894665408E+03  0.63317210204E+03  0.12509316645E+03 0.  0.
         23    2    1    2    0    0  0.43902088713E+01  0.46307407402E+02  0.70723274121E+01  0.10269462139E+03  0.91282624490E+02 0.  0.
          5    1    3    3  502    0 -0.10921752956E+02 -0.51303980875E+02  0.62140206073E+03  0.62362599098E+03  0.41800000000E+01 0. -1.
         -5    1    3    3    0  502  0.65315440849E+01  0.49965734733E+01 -0.24554066522E+01  0.95461110634E+01  0.41800000000E+01 0. -1.
        -11    1    4    4    0    0 -0.19741407485E+02  0.85821099891E+01  0.41136485965E+02  0.46428291579E+02  0.00000000000E+00 0. -1.
         11    1    4    4    0    0  0.24131616357E+02  0.37725297413E+02 -0.34064158553E+02  0.56266329814E+02  0.00000000000E+00 0.  1.
</event>
<event>
 8    1  0.7232317E-009  0.2100529E+03  0.7561462E-02  0.1141524E+00
          2   -1    0    0  501    0  0.00000000000E+00  0.00000000000E+00  0.12122196927E+03  0.12122196927E+03  0.00000000000E+00 0. -1.
         -2   -1    0    0    0  501 -0.00000000000E+00 -0.00000000000E+00 -0.52601799959E+03  0.52601799959E+03  0.00000000000E+00 0.  1.
         25    2    1    2    0    0  0.15156466207E+02 -0.17982206629E+03 -0.30547796714E+02  0.22169022204E+03  0.12509073774E+03 0.  0.
         23    2    1    2    0    0 -0.15156466207E+02  0.17982206629E+03 -0.37424823361E+03  0.42554974682E+03  0.92006264294E+02 0.  0.
          5    1    3    3  502    0 -0.28911026950E+02 -0.17217925531E+03 -0.23232526696E+02  0.17617822265E+03  0.41800000000E+01 0. -1.
         -5    1    3    3    0  502  0.44067493157E+02 -0.76428109792E+01 -0.73152700172E+01  0.45511999387E+02  0.41800000000E+01 0. -1.
        -11    1    4    4    0    0  0.20196632079E+02  0.15738106040E+03 -0.26948847694E+03  0.31273110067E+03  0.00000000000E+00 0. -1.
         11    1    4    4    0    0 -0.35353098286E+02  0.22441005893E+02 -0.10475975667E+03  0.11281864616E+03  0.00000000000E+00 0.  1.
</event>
<event>
 8    1  0.7232317E-009  0.1194920E+03  0.7561462E-02  0.1243937E+00
         -1   -1    0    0    0  501 -0.00000000000E+00  0.00000000000E+00  0.14688715935E+03  0.14688715935E+03  0.00000000000E+00 0.  1.
          1   -1    0    0  501    0  0.00000000000E+00 -0.00000000000E+00 -0.14549083495E+03  0.14549083495E+03  0.00000000000E+00 0. -1.
         25    2    1    2    0    0  0.19225014183E+02 -0.82070243857E+02  0.47483102202E+02  0.15813600646E+03  0.12508887019E+03 0.  0.
         23    2    1    2    0    0 -0.19225014183E+02  0.82070243857E+02 -0.46086777801E+02  0.13424198785E+03  0.93764567492E+02 0.  0.
          5    1    3    3  502    0 -0.30481456335E+02 -0.88679422719E+02  0.52532708847E+02  0.10756540844E+03  0.41800000000E+01 0.  1.
         -5    1    3    3    0  502  0.49706470518E+02  0.66091788624E+01 -0.50496066455E+01  0.50570598017E+02  0.41800000000E+01 0.  1.
        -11    1    4    4    0    0 -0.33133778719E+02  0.63200426649E+02 -0.70559556822E+02  0.10035333716E+03  0.00000000000E+00 0. -1.
         11    1    4    4    0    0  0.13908764536E+02  0.18869817208E+02  0.24472779021E+02  0.33888650687E+02  0.00000000000E+00 0.  1.
</event>
<event>
 8    1  0.7232317E-009  0.1577852E+03  0.7561462E-02  0.1191220E+00
         -1   -1    0    0    0  501 -0.00000000000E+00  0.00000000000E+00  0.37192231726E+02  0.37192231726E+02  0.00000000000E+00 0.  1.
          1   -1    0    0  501    0  0.00000000000E+00 -0.00000000000E+00 -0.77261826843E+03  0.77261826843E+03  0.00000000000E+00 0. -1.
         25    2    1    2    0    0 -0.12062436835E+03  0.44867728957E+02 -0.41926282462E+03  0.45605967665E+03  0.12508301729E+03 0.  0.
         23    2    1    2    0    0  0.12062436835E+03 -0.44867728957E+02 -0.31616321208E+03  0.35375082351E+03  0.92828428379E+02 0.  0.
          5    1    3    3  502    0 -0.42018128513E+02  0.65394419695E+02 -0.31126745766E+03  0.32085332451E+03  0.41800000000E+01 0. -1.
         -5    1    3    3    0  502 -0.78606239838E+02 -0.20526690738E+02 -0.10799536696E+03  0.13520635214E+03  0.41800000000E+01 0. -1.
        -11    1    4    4    0    0  0.80550538435E+02  0.17325287362E+02 -0.13633828799E+03  0.15930060764E+03  0.00000000000E+00 0.  1.
         11    1    4    4    0    0  0.40073829915E+02 -0.62193016319E+02 -0.17982492410E+03  0.19445021587E+03  0.00000000000E+00 0. -1.
</event>
<event>
 7    1  0.7232317E-009  0.1720123E+03  0.7561462E-02  0.1175765E+00
          1   -1    0    0  501    0  0.00000000000E+00  0.00000000000E+00  0.36126936986E+03  0.36126936986E+03  0.00000000000E+00 0. -1.
         -1   -1    0    0    0  501 -0.00000000000E+00 -0.00000000000E+00 -0.26359333442E+03  0.26359333442E+03  0.00000000000E+00 0.  1.
         23    2    1    2    0    0 -0.21730721505E+02  0.14378371090E+03  0.29996167550E+03  0.34612567483E+03  0.93166497342E+02 0.  0.
          5    1    1    2  502    0  0.68062631222E+02 -0.72972464973E+02 -0.71205025949E+02  0.12265859339E+03  0.41800000000E+01 0. -1.
         -5    1    1    2    0  502 -0.46331909717E+02 -0.70811245928E+02 -0.13108061411E+03  0.15607843606E+03  0.41800000000E+01 0. -1.
        -11    1    3    3    0    0 -0.45291938631E+02  0.93128939938E+02  0.25217127704E+03  0.27260724885E+03  0.00000000000E+00 0.  1.
         11    1    3    3    0    0  0.23561217126E+02  0.50654770963E+02  0.47790398463E+02  0.73518425983E+02  0.00000000000E+00 0. -1.
</event>
<event>
 7    1  0.7232317E-009  0.1780504E+03  0.7561462E-02  0.1169703E+00
         -2   -1    0    0    0  501 -0.00000000000E+00  0.00000000000E+00  0.13834085913E+03  0.13834085913E+03  0.00000000000E+00 0.  1.
          2   -1    0    0  501    0  0.00000000000E+00 -0.00000000000E+00 -0.28371230807E+03  0.28371230807E+03  0.00000000000E+00 0. -1.
         25    2    1    2    0    0 -0.14653755174E+02  0.67886317643E+02 -0.13957097521E+03  0.19987828921E+03  0.12509192105E+03 0.  0.
          5    1    3    3  502    0  0.16751983893E+02  0.93152867775E+02 -0.64637509228E+02  0.11468899572E+03  0.41800000000E+01 0.  1.
         -5    1    3    3    0  502 -0.31405739067E+02 -0.25266550132E+02 -0.74933465982E+02  0.85189293494E+02  0.41800000000E+01 0.  1.
        -11    1    1    2    0    0  0.49146951035E+02 -0.13593453347E+03 -0.15038492139E+02  0.14532644780E+03  0.00000000000E+00 0. -1.
         11    1    1    2    0    0 -0.34493195861E+02  0.68048215827E+02  0.92380184013E+01  0.76848430185E+02  0.00000000000E+00 0.  1.
</event>
<event>
 8    1  0.7232317E-009  0.1318760E+03  0.7561462E-02  0.1224698E+00
          1   -1    0    0  501    0  0.00000000000E+00  0.00000000000E+00  0.11502656724E+04  0.11502656724E+04  0.00000000000E+00 0. -1.
         -1   -1    0    0    0  501 -0.00000000000E+00 -0.00000000000E+00 -0.31971672572E+02  0.31971672572E+02  0.00000000000E+00 0.  1.
         25    2    1    2    0    0  0.29041798949E+02  0.74246929694E+02  0.10123243079E+04  0.10231349243E+04  0.12509410980E+03 0.  0.
         23    2    1    2    0    0 -0.29041798949E+02 -0.74246929694E+02  0.10596969200E+03  0.15910242074E+03  0.87908884695E+02 0.  0.
          5    1    3    3  502    0 -0.23716459277E+02  0.88082338317E+02  0.54176297399E+03  0.54940473346E+03  0.41800000000E+01 0.  1.
         -5    1    3    3    0  502  0.52758258227E+02 -0.13835408623E+02  0.47056133387E+03  0.47373019080E+03  0.41800000000E+01 0.  1.
        -11    1    4    4    0    0  0.29303169282E+02 -0.41576971919E+02  0.35988080254E+02  0.62309407350E+02  0.00000000000E+00 0.  1.
         11    1    4    4    0    0 -0.58344968232E+02 -0.32669957774E+02  0.69981611749E+02  0.96793013394E+02  0.00000000000E+00 0. -1.
</event>
<event>
 8    1  0.7232317E-009  0.1116874E+03  0.7561462E-02  0.1257477E+00
         -1   -1    0    0    0  501 -0.00000000000E+00  0.00000000000E+00  0.33404567956E+03  0.33404567956E+03  0.00000000000E+00 0. -1.
          1   -1    0    0  501    0  0.00000000000E+00 -0.00000000000E+00 -0.56148310160E+02  0.56148310160E+02  0.00000000000E+00 0.  1.
         25    2    1    2    0    0  0.70902603651E+02  0.27175517750E+02  0.10257136566E+03  0.17869975653E+03  0.12508808880E+03 0.  0.
         23    2    1    2    0    0 -0.70902603651E+02 -0.27175517750E+02  0.17532600373E+03  0.21149423319E+03  0.90691317764E+02 0.  0.
          5    1    3    3  502    0  0.85226625764E+02  0.16927673204E+02  0.12347872041E+03  0.15104499546E+03  0.41800000000E+01 0. -1.
         -5    1    3    3    0  502 -0.14324022113E+02  0.10247844546E+02 -0.20907354745E+02  0.27654761069E+02  0.41800000000E+01 0. -1.
        -11    1    4    4    0    0 -0.56253653345E+02 -0.60054710786E+02  0.12229019079E+03  0.14739719320E+03  0.00000000000E+00 0. -1.
         11    1    4    4    0    0 -0.14648950306E+02  0.32879193036E+02  0.53035812947E+02  0.64097039984E+02  0.00000000000E+00 0.  1.
</event>
<event>
 8    1  0.7232317E-009  0.1471713E+03  0.7561462E-02  0.1203993E+00
          1   -1    0    0  501    0  0.00000000000E+00  0.00000000000E+00  0.66806068222E+03  0.66806068222E+03  0.00000000000E+00 0. -1.
         -1   -1    0    0    0  501 -0.00000000000E+00 -0.00000000000E+00 -0.64760269319E+02  0.64760269319E+02  0.00000000000E+00 0.  1.
         25    2    1    2    0    0  0.35935114401E+01  0.11778568337E+03  0.89029670636E+02  0.19354818995E+03  0.12509292166E+03 0.  0.
         23    2    1    2    0    0 -0.35935114401E+01 -0.11778568337E+03  0.51427074226E+03  0.53927276158E+03  0.11159898972E+03 0.  0.
          5    1    3    3  502    0  0.22229901667E+02 -0.13510796627E+02  0.47853427602E+02  0.54627219286E+02  0.41800000000E+01 0.  1.
         -5    1    3    3    0  502 -0.18636390227E+02  0.13129648000E+03  0.41176243034E+02  0.13892097067E+03  0.41800000000E+01 0.  1.
        -11    1    4    4    0    0 -0.19964082827E+02 -0.40016048596E+01  0.11206671100E+02  0.23241491383E+02  0.00000000000E+00 0.  1.
         11    1    4    4    0    0  0.16370571386E+02 -0.11378407851E+03  0.50306407116E+03  0.51603127020E+03  0.00000000000E+00 0. -1.
</event>
<event>
 8    1  0.7232317E-009  0.1237785E+03  0.7561462E-02  0.1236991E+00
         -1   -1    0    0    0  501 -0.00000000000E+00  0.00000000000E+00  0.69658466229E+02  0.69658466229E+02  0.00000000000E+00 0.  1.
          1   -1    0    0  501    0  0.00000000000E+00 -0.00000000000E+00 -0.28928225223E+03  0.28928225223E+03  0.00000000000E+00 0. -1.
         25    2    1    2    0    0 -0.59235686703E+02 -0.31061023928E+02 -0.19872785369E+03  0.24415880300E+03  0.12508839859E+03 0.  0.
         23    2    1    2    0    0  0.59235686703E+02  0.31061023928E+02 -0.20895932314E+02  0.11478191546E+03  0.90909814343E+02 0.  0.
          5    1    3    3  502    0 -0.87187976627E+02 -0.54673334147E+02 -0.16322190709E+03  0.19300202095E+03  0.41800000000E+01 0.  1.
         -5    1    3    3    0  502  0.27952289924E+02  0.23612310219E+02 -0.35505946596E+02  0.51156782048E+02  0.41800000000E+01 0.  1.
        -11    1    4    4    0    0  0.68284522556E+02  0.51401718986E+02 -0.30208168262E+02  0.90650130530E+02  0.00000000000E+00 0. -1.
         11    1    4    4    0    0 -0.90488358534E+01 -0.20340695058E+02  0.93122359478E+01  0.24131784934E+02  0.00000000000E+00 0.  1.
</event>
<event>
 8    1  0.7232317E-009  0.5913025E+02  0.7561462E-02  0.1401518E+00
         -1   -1    0    0    0  501 -0.00000000000E+00  0.00000000000E+00  0.44730534105E+02  0.44730534105E+02  0.00000000000E+00 0.  1.
          1   -1    0    0  501    0  0.00000000000E+00 -0.00000000000E+00 -0.31875886182E+03  0.31875886182E+03  0.00000000000E+00 0. -1.
         25    2    1    2    0    0 -0.24344471601E+02  0.20627398671E+02 -0.21920301429E+03  0.25439272492E+03  0.12509018405E+03 0.  0.
         23    2    1    2    0    0  0.24344471601E+02 -0.20627398671E+02 -0.54825313427E+02  0.10909667100E+03  0.88758806651E+02 0.  0.
          5    1    3    3  502    0  0.16987039933E+01  0.46025337680E+01 -0.22318145682E+03  0.22327450365E+03  0.41800000000E+01 0. -1.
         -5    1    3    3    0  502 -0.26043175594E+02  0.16024864903E+02  0.39784425301E+01  0.31118221272E+02  0.41800000000E+01 0. -1.
        -11    1    4    4    0    0 -0.25911092140E+02  0.16861139231E+01  0.64621489201E+01  0.26757934238E+02  0.00000000000E+00 0.  1.
         11    1    4    4    0    0  0.50255563740E+02 -0.22313512594E+02 -0.61287462347E+02  0.82338736765E+02  0.00000000000E+00 0. -1.
</event>
<event>
 8    1  0.7232317E-009  0.1169909E+03  0.7561462E-02  0.1248145E+00
          1   -1    0    0  501    0  0.00000000000E+00  0.00000000000E+00  0.26640559788E+03  0.26640559788E+03  0.00000000000E+00 0. -1.
         -1   -1    0    0    0  501 -0.00000000000E+00 -0.00000000000E+00 -0.87020619311E+02  0.87020619311E+02  0.00000000000E+00 0.  1.
         25    2    1    2    0    0  0.58871877897E+02 -0.66424600296E+02  0.27006944418E+02  0.15574159340E+03  0.12509173968E+03 0.  0.
         23    2    1    2    0    0 -0.58871877897E+02  0.66424600296E+02  0.15237803415E+03  0.19768462380E+03  0.89342149412E+02 0.  0.
          5    1    3    3  502    0  0.79815825097E+02 -0.54218912114E+02  0.60665145967E+02  0.11405256990E+03  0.41800000000E+01 0. -1.
         -5    1    3    3    0  502 -0.20943947200E+02 -0.12205688182E+02 -0.33658201548E+02  0.41689023493E+02  0.41800000000E+01 0. -1.
        -11    1    4    4    0    0 -0.82722105531E+01  0.61399619345E+02  0.38428901401E+02  0.72904891372E+02  0.00000000000E+00 0.  1.
         11    1    4    4    0    0 -0.50599667344E+02  0.50249809513E+01  0.11394913275E+03  0.12477973242E+03  0.00000000000E+00 0. -1.
</event>
<event>
 8    1  0.7232317E-009  0.1475680E+03  0.7561462E-02  0.1203494E+00
         -1   -1    0    0    0  501 -0.00000000000E+00  0.00000000000E+00  0.29512720420E+03  0.29512720420E+03  0.00000000000E+00 0.  1.
          1   -1    0    0  501    0  0.00000000000E+00 -0.00000000000E+00 -0.10329126334E+03  0.10329126334E+03  0.00000000000E+00 0. -1.
         25    2    1    2    0    0 -0.71852944853E+02 -0.11585271064E+03  0.94778786272E+02  0.20788317823E+03  0.12509077192E+03 0.  0.
         23    2    1    2    0    0  0.71852944853E+02  0.11585271064E+03  0.97057154585E+02  0.19053528930E+03  0.91098347766E+02 0.  0.
          5    1    3    3  502    0 -0.21935053760E+02 -0.17670038685E+02  0.93407706331E+02  0.97651671018E+02  0.41800000000E+01 0. -1.
         -5    1    3    3    0  502 -0.49917891093E+02 -0.98182671954E+02  0.13710799413E+01  0.11023150722E+03  0.41800000000E+01 0. -1.
        -11    1    4    4    0    0  0.46026741557E+02  0.95036438799E+01  0.57274611844E+02  0.74088874652E+02  0.00000000000E+00 0.  1.
         11    1    4    4    0    0  0.25826203296E+02  0.10634906676E+03  0.39782542741E+02  0.11644641465E+03  0.00000000000E+00 0. -1.
</event>
<event>
 8    1  0.7232317E-009  0.1394145E+03  0.7561462E-02  0.1214119E+00
          2   -1    0    0  501    0  0.00000000000E+00  0.00000000000E+00  0.13567442225E+03  0.13567442225E+03  0.00000000000E+00 0. -1.
         -2   -1    0    0    0  501 -0.00000000000E+00 -0.00000000000E+00 -0.20876164773E+03  0.20876164773E+03  0.00000000000E+00 0.  1.
         25    2    1    2    0    0  0.43727031805E+02  0.11589202213E+03 -0.35026515955E+01  0.17607878727E+03  0.12509379142E+03 0.  0.
         23    2    1    2    0    0 -0.43727031805E+02 -0.11589202213E+03 -0.69584573880E+02  0.16835728271E+03  0.90328000180E+02 0.  0.
          5    1    3    3  502    0  0.44113997036E+02  0.87810310198E+01 -0.42489346583E+02  0.62015870657E+02  0.41800000000E+01 0.  1.
         -5    1    3    3    0  502 -0.38696523140E+00  0.10711099111E+03  0.38986694988E+02  0.11406291661E+03  0.41800000000E+01 0.  1.
        -11    1    4    4    0    0 -0.13665169804E+02 -0.71855842185E+02 -0.85687049221E+02  0.11265997216E+03  0.00000000000E+00 0.  1.
         11    1    4    4    0    0 -0.30061862001E+02 -0.44036179947E+02  0.16102475341E+02  0.55697310558E+02  0.00000000000E+00 0. -1.
</event>
<event>
 8    1  0.7232317E-009  0.9648603E+02  0.7561462E-02  0.1287864E+00
         -4   -1    0    0    0  501 -0.00000000000E+00  0.00000000000E+00  0.69307609531E+02  0.69307609531E+02  0.00000000000E+00 0.  1.
          4   -1    0    0  501    0  0.00000000000E+00 -0.00000000000E+00 -0.17529710453E+03  0.17529710453E+03  0.00000000000E+00 0. -1.
         25    2    1    2    0    0  0.20655790012E+02 -0.19731312802E+02 -0.49845328066E+02  0.13765230237E+03  0.12509042030E+03 0.  0.
         23    2    1    2    0    0 -0.20655790012E+02  0.19731312802E+02 -0.56144166937E+02  0.10695241170E+03  0.86433005972E+02 0.  0.
          5    1    3    3  502    0 -0.32703601985E+02 -0.36015357120E+02  0.15876299665E+02  0.51343556776E+02  0.41800000000E+01 0. -1.
         -5    1    3    3    0  502  0.53359391997E+02  0.16284044318E+02 -0.65721627731E+02  0.86308745590E+02  0.41800000000E+01 0. -1.
        -11    1    4    4    0    0 -0.13656646912E+02 -0.32629957067E+02 -0.35845191280E+02  0.50359664822E+02  0.00000000000E+00 0.  1.
         11    1    4    4    0    0 -0.69991431003E+01  0.52361269869E+02 -0.20298975657E+02  0.56592746878E+02  0.00000000000E+00 0. -1.
</event>
<event>
 8    1  0.7232317E-009  0.1028757E+03  0.7561462E-02  0.1274362E+00
         -1   -1    0    0    0  501 -0.00000000000E+00  0.00000000000E+00  0.11501835107E+03  0.11501835107E+03  0.00000000000E+00 0.  1.
          1   -1    0    0  501    0  0.00000000000E+00 -0.00000000000E+00 -0.12277550323E+03  0.12277550323E+03  0.00000000000E+00 0. -1.
         25    2    1    2    0    0 -0.34533465765E+02  0.34475476434E+02 -0.77342659853E+01  0.13449360533E+03  0.12509033645E+03 0.  0.
         23    2    1    2    0    0  0.34533465765E+02 -0.34475476434E+02 -0.22886180513E-01  0.10330024896E+03  0.91048460606E+02 0.  0.
          5    1    3    3  502    0  0.30308089204E+02  0.55783849603E+02 -0.16029943694E+02  0.65611353001E+02  0.41800000000E+01 0.  1.
         -5    1    3    3    0  502 -0.64841554970E+02 -0.21308373169E+02  0.82956777083E+01  0.68882252334E+02  0.41800000000E+01 0.  1.
        -11    1    4    4    0    0  0.27907029581E+02  0.93439922378E+01 -0.35799836708E+02  0.46343724487E+02  0.00000000000E+00 0. -1.
         11    1    4    4    0    0  0.66264361842E+01 -0.43819468672E+02  0.35776950528E+02  0.56956524475E+02  0.00000000000E+00 0.  1.
</event>
<event>
 8    1  0.7232317E-009  0.1046385E+03  0.7561462E-02  0.1270834E+00
          2   -1    0    0  501    0  0.00000000000E+00  0.00000000000E+00  0.33900779012E+03  0.33900779012E+03  0.00000000000E+00 0.  1.
         -2   -1    0    0    0  501 -0.00000000000E+00 -0.00000000000E+00 -0.76318299173E+02  0.76318299173E+02  0.00000000000E+00 0. -1.
         25    2    1    2    0    0  0.65074097437E+02 -0.73749343812E+02  0.54721360625E+02  0.16827239530E+03  0.12509023879E+03 0.  0.
         23    2    1    2    0    0 -0.65074097437E+02  0.73749343812E+02  0.20796813032E+03  0.24705369399E+03  0.90062093121E+02 0.  0.
          5    1    3    3  502    0  0.73084251006E+02 -0.65488900084E+02  0.88582289062E+02  0.13226639072E+03  0.41800000000E+01 0. -1.
         -5    1    3    3    0  502 -0.80101535691E+01 -0.82604437280E+01 -0.33860928437E+02  0.36006004574E+02  0.41800000000E+01 0. -1.
        -11    1    4    4    0    0 -0.14981926567E+02  0.23433170861E+02  0.54801605208E+00  0.27818553914E+02  0.00000000000E+00 0. -1.
         11    1    4    4    0    0 -0.50092170870E+02  0.50316172951E+02  0.20742011427E+03  0.21923514008E+03  0.00000000000E+00 0.  1.
</event>
<event>
 8    1  0.7232317E-009  0.9802492E+02  0.7561462E-02  0.1284505E+00
          2   -1    0    0  501    0  0.00000000000E+00  0.00000000000E+00  0.48789694639E+03  0.48789694639E+03  0.00000000000E+00 0. -1.
         -2   -1    0    0    0  501 -0.00000000000E+00 -0.00000000000E+00 -0.31786303510E+02  0.31786303510E+02  0.00000000000E+00 0.  1.
         25    2    1    2    0    0 -0.44305546242E+02 -0.39637893516E+02  0.27519999904E+03  0.30808432693E+03  0.12508704568E+03 0.  0.
         23    2    1    2    0    0  0.44305546242E+02  0.39637893516E+02  0.18091064383E+03  0.21159892296E+03  0.92256702292E+02 0.  0.
          5    1    3    3  502    0 -0.63096735902E+02 -0.74592362170E+01  0.25989936038E+03  0.26758547833E+03  0.41800000000E+01 0. -1.
         -5    1    3    3    0  502  0.18791189659E+02 -0.32178657299E+02  0.15300638660E+02  0.40498848598E+02  0.41800000000E+01 0. -1.
        -11    1    4    4    0    0  0.40588636186E+02 -0.12607521592E+02  0.30454132987E+02  0.52286147345E+02  0.00000000000E+00 0.  1.
         11    1    4    4    0    0  0.37169100566E+01  0.52245415109E+02  0.15045651084E+03  0.15931277562E+03  0.00000000000E+00 0. -1.
</event>
<event>
 8    1  0.7232317E-009  0.9236282E+02  0.7561462E-02  0.1297229E+00
          1   -1    0    0  501    0  0.00000000000E+00  0.00000000000E+00  0.56258507994E+03  0.56258507994E+03  0.00000000000E+00 0. -1.
         -1   -1    0    0    0  501 -0.00000000000E+00 -0.00000000000E+00 -0.25415339012E+02  0.25415339012E+02  0.00000000000E+00 0.  1.
         25    2    1    2    0    0  0.26713743971E+02  0.40883495650E+02  0.32437072888E+03  0.35106853349E+03  0.12509061164E+03 0.  0.
         23    2    1    2    0    0 -0.26713743971E+02 -0.40883495650E+02  0.21279901205E+03  0.23693188546E+03  0.92022901963E+02 0.  0.
          5    1    3    3  502    0 -0.23689966928E+01 -0.16551480281E+02  0.25776701018E+03  0.25834253925E+03  0.41800000000E+01 0.  1.
         -5    1    3    3    0  502  0.29082740664E+02  0.57434975931E+02  0.66603718697E+02  0.92725994247E+02  0.41800000000E+01 0.  1.
        -11    1    4    4    0    0 -0.58302154792E+02 -0.10679632768E+02  0.13985944818E+03  0.15190082638E+03  0.00000000000E+00 0. -1.
         11    1    4    4    0    0  0.31588410821E+02 -0.30203862882E+02  0.72939563867E+02  0.85031059080E+02  0.00000000000E+00 0.  1.
</event>
<event>
 8    1  0.7232317E-009  0.9095558E+02  0.7561462E-02  0.1300554E+00
         -2   -1    0    0    0  501 -0.00000000000E+00  0.00000000000E+00  0.25506001751E+03  0.25506001751E+03  0.00000000000E+00 0.  1.
          2   -1    0    0  501    0  0.00000000000E+00 -0.00000000000E+00 -0.53114520754E+02  0.53114520754E+02  0.00000000000E+00 0. -1.
         25    2    1    2    0    0  0.24285461918E+02  0.21078543233E+02  0.93840277430E+02  0.15965104452E+03  0.12509344388E+03 0.  0.
         23    2    1    2    0    0 -0.24285461918E+02 -0.21078543233E+02  0.10810521933E+03  0.14852349375E+03  0.96635402948E+02 0.  0.
          5    1    3    3  502    0  0.49551044570E+02 -0.28871152655E+02  0.94117623989E+01  0.58265797386E+02  0.41800000000E+01 0. -1.
         -5    1    3    3    0  502 -0.25265582652E+02  0.49949695888E+02  0.84428515031E+02  0.10138524713E+03  0.41800000000E+01 0. -1.
        -11    1    4    4    0    0 -0.27866243923E+02  0.15255304219E+02  0.10740719617E+03  0.11200695357E+03  0.00000000000E+00 0.  1.
         11    1    4    4    0    0  0.35807820053E+01 -0.36333847452E+02  0.69802315565E+00  0.36516540180E+02  0.00000000000E+00 0. -1.
</event>
<event>
 8    1  0.7232317E-009  0.1310859E+03  0.7561462E-02  0.1225853E+00
          1   -1    0    0  501    0  0.00000000000E+00  0.00000000000E+00  0.11358234662E+03  0.11358234662E+03  0.00000000000E+00 0. -1.
         -1   -1    0    0    0  501 -0.00000000000E+00 -0.00000000000E+00 -0.16930710448E+03  0.16930710448E+03  0.00000000000E+00 0.  1.
         25    2    1    2    0    0  0.15137348158E+02 -0.83691770603E+02 -0.25669064762E+02  0.15342835796E+03  0.12509159989E+03 0.  0.
         23    2    1    2    0    0 -0.15137348158E+02  0.83691770603E+02 -0.30055693095E+02  0.12946109314E+03  0.92862146079E+02 0.  0.
          5    1    3    3  502    0  0.22632396060E+01  0.32801662388E+02  0.99101324055E+00  0.33159098543E+02  0.41800000000E+01 0. -1.
         -5    1    3    3    0  502  0.12874108552E+02 -0.11649343299E+03 -0.26660078003E+02  0.12026925941E+03  0.41800000000E+01 0. -1.
        -11    1    4    4    0    0  0.26951408775E+02  0.14089808444E+02  0.17652290046E+02  0.35163965658E+02  0.00000000000E+00 0. -1.
         11    1    4    4    0    0 -0.42088756933E+02  0.69601962160E+02 -0.47707983141E+02  0.94297127485E+02  0.00000000000E+00 0.  1.
</event>
<event>
 8    1  0.7232317E-009  0.2798583E+03  0.7561462E-02  0.1095766E+00
          2   -1    0    0  501    0  0.00000000000E+00  0.00000000000E+00  0.74978434642E+03  0.74978434642E+03  0.00000000000E+00 0. -1.
         -2   -1    0    0    0  501 -0.00000000000E+00 -0.00000000000E+00 -0.11254022487E+03  0.11254022487E+03  0.00000000000E+00 0.  1.
         25    2    1    2    0    0  0.16378998453E+03  0.21214715878E+03  0.28648157382E+03  0.41176813786E+03  0.12509089179E+03 0.  0.
         23    2    1    2    0    0 -0.16378998453E+03 -0.21214715878E+03  0.35076254772E+03  0.45055643343E+03  0.90184027466E+02 0.  0.
          5    1    3    3  502    0  0.16386136268E+03  0.22360461583E+03  0.25006143200E+03  0.37336009773E+03  0.41800000000E+01 0.  1.
         -5    1    3    3    0  502 -0.71378156803E-01 -0.11457457046E+02  0.36420141820E+02  0.38408040135E+02  0.41800000000E+01 0.  1.
        -11    1    4    4    0    0 -0.11978797302E+03 -0.12796806956E+03  0.28652222535E+03  0.33588684244E+03  0.00000000000E+00 0. -1.
         11    1    4    4    0    0 -0.44002011502E+02 -0.84179089221E+02  0.64240322377E+02  0.11466959099E+03  0.00000000000E+00 0.  1.
</event>
<event>
 8    1  0.7232317E-009  0.1477659E+03  0.7561462E-02  0.1203245E+00
          2   -1    0    0  501    0  0.00000000000E+00  0.00000000000E+00  0.73560326221E+02  0.73560326221E+02  0.00000000000E+00 0. -1.
         -2   -1    0    0    0  501 -0.00000000000E+00 -0.00000000000E+00 -0.35872221320E+03  0.35872221320E+03  0.00000000000E+00 0.  1.
         25    2    1    2    0    0  0.98672941018E+02  0.56341019705E+02 -0.20824225675E+03  0.26818453658E+03  0.12508976126E+03 0.  0.
         23    2    1    2    0    0 -0.98672941018E+02 -0.56341019705E+02 -0.76919630233E+02  0.16409800285E+03  0.90004806725E+02 0.  0.
          5    1    3    3  502    0  0.29379324463E+02 -0.39585334981E+02 -0.75921974375E+02  0.90618773135E+02  0.41800000000E+01 0.  1.
         -5    1    3    3    0  502  0.69293616555E+02  0.95926354686E+02 -0.13232028238E+03  0.17756576344E+03  0.41800000000E+01 0.  1.
        -11    1    4    4    0    0 -0.10603799266E+03 -0.47638061499E+02 -0.36111386416E+02  0.12172704309E+03  0.00000000000E+00 0. -1.
         11    1    4    4    0    0  0.73650516450E+01 -0.87029582052E+01 -0.40808243816E+02  0.42370959756E+02  0.00000000000E+00 0.  1.
</event>
<event>
 8    1  0.7232317E-009  0.1061873E+03  0.7561462E-02  0.1267798E+00
         -4   -1    0    0    0  501 -0.00000000000E+00  0.00000000000E+00  0.41648936473E+03  0.41648936473E+03  0.00000000000E+00 0.  1.
          4   -1    0    0  501    0  0.00000000000E+00 -0.00000000000E+00 -0.32813135523E+02  0.32813135523E+02  0.00000000000E+00 0. -1.
         25    2    1    2    0    0 -0.22366124906E+02  0.36176216350E+02  0.20873211933E+03  0.24703309699E+03  0.12508913301E+03 0.  0.
         23    2    1    2    0    0  0.22366124906E+02 -0.36176216350E+02  0.17494410989E+03  0.20226940327E+03  0.92187351311E+02 0.  0.
          5    1    3    3  502    0 -0.27721232438E+02 -0.43122224445E+02  0.66777092472E+02  0.84289058887E+02  0.41800000000E+01 0.  1.
         -5    1    3    3    0  502  0.53551075316E+01  0.79298440795E+02  0.14195502685E+03  0.16274403810E+03  0.41800000000E+01 0.  1.
        -11    1    4    4    0    0  0.43981752662E+02 -0.39940439599E+02  0.57105423230E+02  0.82405477031E+02  0.00000000000E+00 0. -1.
         11    1    4    4    0    0 -0.21615627755E+02  0.37642232483E+01  0.11783868666E+03  0.11986392624E+03  0.00000000000E+00 0.  1.
</event>
<event>
 8    1  0.7232317E-009  0.9350497E+02  0.7561462E-02  0.1294579E+00
          2   -1    0    0  501    0  0.00000000000E+00  0.00000000000E+00  0.86576147009E+02  0.86576147009E+02  0.00000000000E+00 0. -1.
         -2   -1    0    0    0  501 -0.00000000000E+00 -0.00000000000E+00 -0.14373146028E+03  0.14373146028E+03  0.00000000000E+00 0.  1.
         25    2    1    2    0    0 -0.87586379749E+01  0.17985547406E+01 -0.59777250070E+02  0.13892829930E+03  0.12509118347E+03 0.  0.
         23    2    1    2    0    0  0.87586379749E+01 -0.17985547406E+01  0.26219367963E+01  0.91379307996E+02  0.90902996864E+02 0.  0.
          5    1    3    3  502    0  0.38468425152E+02 -0.25635610002E+02  0.12659828566E+02  0.48111826957E+02  0.41800000000E+01 0.  1.
         -5    1    3    3    0  502 -0.47227063127E+02  0.27434164742E+02 -0.72437078636E+02  0.90816472338E+02  0.41800000000E+01 0.  1.
        -11    1    4    4    0    0  0.35173668776E+02  0.28752165906E+02 -0.14246385830E+02  0.47611275227E+02  0.00000000000E+00 0.  1.
         11    1    4    4    0    0 -0.26415030801E+02 -0.30550720647E+02  0.16868322626E+02  0.43768032769E+02  0.00000000000E+00 0. -1.
</event>
<event>
 8    1  0.7232317E-009  0.7456169E+02  0.7561462E-02  0.1345234E+00
         -1   -1    0    0    0  501 -0.00000000000E+00  0.00000000000E+00  0.49618088108E+02  0.49618088108E+02  0.00000000000E+00 0.  1.
          1   -1    0    0  501    0  0.00000000000E+00 -0.00000000000E+00 -0.24454666624E+03  0.24454666624E+03  0.00000000000E+00 0. -1.
         25    2    1    2    0    0 -0.37842362065E+01 -0.93067897119E+01 -0.86898226093E+02  0.15264302319E+03  0.12509058339E+03 0.  0.
         23    2    1    2    0    0  0.37842362065E+01  0.93067897119E+01 -0.10803035204E+03  0.14152173116E+03  0.90867522526E+02 0.  0.
          5    1    3    3  502    0 -0.81948109678E+01 -0.35699396139E+02  0.20294009852E+02  0.42082312762E+02  0.41800000000E+01 0.  1.
         -5    1    3    3    0  502  0.44105747612E+01  0.26392606427E+02 -0.10719223595E+03  0.11056071043E+03  0.41800000000E+01 0.  1.
        -11    1    4    4    0    0  0.31886064437E+02 -0.25222022576E+02 -0.26203952990E+02  0.48368571205E+02  0.00000000000E+00 0.  1.
         11    1    4    4    0    0 -0.28101828231E+02  0.34528812288E+02 -0.81826399050E+02  0.93153159954E+02  0.00000000000E+00 0. -1.
</event>
<event>
 8    1  0.7232317E-009  0.8624811E+02  0.7561462E-02  0.1312200E+00
         -1   -1    0    0    0  501 -0.00000000000E+00  0.00000000000E+00  0.70461130927E+02  0.70461130927E+02  0.00000000000E+00 0.  1.
          1   -1    0    0  501    0  0.00000000000E+00 -0.00000000000E+00 -0.18128681621E+03  0.18128681621E+03  0.00000000000E+00 0. -1.
         25    2    1    2    0    0 -0.90615497485E+01  0.58729904900E+01 -0.99304292770E+02  0.16007524146E+03  0.12508451809E+03 0.  0.
         23    2    1    2    0    0  0.90615497485E+01 -0.58729904900E+01 -0.11521392508E+02  0.91672705670E+02  0.90302484896E+02 0.  0.
          5    1    3    3  502    0  0.35224644341E+02  0.40057333926E+02 -0.97300926564E+01  0.54383018243E+02  0.41800000000E+01 0. -1.
         -5    1    3    3    0  502 -0.44286194089E+02 -0.34184343436E+02 -0.89574200114E+02  0.10569222322E+03  0.41800000000E+01 0. -1.
        -11    1    4    4    0    0  0.92844461609E+01  0.27752126924E+02  0.27502964736E+02  0.40159613526E+02  0.00000000000E+00 0.  1.
         11    1    4    4    0    0 -0.22289641234E+00 -0.33625117414E+02 -0.39024357244E+02  0.51513092144E+02  0.00000000000E+00 0. -1.
</event>
<event>
 8    1  0.7232317E-009  0.1360366E+03  0.7561462E-02  0.1218764E+00
          1   -1    0    0  501    0  0.00000000000E+00  0.00000000000E+00  0.76321885315E+03  0.76321885315E+03  0.00000000000E+00 0. -1.
         -1   -1    0    0    0  501 -0.00000000000E+00 -0.00000000000E+00 -0.36504804654E+02  0.36504804654E+02  0.00000000000E+00 0.  1.
         25    2    1    2    0    0  0.55728871970E+01 -0.11615234409E+03  0.51098208034E+03  0.53877155732E+03  0.12509868279E+03 0.  0.
         23    2    1    2    0    0 -0.55728871970E+01  0.11615234409E+03  0.21573196816E+03  0.26095210049E+03  0.89628636921E+02 0.  0.
          5    1    3    3  502    0 -0.32095999928E+02 -0.11222235498E+03  0.46297891770E+03  0.47748399010E+03  0.41800000000E+01 0.  1.
         -5    1    3    3    0  502  0.37668887126E+02 -0.39299891022E+01  0.48003162642E+02  0.61287567216E+02  0.41800000000E+01 0.  1.
        -11    1    4    4    0    0  0.53391211298E+00  0.98367894223E+02  0.22059130945E+03  0.24153064708E+03  0.00000000000E+00 0. -1.
         11    1    4    4    0    0 -0.61067993100E+01  0.17784449863E+02 -0.48593412888E+01  0.19421453408E+02  0.00000000000E+00 0.  1.
</event>
<event>
 8    1  0.7232317E-009  0.2637877E+03  0.7561462E-02  0.1104889E+00
          4   -1    0    0  501    0  0.00000000000E+00  0.00000000000E+00  0.84487333756E+02  0.84487333756E+02  0.00000000000E+00 0. -1.
         -4   -1    0    0    0  501 -0.00000000000E+00 -0.00000000000E+00 -0.96935488826E+03  0.96935488826E+03  0.00000000000E+00 0.  1.
         25    2    1    2    0    0  0.13140057905E+03 -0.22586183049E+03 -0.37810497333E+03  0.47633474075E+03  0.12510689728E+03 0.  0.
         23    2    1    2    0    0 -0.13140057905E+03  0.22586183049E+03 -0.50676258118E+03  0.57750748126E+03  0.91798140416E+02 0.  0.
          5    1    3    3  502    0  0.17689379761E+02 -0.69075503040E+02 -0.20300151968E+03  0.21520090304E+03  0.41800000000E+01 0.  1.
         -5    1    3    3    0  502  0.11371119929E+03 -0.15678632745E+03 -0.17510345365E+03  0.26113383772E+03  0.41800000000E+01 0.  1.
        -11    1    4    4    0    0 -0.10708883590E+03  0.16307726790E+03 -0.28222788750E+03  0.34309589704E+03  0.00000000000E+00 0. -1.
         11    1    4    4    0    0 -0.24311743151E+02  0.62784562596E+02 -0.22453469368E+03  0.23441158423E+03  0.00000000000E+00 0.  1.
</event>
<event>
 8    1  0.7232317E-009  0.2043498E+03  0.7561462E-02  0.1146120E+00
          1   -1    0    0  501    0  0.00000000000E+00  0.00000000000E+00  0.82332602158E+03  0.82332602158E+03  0.00000000000E+00 0. -1.
         -1   -1    0    0    0  501 -0.00000000000E+00 -0.00000000000E+00 -0.11295763128E+03  0.11295763128E+03  0.00000000000E+00 0.  1.
         25    2    1    2    0    0  0.78020955159E+02 -0.17511245450E+03  0.68446988856E+03  0.72173251583E+03  0.12508858818E+03 0.  0.
         23    2    1    2    0    0 -0.78020955159E+02  0.17511245450E+03  0.25898501738E+02  0.21455113703E+03  0.92789098730E+02 0.  0.
          5    1    3    3  502    0  0.56599676018E+02 -0.77514346842E+02  0.15100887630E+03  0.17897807243E+03  0.41800000000E+01 0.  1.
         -5    1    3    3    0  502  0.21421279142E+02 -0.97598107658E+02  0.53346101226E+03  0.54275444339E+03  0.41800000000E+01 0.  1.
        -11    1    4    4    0    0 -0.74993375328E+02  0.56312323867E+02  0.17632475047E+02  0.95425302403E+02  0.00000000000E+00 0. -1.
         11    1    4    4    0    0 -0.30275798310E+01  0.11880013063E+03  0.82660266909E+01  0.11912583463E+03  0.00000000000E+00 0.  1.
</event>
<event>
 8    1  0.7232317E-009  0.3163517E+03  0.7561462E-02  0.1077341E+00
         -2   -1    0    0    0  501 -0.00000000000E+00  0.00000000000E+00  0.53290483317E+02  0.53290483317E+02  0.00000000000E+00 0.  1.
          2   -1    0    0  501    0  0.00000000000E+00 -0.00000000000E+00 -0.19422831397E+04  0.19422831397E+04  0.00000000000E+00 0. -1.
         25    2    1    2    0    0 -0.23943313850E+03  0.17981043537E+03 -0.10868603915E+04  0.11342727555E+04  0.12509657371E+03 0.  0.
         23    2    1    2    0    0  0.23943313850E+03 -0.17981043537E+03 -0.80213226482E+03  0.86130086747E+03  0.93610862365E+02 0.  0.
          5    1    3    3  502    0 -0.23851589884E+03  0.19517597719E+03 -0.10210564661E+04  0.10665633012E+04  0.41800000000E+01 0.  1.
         -5    1    3    3    0  502 -0.91723965971E+00 -0.15365541820E+02 -0.65803925432E+02  0.67709454334E+02  0.41800000000E+01 0.  1.
        -11    1    4    4    0    0  0.24227837318E+03 -0.16423533645E+03 -0.78585169220E+03  0.83859104335E+03  0.00000000000E+00 0. -1.
         11    1    4    4    0    0 -0.28452346765E+01 -0.15575098918E+02 -0.16280572619E+02  0.22709824118E+02  0.00000000000E+00 0.  1.
</event>
<event>
 8    1  0.7232317E-009  0.1204472E+03  0.7561462E-02  0.1242361E+00
         -2   -1    0    0    0  501 -0.00000000000E+00  0.00000000000E+00  0.82398800694E+02  0.82398800694E+02  0.00000000000E+00 0.  1.
          2   -1    0    0  501    0  0.00000000000E+00 -0.00000000000E+00 -0.27622830697E+03  0.27622830697E+03  0.00000000000E+00 0. -1.
         25    2    1    2    0    0 -0.96251829616E+01 -0.68840673115E+02 -0.12519838364E+02  0.14365338963E+03  0.12509143687E+03 0.  0.
         23    2    1    2    0    0  0.96251829616E+01  0.68840673115E+02 -0.18130966791E+03  0.21497371803E+03  0.92243272617E+02 0.  0.
          5    1    3    3  502    0 -0.52315409290E+02 -0.11176937677E+02  0.28649705893E+02  0.60828480441E+02  0.41800000000E+01 0. -1.
         -5    1    3    3    0  502  0.42690226328E+02 -0.57663735438E+02 -0.41169544258E+02  0.82824909194E+02  0.41800000000E+01 0. -1.
        -11    1    4    4    0    0  0.40106034736E+02  0.74269608529E+02 -0.12796676299E+03  0.15329697063E+03  0.00000000000E+00 0.  1.
         11    1    4    4    0    0 -0.30480851774E+02 -0.54289354144E+01 -0.53342904919E+02  0.61676747400E+02  0.00000000000E+00 0. -1.
</event>
<event>
 8    1  0.7232317E-009  0.9545458E+02  0.7561462E-02  0.1290156E+00
          2   -1    0    0  501    0  0.00000000000E+00  0.00000000000E+00  0.23688954660E+03  0.23688954660E+03  0.00000000000E+00 0. -1.
         -2   -1    0    0    0  501 -0.00000000000E+00 -0.00000000000E+00 -0.67848142662E+02  0.67848142662E+02  0.00000000000E+00 0.  1.
         25    2    1    2    0    0 -0.33758994733E+01 -0.66003954911E+01  0.16021897102E+02  0.12633097138E+03  0.12509137151E+03 0.  0.
         23    2    1    2    0    0  0.33758994733E+01  0.66003954911E+01  0.15301950683E+03  0.17840671788E+03  0.91427706931E+02 0.  0.
          5    1    3    3  502    0  0.35817429908E+02 -0.36094538140E+02 -0.29791700782E+02  0.59082330728E+02  0.41800000000E+01 0.  1.
         -5    1    3    3    0  502 -0.39193329381E+02  0.29494142649E+02  0.45813597884E+02  0.67248640653E+02  0.41800000000E+01 0.  1.
        -11    1    4    4    0    0  0.31815022700E+01  0.48577354395E+02  0.68494052583E+02  0.84031640208E+02  0.00000000000E+00 0.  1.
         11    1    4    4    0    0  0.19439720328E+00 -0.41976958904E+02  0.84525454250E+02  0.94375077670E+02  0.00000000000E+00 0. -1.
</event>
<event>
 8    1  0.7232317E-009  0.1653494E+03  0.7561462E-02  0.1182786E+00
          1   -1    0    0  501    0  0.00000000000E+00  0.00000000000E+00  0.10357318018E+03  0.10357318018E+03  0.00000000000E+00 0. -1.
         -1   -1    0    0    0  501 -0.00000000000E+00 -0.00000000000E+00 -0.37361443954E+03  0.37361443954E+03  0.00000000000E+00 0.  1.
         25    2    1    2    0    0 -0.11484310100E+03  0.39469642161E+02 -0.26736167027E+03  0.31918102728E+03  0.12508986748E+03 0.  0.
         23    2    1    2    0    0  0.11484310100E+03 -0.39469642161E+02 -0.26795890766E+01  0.15800659244E+03  0.10105499768E+03 0.  0.
          5    1    3    3  502    0 -0.38794390285E+02 -0.44612226616E+02 -0.71876677652E+02  0.93161068433E+02  0.41800000000E+01 0.  1.
         -5    1    3    3    0  502 -0.76048710716E+02  0.84081868777E+02 -0.19548499262E+03  0.22601995885E+03  0.41800000000E+01 0.  1.
        -11    1    4    4    0    0  0.11022094708E+02 -0.52229273487E+02 -0.12910302615E+01  0.53395227688E+02  0.00000000000E+00 0. -1.
         11    1    4    4    0    0  0.10382100629E+03  0.12759631326E+02 -0.13885588152E+01  0.10461136475E+03  0.00000000000E+00 0.  1.
</event>
<event>
 8    1  0.7232317E-009  0.1873363E+03  0.7561462E-02  0.1160886E+00
          1   -1    0    0  501    0  0.00000000000E+00  0.00000000000E+00  0.79982292449E+03  0.79982292449E+03  0.00000000000E+00 0. -1.
         -1   -1    0    0    0  501 -0.00000000000E+00 -0.00000000000E+00 -0.81792865117E+02  0.81792865117E+02  0.00000000000E+00 0.  1.
         25    2    1    2    0    0 -0.16525262833E+03  0.72300858640E+02  0.11941465360E+03  0.24988496445E+03  0.12508713216E+03 0.  0.
         23    2    1    2    0    0  0.16525262833E+03 -0.72300858640E+02  0.59861540577E+03  0.63173082516E+03  0.90595728930E+02 0.  0.
          5    1    3    3  502    0 -0.34339831527E+02  0.41432177864E+02 -0.18633100480E+02  0.57100912649E+02  0.41800000000E+01 0. -1.
         -5    1    3    3    0  502 -0.13091279681E+03  0.30868680776E+02  0.13804775408E+03  0.19278405180E+03  0.41800000000E+01 0. -1.
        -11    1    4    4    0    0  0.63756379692E+02 -0.52790504030E+02  0.14959444726E+03  0.17096845299E+03  0.00000000000E+00 0.  1.
         11    1    4    4    0    0  0.10149624864E+03 -0.19510354610E+02  0.44902095850E+03  0.46076237216E+03  0.00000000000E+00 0. -1.
</event>
<event>
 8    1  0.7232317E-009  0.6826079E+02  0.7561462E-02  0.1366109E+00
         -2   -1    0    0    0  501 -0.00000000000E+00  0.00000000000E+00  0.19565793337E+03  0.19565793337E+03  0.00000000000E+00 0. -1.
          2   -1    0    0  501    0  0.00000000000E+00 -0.00000000000E+00 -0.68491409256E+02  0.68491409256E+02  0.00000000000E+00 0.  1.
         25    2    1    2    0    0  0.82251952062E+01  0.19765542587E+02  0.10696765318E+03  0.16597752198E+03  0.12509247966E+03 0.  0.
         23    2    1    2    0    0 -0.82251952062E+01 -0.19765542587E+02  0.20198870935E+02  0.98171820642E+02  0.93655653706E+02 0.  0.
          5    1    3    3  502    0 -0.10278887296E+02  0.18488228660E+02 -0.24789736117E+02  0.32855342637E+02  0.41800000000E+01 0. -1.
         -5    1    3    3    0  502  0.18504082502E+02  0.12773139270E+01  0.13175738929E+03  0.13312217935E+03  0.41800000000E+01 0. -1.
        -11    1    4    4    0    0  0.38156637195E+02  0.11685765914E+02  0.10879357007E+02  0.41362380201E+02  0.00000000000E+00 0.  1.
         11    1    4    4    0    0 -0.46381832401E+02 -0.31451308501E+02  0.93195139271E+01  0.56809440440E+02  0.00000000000E+00 0. -1.
</event>
<event>
 8    1  0.7232317E-009  0.9659162E+02  0.7561462E-02  0.1287631E+00
         -2   -1    0    0    0  501 -0.00000000000E+00  0.00000000000E+00  0.16364377512E+03  0.16364377512E+03  0.00000000000E+00 0. -1.
          2   -1    0    0  501    0  0.00000000000E+00 -0.00000000000E+00 -0.82633093772E+02  0.82633093772E+02  0.00000000000E+00 0.  1.
         25    2    1    2    0    0  0.41079480565E+02  0.20553456092E+02  0.43042461808E+02  0.14003538039E+03  0.12508911208E+03 0.  0.
         23    2    1    2    0    0 -0.41079480565E+02 -0.20553456092E+02  0.37968219544E+02  0.10624148851E+03  0.87952827725E+02 0.  0.
          5    1    3    3  502    0  0.85513950357E+02  0.12085505971E+02  0.37590113519E+02  0.94282470240E+02  0.41800000000E+01 0. -1.
         -5    1    3    3    0  502 -0.44434469792E+02  0.84679501214E+01  0.54523482893E+01  0.45752910146E+02  0.41800000000E+01 0. -1.
        -11    1    4    4    0    0 -0.21761333320E+02 -0.32103490228E+02 -0.20301382262E+02  0.43775973255E+02  0.00000000000E+00 0.  1.
         11    1    4    4    0    0 -0.19318147245E+02  0.11550034136E+02  0.58269601806E+02  0.62465515255E+02  0.00000000000E+00 0. -1.
</event>
<event>
 8    1  0.7232317E-009  0.1024970E+03  0.7561462E-02  0.1275131E+00
          2   -1    0    0  501    0  0.00000000000E+00  0.00000000000E+00  0.33627093276E+03  0.33627093276E+03  0.00000000000E+00 0. -1.
         -2   -1    0    0    0  501 -0.00000000000E+00 -0.00000000000E+00 -0.44360146490E+02  0.44360146490E+02  0.00000000000E+00 0.  1.
         25    2    1    2    0    0  0.35737701367E+02 -0.37474360257E+02  0.13031632115E+03  0.18791133273E+03  0.12508722731E+03 0.  0.
         23    2    1    2    0    0 -0.35737701367E+02  0.37474360257E+02  0.16159446512E+03  0.19271974652E+03  0.91359830148E+02 0.  0.
          5    1    3    3  502    0 -0.10571865638E+02  0.22899170963E+02  0.10430200503E+03  0.10738955735E+03  0.41800000000E+01 0. -1.
         -5    1    3    3    0  502  0.46309567005E+02 -0.60373531220E+02  0.26014316121E+02  0.80521775386E+02  0.41800000000E+01 0. -1.
        -11    1    4    4    0    0 -0.11228756645E+02 -0.29682358320E+02  0.67131261171E+02  0.74254519039E+02  0.00000000000E+00 0. -1.
         11    1    4    4    0    0 -0.24508944722E+02  0.67156718576E+02  0.94463203946E+02  0.11846522748E+03  0.00000000000E+00 0.  1.
</event>
<event>
 8    1  0.7232317E-009  0.9482094E+02  0.7561462E-02  0.1291580E+00
          1   -1    0    0  501    0  0.00000000000E+00  0.00000000000E+00  0.16351155791E+03  0.16351155791E+03  0.00000000000E+00 0. -1.
         -1   -1    0    0    0  501 -0.00000000000E+00 -0.00000000000E+00 -0.89050871964E+02  0.89050871964E+02  0.00000000000E+00 0.  1.
         25    2    1    2    0    0 -0.79598965759E+00  0.49111572451E+02  0.77072523051E+02  0.15495357178E+03  0.12513135278E+03 0.  0.
         23    2    1    2    0    0  0.79598965759E+00 -0.49111572451E+02 -0.26118371097E+01  0.97608858091E+02  0.84309473588E+02 0.  0.
          5    1    3    3  502    0  0.59573961338E+02  0.63797111343E+01  0.39539916708E+02  0.71907127581E+02  0.41800000000E+01 0. -1.
         -5    1    3    3    0  502 -0.60369950995E+02  0.42731861317E+02  0.37532606343E+02  0.83046444197E+02  0.41800000000E+01 0. -1.
        -11    1    4    4    0    0  0.12457200391E+02 -0.35249056795E+02 -0.40802295838E+02  0.55339905964E+02  0.00000000000E+00 0.  1.
         11    1    4    4    0    0 -0.11661210733E+02 -0.13862515657E+02  0.38190458728E+02  0.42268952127E+02  0.00000000000E+00 0. -1.
</event>
<event>
 8    1  0.7232317E-009  0.1356909E+03  0.7561462E-02  0.1219248E+00
         -2   -1    0    0    0  501 -0.00000000000E+00  0.00000000000E+00  0.32427483049E+03  0.32427483049E+03  0.00000000000E+00 0. -1.
          2   -1    0    0  501    0  0.00000000000E+00 -0.00000000000E+00 -0.58702469206E+02  0.58702469206E+02  0.00000000000E+00 0.  1.
         25    2    1    2    0    0 -0.43821109869E+02  0.72613240520E+02  0.16305774894E+03  0.22232352848E+03  0.12508776701E+03 0.  0.
         23    2    1    2    0    0  0.43821109869E+02 -0.72613240520E+02  0.10251461234E+03  0.16065377122E+03  0.90041191093E+02 0.  0.
          5    1    3    3  502    0 -0.78473297551E+02  0.82468009899E+02  0.13381060482E+03  0.17573212981E+03  0.41800000000E+01 0. -1.
         -5    1    3    3    0  502  0.34652187682E+02 -0.98547693796E+01  0.29247144120E+02  0.46591398668E+02  0.41800000000E+01 0. -1.
        -11    1    4    4    0    0  0.44143343806E+02  0.42390378967E+01  0.22569681124E+02  0.49759368472E+02  0.00000000000E+00 0.  1.
         11    1    4    4    0    0 -0.32223393731E+00 -0.76852278417E+02  0.79944931221E+02  0.11089440275E+03  0.00000000000E+00 0. -1.
</event>
<event>
 8    1  0.7232317E-009  0.1755757E+03  0.7561462E-02  0.1172155E+00
         -1   -1    0    0    0  501 -0.00000000000E+00  0.00000000000E+00  0.28448561952E+03  0.28448561952E+03  0.00000000000E+00 0.  1.
          1   -1    0    0  501    0  0.00000000000E+00 -0.00000000000E+00 -0.12768118259E+03  0.12768118259E+03  0.00000000000E+00 0. -1.
         25    2    1    2    0    0  0.14067541986E+03  0.62468080507E+02  0.52502801126E+02  0.20517158935E+03  0.12508797751E+03 0.  0.
         23    2    1    2    0    0 -0.14067541986E+03 -0.62468080507E+02  0.10430163580E+03  0.20699521276E+03  0.90974458176E+02 0.  0.
          5    1    3    3  502    0 -0.44995731235E+01 -0.21777802915E+02  0.27190093520E+02  0.35373612252E+02  0.41800000000E+01 0.  1.
         -5    1    3    3    0  502  0.14517499298E+03  0.84245883422E+02  0.25312707606E+02  0.16979797710E+03  0.41800000000E+01 0.  1.
        -11    1    4    4    0    0 -0.80856562817E+02 -0.10789679590E+02  0.98269760341E+02  0.12771509987E+03  0.00000000000E+00 0.  1.
         11    1    4    4    0    0 -0.59818857044E+02 -0.51678400917E+02  0.60318754616E+01  0.79280112897E+02  0.00000000000E+00 0. -1.
</event>
<event>
 8    1  0.7232317E-009  0.1878594E+03  0.7561462E-02  0.1160406E+00
         -1   -1    0    0    0  501 -0.00000000000E+00  0.00000000000E+00  0.21744277200E+03  0.21744277200E+03  0.00000000000E+00 0.  1.
          1   -1    0    0  501    0  0.00000000000E+00 -0.00000000000E+00 -0.20462083678E+03  0.20462083678E+03  0.00000000000E+00 0. -1.
         25    2    1    2    0    0  0.10533025098E+03  0.14716586134E+03  0.18326644500E+01  0.22000759657E+03  0.12509089246E+03 0.  0.
         23    2    1    2    0    0 -0.10533025098E+03 -0.14716586134E+03  0.10989270766E+02  0.20205601220E+03  0.89183044805E+02 0.  0.
          5    1    3    3  502    0 -0.10098564976E+02  0.17905545205E+02 -0.36843929174E+02  0.42397371152E+02  0.41800000000E+01 0. -1.
         -5    1    3    3    0  502  0.11542881595E+03  0.12926031613E+03  0.38676593624E+02  0.17761022542E+03  0.41800000000E+01 0. -1.
        -11    1    4    4    0    0 -0.38251651680E+02 -0.63836613762E+02  0.48349056739E+02  0.88746455706E+02  0.00000000000E+00 0.  1.
         11    1    4    4    0    0 -0.67078599299E+02 -0.83329247577E+02 -0.37359785973E+02  0.11330955650E+03  0.00000000000E+00 0. -1.
</event>
<event>
 8    1  0.7232317E-009  0.1539490E+03  0.7561462E-02  0.1195703E+00
         -1   -1    0    0    0  501 -0.00000000000E+00  0.00000000000E+00  0.21027988040E+03  0.21027988040E+03  0.00000000000E+00 0.  1.
          1   -1    0    0  501    0  0.00000000000E+00 -0.00000000000E+00 -0.20407448881E+03  0.20407448881E+03  0.00000000000E+00 0. -1.
         25    2    1    2    0    0  0.15781673236E+02 -0.14029396452E+03 -0.10461541410E+03  0.21569320252E+03  0.12509082722E+03 0.  0.
         23    2    1    2    0    0 -0.15781673236E+02  0.14029396452E+03  0.11082080569E+03  0.19866116669E+03  0.85167778436E+02 0.  0.
          5    1    3    3  502    0 -0.18439897466E+00  0.12407308931E+02  0.15804572454E+02  0.20523942807E+02  0.41800000000E+01 0. -1.
         -5    1    3    3    0  502  0.15966072210E+02 -0.15270127345E+03 -0.12041998656E+03  0.19516925972E+03  0.41800000000E+01 0. -1.
        -11    1    4    4    0    0 -0.53379380586E+01  0.61348543328E+02  0.10118022095E+03  0.11844650465E+03  0.00000000000E+00 0.  1.
         11    1    4    4    0    0 -0.10443735177E+02  0.78945421194E+02  0.96405847390E+01  0.80214662039E+02  0.00000000000E+00 0. -1.
</event>
<event>
 8    1  0.7232317E-009  0.1000804E+03  0.7561462E-02  0.1280127E+00
         -2   -1    0    0    0  501 -0.00000000000E+00  0.00000000000E+00  0.63802339984E+02  0.63802339984E+02  0.00000000000E+00 0.  1.
          2   -1    0    0  501    0  0.00000000000E+00 -0.00000000000E+00 -0.27927722515E+03  0.27927722515E+03  0.00000000000E+00 0. -1.
         25    2    1    2    0    0  0.15794255203E+02  0.68800049767E+01 -0.21644833588E+03  0.25058888756E+03  0.12509242782E+03 0.  0.
         23    2    1    2    0    0 -0.15794255203E+02 -0.68800049767E+01  0.97345071694E+00  0.92490677571E+02  0.90866852402E+02 0.  0.
          5    1    3    3  502    0  0.63131946497E+02  0.17241335597E+02 -0.17430427808E+03  0.18623200606E+03  0.41800000000E+01 0.  1.
         -5    1    3    3    0  502 -0.47337691294E+02 -0.10361330620E+02 -0.42144057796E+02  0.64356881503E+02  0.41800000000E+01 0.  1.
        -11    1    4    4    0    0  0.34412482267E+02 -0.94064585565E+01 -0.16452258077E+02  0.39285839614E+02  0.00000000000E+00 0. -1.
         11    1    4    4    0    0 -0.50206737470E+02  0.25264535799E+01  0.17425708794E+02  0.53204837957E+02  0.00000000000E+00 0.  1.
</event>
<event>
 8    1  0.7232317E-009  0.1196331E+03  0.7561462E-02  0.1243704E+00
         -1   -1    0    0    0  501 -0.00000000000E+00  0.00000000000E+00  0.27030767715E+03  0.27030767715E+03  0.00000000000E+00 0.  1.
          1   -1    0    0  501    0  0.00000000000E+00 -0.00000000000E+00 -0.88395605682E+02  0.88395605682E+02  0.00000000000E+00 0. -1.
         25    2    1    2    0    0  0.66137731462E+02  0.46284459698E+02  0.11798446837E+02  0.14933922518E+03  0.12508617069E+03 0.  0.
         23    2    1    2    0    0 -0.66137731462E+02 -0.46284459698E+02  0.17011362464E+03  0.20936405765E+03  0.91532576816E+02 0.  0.
          5    1    3    3  502    0  0.48213807944E+02 -0.25118413396E+02 -0.32346792505E+02  0.63397897074E+02  0.41800000000E+01 0.  1.
         -5    1    3    3    0  502  0.17923923518E+02  0.71402873095E+02  0.44145239342E+02  0.85941328108E+02  0.41800000000E+01 0.  1.
        -11    1    4    4    0    0  0.78707304919E+00 -0.44034781441E+02  0.11325930331E+03  0.12152099097E+03  0.00000000000E+00 0.  1.
         11    1    4    4    0    0 -0.66924804511E+02 -0.22496782574E+01  0.56854321330E+02  0.87843066687E+02  0.00000000000E+00 0. -1.
</event>
<event>
 8    1  0.7232317E-009  0.2131491E+03  0.7561462E-02  0.1139096E+00
          2   -1    0    0  501    0  0.00000000000E+00  0.00000000000E+00  0.21496872285E+03  0.21496872285E+03  0.00000000000E+00 0. -1.
         -2   -1    0    0    0  501 -0.00000000000E+00 -0.00000000000E+00 -0.26195453408E+03  0.26195453408E+03  0.00000000000E+00 0.  1.
         25    2    1    2    0    0  0.46193226443E+02  0.18471835002E+03 -0.11870445918E+03  0.25688255190E+03  0.12507283413E+03 0.  0.
         23    2    1    2    0    0 -0.46193226443E+02 -0.18471835002E+03  0.71718647946E+02  0.22004070504E+03  0.83783437567E+02 0.  0.
          5    1    3    3  502    0 -0.25700436489E+02  0.11667193461E+01  0.12378096309E+01  0.26093643717E+02  0.41800000000E+01 0.  1.
         -5    1    3    3    0  502  0.71893662931E+02  0.18355163067E+03 -0.11994226881E+03  0.23078890818E+03  0.41800000000E+01 0.  1.
        -11    1    4    4    0    0 -0.41750362484E+02 -0.38554061408E+02 -0.75722874201E+00  0.56833808723E+02  0.00000000000E+00 0.  1.
         11    1    4    4    0    0 -0.44428639586E+01 -0.14616428861E+03  0.72475876688E+02  0.16320689632E+03  0.00000000000E+00 0. -1.
</event>
<event>
 8    1  0.7232317E-009  0.1154367E+03  0.7561462E-02  0.1250821E+00
         -2   -1    0    0    0  501 -0.00000000000E+00  0.00000000000E+00  0.56384647433E+02  0.56384647433E+02  0.00000000000E+00 0.  1.
          2   -1    0    0  501    0  0.00000000000E+00 -0.00000000000E+00 -0.43043196648E+03  0.43043196648E+03  0.00000000000E+00 0. -1.
         25    2    1    2    0    0 -0.42957120207E+02 -0.31471119066E+02 -0.49911380004E+02  0.14482564108E+03  0.12509026720E+03 0.  0.
         23    2    1    2    0    0  0.42957120207E+02  0.31471119066E+02 -0.32413593905E+03  0.34199097284E+03  0.95173383938E+02 0.  0.
          5    1    3    3  502    0  0.47269189040E+01 -0.65879328161E+02 -0.54449162878E+02  0.85700719830E+02  0.41800000000E+01 0.  1.
         -5    1    3    3    0  502 -0.47684039111E+02  0.34408209095E+02  0.45377828749E+01  0.59124921247E+02  0.41800000000E+01 0.  1.
        -11    1    4    4    0    0 -0.23800190908E+02 -0.11415224560E+02 -0.12235773684E+03  0.12517256970E+03  0.00000000000E+00 0. -1.
         11    1    4    4    0    0  0.66757311115E+02  0.42886343626E+02 -0.20177820220E+03  0.21681840314E+03  0.00000000000E+00 0.  1.
</event>
<event>
 8    1  0.7232317E-009  0.1062801E+03  0.7561462E-02  0.1267618E+00
         -1   -1    0    0    0  501 -0.00000000000E+00  0.00000000000E+00  0.12693093783E+02  0.12693093783E+02  0.00000000000E+00 0.  1.
          1   -1    0    0  501    0  0.00000000000E+00 -0.00000000000E+00 -0.12687861069E+04  0.12687861069E+04  0.00000000000E+00 0. -1.
         25    2    1    2    0    0 -0.39399354289E+02 -0.31172140860E+02 -0.91056822802E+03  0.92049229918E+03  0.12509022140E+03 0.  0.
         23    2    1    2    0    0  0.39399354289E+02  0.31172140860E+02 -0.34552478509E+03  0.36098690149E+03  0.91652356514E+02 0.  0.
          5    1    3    3  502    0 -0.51923872040E+02 -0.60192538055E+02 -0.34660823267E+03  0.35563178919E+03  0.41800000000E+01 0. -1.
         -5    1    3    3    0  502  0.12524517751E+02  0.29020397195E+02 -0.56395999535E+03  0.56486051000E+03  0.41800000000E+01 0. -1.
        -11    1    4    4    0    0 -0.88655124751E+01 -0.25287208961E+02 -0.13780766678E+03  0.14038872202E+03  0.00000000000E+00 0. -1.
         11    1    4    4    0    0  0.48264866764E+02  0.56459349821E+02 -0.20771711831E+03  0.22059817947E+03  0.00000000000E+00 0.  1.
</event>
<event>
 8    1  0.7232317E-009  0.1053723E+03  0.7561462E-02  0.1269388E+00
          2   -1    0    0  501    0  0.00000000000E+00  0.00000000000E+00  0.66119900678E+03  0.66119900678E+03  0.00000000000E+00 0. -1.
         -2   -1    0    0    0  501 -0.00000000000E+00 -0.00000000000E+00 -0.32820489711E+02  0.32820489711E+02  0.00000000000E+00 0.  1.
         25    2    1    2    0    0  0.11192840025E+02  0.10498279335E+02  0.54859534269E+03  0.56288589543E+03  0.12509271649E+03 0.  0.
         23    2    1    2    0    0 -0.11192840025E+02 -0.10498279335E+02  0.79783174380E+02  0.13113360106E+03  0.10293285615E+03 0.  0.
          5    1    3    3  502    0  0.80248408378E+01 -0.56993454392E+02  0.28064128642E+03  0.28651292459E+03  0.41800000000E+01 0. -1.
         -5    1    3    3    0  502  0.31679991877E+01  0.67491733728E+02  0.26795405627E+03  0.27637297085E+03  0.41800000000E+01 0. -1.
        -11    1    4    4    0    0 -0.44741740984E+02 -0.22024037385E+02  0.72530536381E+01  0.50393336822E+02  0.00000000000E+00 0.  1.
         11    1    4    4    0    0  0.33548900958E+02  0.11525758050E+02  0.72530120742E+02  0.80740264237E+02  0.00000000000E+00 0. -1.
</event>
<event>
 8    1  0.7232317E-009  0.1750299E+03  0.7561462E-02  0.1172702E+00
          1   -1    0    0  501    0  0.00000000000E+00  0.00000000000E+00  0.50857805714E+03  0.50857805714E+03  0.00000000000E+00 0. -1.
         -1   -1    0    0    0  501 -0.00000000000E+00 -0.00000000000E+00 -0.62697702342E+02  0.62697702342E+02  0.00000000000E+00 0.  1.
         25    2    1    2    0    0 -0.10487549703E+03  0.97856396743E+02  0.21565913730E+03  0.28763054961E+03  0.12509086822E+03 0.  0.
         23    2    1    2    0    0  0.10487549703E+03 -0.97856396743E+02  0.23022121750E+03  0.28364520986E+03  0.82934020962E+02 0.  0.
          5    1    3    3  502    0 -0.13044756311E+03  0.77689763679E+02  0.14627676660E+03  0.21087112403E+03  0.41800000000E+01 0. -1.
         -5    1    3    3    0  502  0.25572066082E+02  0.20166633065E+02  0.69382370700E+02  0.76759425590E+02  0.41800000000E+01 0. -1.
        -11    1    4    4    0    0 -0.61639541481E+01 -0.39346668399E+02  0.63602022559E+02  0.75042467433E+02  0.00000000000E+00 0. -1.
         11    1    4    4    0    0  0.11103945117E+03 -0.58509728344E+02  0.16661919494E+03  0.20860274243E+03  0.00000000000E+00 0.  1.
</event>
<event>
 8    1  0.7232317E-009  0.8588544E+02  0.7561462E-02  0.1313133E+00
          2   -1    0    0  501    0  0.00000000000E+00  0.00000000000E+00  0.12654101673E+03  0.12654101673E+03  0.00000000000E+00 0. -1.
         -2   -1    0    0    0  501 -0.00000000000E+00 -0.00000000000E+00 -0.10557392992E+03  0.10557392992E+03  0.00000000000E+00 0.  1.
         25    2    1    2    0    0  0.27445329128E+02  0.23978536133E+01 -0.20105340079E+02  0.12965420538E+03  0.12508793899E+03 0.  0.
         23    2    1    2    0    0 -0.27445329128E+02 -0.23978536133E+01  0.41072426896E+02  0.10246074127E+03  0.89734405091E+02 0.  0.
          5    1    3    3  502    0  0.42963006033E+02  0.26446025138E+02  0.38965229280E+02  0.63882498588E+02  0.41800000000E+01 0. -1.
         -5    1    3    3    0  502 -0.15517676905E+02 -0.24048171525E+02 -0.59070569359E+02  0.65771706794E+02  0.41800000000E+01 0. -1.
        -11    1    4    4    0    0 -0.34062737741E+02 -0.40860518883E+02  0.33018888738E+02  0.62610694927E+02  0.00000000000E+00 0. -1.
         11    1    4    4    0    0  0.66174086130E+01  0.38462665270E+02  0.80535381579E+01  0.39850046340E+02  0.00000000000E+00 0.  1.
</event>
<event>
 8    1  0.7232317E-009  0.7522950E+02  0.7561462E-02  0.1343162E+00
          1   -1    0    0  501    0  0.00000000000E+00  0.00000000000E+00  0.67049869191E+03  0.67049869191E+03  0.00000000000E+00 0. -1.
         -1   -1    0    0    0  501 -0.00000000000E+00 -0.00000000000E+00 -0.25486484889E+02  0.25486484889E+02  0.00000000000E+00 0.  1.
         25    2    1    2    0    0  0.35413366725E+02 -0.26845329884E+02  0.20518122150E+03  0.24439683622E+03  0.12512274622E+03 0.  0.
         23    2    1    2    0    0 -0.35413366725E+02  0.26845329884E+02  0.43983098553E+03  0.45158834058E+03  0.92227735732E+02 0.  0.
          5    1    3    3  502    0  0.32037015400E+02 -0.29374310669E+02  0.22215939334E+03  0.22641000184E+03  0.41800000000E+01 0. -1.
         -5    1    3    3    0  502  0.33763513255E+01  0.25289807857E+01 -0.16978171842E+02  0.17986834385E+02  0.41800000000E+01 0. -1.
        -11    1    4    4    0    0  0.70988578596E+01  0.51314589493E+02  0.18697835566E+03  0.19402187084E+03  0.00000000000E+00 0. -1.
         11    1    4    4    0    0 -0.42512224585E+02 -0.24469259610E+02  0.25285262986E+03  0.25756646974E+03  0.00000000000E+00 0.  1.
</event>
<event>
 8    1  0.7232317E-009  0.9400206E+02  0.7561462E-02  0.1293440E+00
          2   -1    0    0  501    0  0.00000000000E+00  0.00000000000E+00  0.20335158319E+03  0.20335158319E+03  0.00000000000E+00 0. -1.
         -2   -1    0    0    0  501 -0.00000000000E+00 -0.00000000000E+00 -0.67604396791E+02  0.67604396791E+02  0.00000000000E+00 0.  1.
         25    2    1    2    0    0  0.33814023015E+02  0.21062822111E+02  0.43102957685E+02  0.13816516090E+03  0.12507883953E+03 0.  0.
         23    2    1    2    0    0 -0.33814023015E+02 -0.21062822111E+02  0.92644228712E+02  0.13279081908E+03  0.86391075290E+02 0.  0.
          5    1    3    3  502    0 -0.27841931765E+02  0.19070327923E+01 -0.29564328655E+02  0.40869693751E+02  0.41800000000E+01 0. -1.
         -5    1    3    3    0  502  0.61655954779E+02  0.19155789319E+02  0.72667286340E+02  0.97295467152E+02  0.41800000000E+01 0. -1.
        -11    1    4    4    0    0 -0.22786346627E+02 -0.54930693453E+02  0.55919957331E+02  0.81631123377E+02  0.00000000000E+00 0.  1.
         11    1    4    4    0    0 -0.11027676388E+02  0.33867871341E+02  0.36724271381E+02  0.51159695700E+02  0.00000000000E+00 0. -1.
</event>
<event>
 8    1  0.7232317E-009  0.9265528E+02  0.7561462E-02  0.1296546E+00
          1   -1    0    0  501    0  0.00000000000E+00  0.00000000000E+00  0.14703809694E+03  0.14703809694E+03  0.00000000000E+00 0. -1.
         -1   -1    0    0    0  501 -0.00000000000E+00 -0.00000000000E+00 -0.10814976853E+03  0.10814976853E+03  0.00000000000E+00 0.  1.
         25    2    1    2    0    0 -0.62514165336E+02  0.29090257376E+01  0.24247631434E+02  0.14195976520E+03  0.12509254177E+03 0.  0.
         23    2    1    2    0    0  0.62514165336E+02 -0.29090257376E+01  0.14640696980E+02  0.11322810027E+03  0.93218932545E+02 0.  0.
          5    1    3    3  502    0 -0.19545349842E+02 -0.49299650510E+02 -0.24430199314E+02  0.58538733155E+02  0.41800000000E+01 0.  1.
         -5    1    3    3    0  502 -0.42968815493E+02  0.52208676247E+02  0.48677830748E+02  0.83421032041E+02  0.41800000000E+01 0.  1.
        -11    1    4    4    0    0  0.18172253589E+02 -0.77618811853E+01  0.51628627949E+02  0.55281034939E+02  0.00000000000E+00 0. -1.
         11    1    4    4    0    0  0.44341911746E+02  0.48528554477E+01 -0.36987930969E+02  0.57947065333E+02  0.00000000000E+00 0.  1.
</event>
<event>
 8    1  0.7232317E-009  0.2336979E+03  0.7561462E-02  0.1124064E+00
          1   -1    0    0  501    0  0.00000000000E+00  0.00000000000E+00  0.95488340694E+03  0.95488340694E+03  0.00000000000E+00 0. -1.
         -1   -1    0    0    0  501 -0.00000000000E+00 -0.00000000000E+00 -0.78030652467E+02  0.78030652467E+02  0.00000000000E+00 0.  1.
         25    2    1    2    0    0  0.20824015190E+03 -0.83987825203E+02  0.23919830504E+03  0.35111762415E+03  0.12509932536E+03 0.  0.
         23    2    1    2    0    0 -0.20824015190E+03  0.83987825203E+02  0.63765444943E+03  0.68179643526E+03  0.88460537023E+02 0.  0.
          5    1    3    3  502    0  0.11822634621E+03 -0.31359508156E+02  0.44515423222E+02  0.13023049948E+03  0.41800000000E+01 0. -1.
         -5    1    3    3    0  502  0.90013805687E+02 -0.52628317047E+02  0.19468288182E+03  0.22088712467E+03  0.41800000000E+01 0. -1.
        -11    1    4    4    0    0 -0.10555697649E+03 -0.37065743550E+01  0.30546974199E+03  0.32321475407E+03  0.00000000000E+00 0. -1.
         11    1    4    4    0    0 -0.10268317541E+03  0.87694399558E+02  0.33218470744E+03  0.35858168119E+03  0.00000000000E+00 0.  1.
</event>
<event>
 8    1  0.7232317E-009  0.2383695E+03  0.7561462E-02  0.1120884E+00
         -2   -1    0    0    0  501 -0.00000000000E+00  0.00000000000E+00  0.17208224827E+03  0.17208224827E+03  0.00000000000E+00 0. -1.
          2   -1    0    0  501    0  0.00000000000E+00 -0.00000000000E+00 -0.33789752102E+03  0.33789752102E+03  0.00000000000E+00 0.  1.
         25    2    1    2    0    0 -0.34975576885E+02 -0.21064335090E+03 -0.11199398040E+03  0.27163428334E+03  0.12509444427E+03 0.  0.
         23    2    1    2    0    0  0.34975576885E+02  0.21064335090E+03 -0.53821292351E+02  0.23834548595E+03  0.91202669411E+02 0.  0.
          5    1    3    3  502    0  0.27667471326E+02 -0.15721287885E+01 -0.21515662940E+02  0.35332091790E+02  0.41800000000E+01 0. -1.
         -5    1    3    3    0  502 -0.62643048211E+02 -0.20907122211E+03 -0.90478317456E+02  0.23630219155E+03  0.41800000000E+01 0. -1.
        -11    1    4    4    0    0 -0.28117180118E+02  0.89767253017E+02 -0.76059608056E+01  0.94374711505E+02  0.00000000000E+00 0.  1.
         11    1    4    4    0    0  0.63092757002E+02  0.12087609788E+03 -0.46215331545E+02  0.14397077445E+03  0.00000000000E+00 0. -1.
</event>
<event>
 8    1  0.7232317E-009  0.1381537E+03  0.7561462E-02  0.1215835E+00
         -1   -1    0    0    0  501 -0.00000000000E+00  0.00000000000E+00  0.15027276683E+04  0.15027276683E+04  0.00000000000E+00 0.  1.
          1   -1    0    0  501    0  0.00000000000E+00 -0.00000000000E+00 -0.20781557148E+02  0.20781557148E+02  0.00000000000E+00 0. -1.
         25    2    1    2    0    0 -0.61465521509E+02 -0.71901601709E+02  0.12243373740E+04  0.12343405735E+04  0.12508715192E+03 0.  0.
         23    2    1    2    0    0  0.61465521509E+02  0.71901601709E+02  0.25760873718E+03  0.28916865188E+03  0.91150409207E+02 0.  0.
          5    1    3    3  502    0 -0.82723215385E+02 -0.44852045491E+01  0.77967518158E+03  0.78407532074E+03  0.41800000000E+01 0.  1.
         -5    1    3    3    0  502  0.21257693876E+02 -0.67416397160E+02  0.44466219238E+03  0.45026525280E+03  0.41800000000E+01 0.  1.
        -11    1    4    4    0    0  0.61960018867E+01  0.66749310774E+02  0.19122635238E+03  0.20263607471E+03  0.00000000000E+00 0.  1.
         11    1    4    4    0    0  0.55269519622E+02  0.51522909351E+01  0.66382384795E+02  0.86532577173E+02  0.00000000000E+00 0. -1.
</event>
<event>
 8    1  0.7232317E-009  0.3382459E+03  0.7561462E-02  0.1067546E+00
          2   -1    0    0  501    0  0.00000000000E+00  0.00000000000E+00  0.30771383179E+03  0.30771383179E+03  0.00000000000E+00 0. -1.
         -2   -1    0    0    0  501 -0.00000000000E+00 -0.00000000000E+00 -0.49351611324E+03  0.49351611324E+03  0.00000000000E+00 0.  1.
         25    2    1    2    0    0 -0.98778380957E+02  0.30642007157E+03  0.10192990871E+03  0.36012144098E+03  0.12508923678E+03 0.  0.
         23    2    1    2    0    0  0.98778380957E+02 -0.30642007157E+03 -0.28773219016E+03  0.44110850405E+03  0.90202385122E+02 0.  0.
          5    1    3    3  502    0 -0.12583046080E+03  0.25190189515E+03  0.10079396464E+03  0.29910661202E+03  0.41800000000E+01 0.  1.
         -5    1    3    3    0  502  0.27052079842E+02  0.54518176428E+02  0.11359440620E+01  0.61014828965E+02  0.41800000000E+01 0.  1.
        -11    1    4    4    0    0  0.18699189809E+02 -0.19907560663E+03 -0.16077665277E+03  0.25657335974E+03  0.00000000000E+00 0. -1.
         11    1    4    4    0    0  0.80079191148E+02 -0.10734446494E+03 -0.12695553740E+03  0.18453514431E+03  0.00000000000E+00 0.  1.
</event>
<event>
 8    1  0.7232317E-009  0.1614520E+03  0.7561462E-02  0.1187067E+00
          1   -1    0    0  501    0  0.00000000000E+00  0.00000000000E+00  0.33375940517E+03  0.33375940517E+03  0.00000000000E+00 0. -1.
         -1   -1    0    0    0  501 -0.00000000000E+00 -0.00000000000E+00 -0.10272181642E+03  0.10272181642E+03  0.00000000000E+00 0.  1.
         25    2    1    2    0    0  0.14324008927E+03 -0.13540263991E+02  0.85964458250E+02  0.20913785120E+03  0.12509073026E+03 0.  0.
         23    2    1    2    0    0 -0.14324008927E+03  0.13540263991E+02  0.14507313050E+03  0.22734337039E+03  0.99688178553E+02 0.  0.
          5    1    3    3  502    0  0.22724083594E+02  0.20200451534E+02  0.77820165100E+02  0.83653408260E+02  0.41800000000E+01 0.  1.
         -5    1    3    3    0  502  0.12051600567E+03 -0.33740715526E+02  0.81442931506E+01  0.12548444294E+03  0.41800000000E+01 0.  1.
        -11    1    4    4    0    0 -0.55333377723E+02 -0.36072319675E+02  0.25359939317E+02  0.70753950131E+02  0.00000000000E+00 0.  1.
         11    1    4    4    0    0 -0.87906711546E+02  0.49612583667E+02  0.11971319119E+03  0.15658942026E+03  0.00000000000E+00 0. -1.
</event>
<event>
 8    1  0.7232317E-009  0.1566015E+03  0.7561462E-02  0.1192588E+00
         -2   -1    0    0    0  501 -0.00000000000E+00  0.00000000000E+00  0.52079722841E+02  0.52079722841E+02  0.00000000000E+00 0. -1.
          2   -1    0    0  501    0  0.00000000000E+00 -0.00000000000E+00 -0.65869929677E+03  0.65869929677E+03  0.00000000000E+00 0.  1.
         25    2    1    2    0    0 -0.83045286299E+02  0.12188554864E+03 -0.29213683226E+03  0.35035025564E+03  0.12509502916E+03 0.  0.
         23    2    1    2    0    0  0.83045286299E+02 -0.12188554864E+03 -0.31448274167E+03  0.36042876397E+03  0.96212746279E+02 0.  0.
          5    1    3    3  502    0 -0.10391350524E+02 -0.96563543830E+01 -0.12371363402E+03  0.12459438586E+03  0.41800000000E+01 0.  1.
         -5    1    3    3    0  502 -0.72653935776E+02  0.13154190302E+03 -0.16842319824E+03  0.22575586978E+03  0.41800000000E+01 0.  1.
        -11    1    4    4    0    0  0.24076180599E+02 -0.46608849686E+02 -0.30283168917E+02  0.60573242120E+02  0.00000000000E+00 0. -1.
         11    1    4    4    0    0  0.58969105701E+02 -0.75276698953E+02 -0.28419957275E+03  0.29985552185E+03  0.00000000000E+00 0.  1.
</event>
<event>
 8    1  0.7232317E-009  0.1648606E+03  0.7561462E-02  0.1183316E+00
         -2   -1    0    0    0  501 -0.00000000000E+00  0.00000000000E+00  0.49510054455E+02  0.49510054455E+02  0.00000000000E+00 0.  1.
          2   -1    0    0  501    0  0.00000000000E+00 -0.00000000000E+00 -0.69994756134E+03  0.69994756134E+03  0.00000000000E+00 0. -1.
         25    2    1    2    0    0 -0.36192810297E+02 -0.13843262677E+03 -0.43619384635E+03  0.47580384130E+03  0.12510280624E+03 0.  0.
         23    2    1    2    0    0  0.36192810297E+02  0.13843262677E+03 -0.21424366054E+03  0.27365377450E+03  0.92263375963E+02 0.  0.
          5    1    3    3  502    0 -0.52987475679E+02 -0.15400281931E+03 -0.34268168080E+03  0.37943740945E+03  0.41800000000E+01 0. -1.
         -5    1    3    3    0  502  0.16794665382E+02  0.15570192542E+02 -0.93512165546E+02  0.96366431843E+02  0.41800000000E+01 0. -1.
        -11    1    4    4    0    0  0.35208966128E+02  0.11983705218E+03 -0.10599631247E+03  0.16381638693E+03  0.00000000000E+00 0.  1.
         11    1    4    4    0    0  0.98384416888E+00  0.18595574595E+02 -0.10824734806E+03  0.10983738756E+03  0.00000000000E+00 0. -1.
</event>
<event>
 8    1  0.7232317E-009  0.1454465E+03  0.7561462E-02  0.1206183E+00
          2   -1    0    0  501    0  0.00000000000E+00  0.00000000000E+00  0.12785004688E+04  0.12785004688E+04  0.00000000000E+00 0.  1.
         -2   -1    0    0    0  501 -0.00000000000E+00 -0.00000000000E+00 -0.19935946173E+02  0.19935946173E+02  0.00000000000E+00 0. -1.
         25    2    1    2    0    0 -0.75114022350E+02  0.87835160037E+02  0.73758726829E+03  0.75699347185E+03  0.12508799459E+03 0.  0.
         23    2    1    2    0    0  0.75114022350E+02 -0.87835160037E+02  0.52097725433E+03  0.54144294311E+03  0.91575266455E+02 0.  0.
          5    1    3    3  502    0 -0.83375016788E+02  0.11399538236E+03  0.64713143723E+03  0.66237671311E+03  0.41800000000E+01 0.  1.
         -5    1    3    3    0  502  0.82609944381E+01 -0.26160222328E+02  0.90455831062E+02  0.94616758740E+02  0.41800000000E+01 0.  1.
        -11    1    4    4    0    0  0.33803625588E+02 -0.12707698842E+02  0.44482213094E+02  0.57296055663E+02  0.00000000000E+00 0. -1.
         11    1    4    4    0    0  0.41310396762E+02 -0.75127461195E+02  0.47649504124E+03  0.48414688745E+03  0.00000000000E+00 0.  1.
</event>
<event>
 8    1  0.7232317E-009  0.1111086E+03  0.7561462E-02  0.1258531E+00
         -4   -1    0    0    0  501 -0.00000000000E+00  0.00000000000E+00  0.40516727937E+02  0.40516727937E+02  0.00000000000E+00 0.  1.
          4   -1    0    0  501    0  0.00000000000E+00 -0.00000000000E+00 -0.66824977524E+03  0.66824977524E+03  0.00000000000E+00 0. -1.
         25    2    1    2    0    0 -0.80910368593E+02 -0.28272957481E+01 -0.53423914631E+03  0.55462974303E+03  0.12509278578E+03 0.  0.
         23    2    1    2    0    0  0.80910368593E+02  0.28272957481E+01 -0.93493900993E+02  0.15413676015E+03  0.91992119008E+02 0.  0.
          5    1    3    3  502    0  0.27277865201E+02  0.87239995920E+01 -0.22350259257E+03  0.22536874536E+03  0.41800000000E+01 0. -1.
         -5    1    3    3    0  502 -0.10818823379E+03 -0.11551295340E+02 -0.31073655374E+03  0.32926099767E+03  0.41800000000E+01 0. -1.
        -11    1    4    4    0    0  0.47376862774E+02  0.13391765003E+02  0.50665914026E+01  0.49493199983E+02  0.00000000000E+00 0.  1.
         11    1    4    4    0    0  0.33533505820E+02 -0.10564469254E+02 -0.98560492395E+02  0.10464356017E+03  0.00000000000E+00 0. -1.
</event>
<event>
 8    1  0.7232317E-009  0.1295754E+03  0.7561462E-02  0.1228087E+00
         -1   -1    0    0    0  501 -0.00000000000E+00  0.00000000000E+00  0.49479397361E+03  0.49479397361E+03  0.00000000000E+00 0.  1.
          1   -1    0    0  501    0  0.00000000000E+00 -0.00000000000E+00 -0.37052636150E+02  0.37052636150E+02  0.00000000000E+00 0. -1.
         25    2    1    2    0    0 -0.55924787127E+02 -0.51827291454E+02  0.30772584843E+03  0.34081649690E+03  0.12508811620E+03 0.  0.
         23    2    1    2    0    0  0.55924787127E+02  0.51827291454E+02  0.15001548903E+03  0.19103011286E+03  0.90411321834E+02 0.  0.
          5    1    3    3  502    0 -0.79779914165E+02  0.92576534905E+01  0.18115561119E+03  0.19820536501E+03  0.41800000000E+01 0.  1.
         -5    1    3    3    0  502  0.23855127038E+02 -0.61084944945E+02  0.12657023724E+03  0.14261113189E+03  0.41800000000E+01 0.  1.
        -11    1    4    4    0    0  0.69230502327E+02  0.11029842111E+02  0.11888541722E+03  0.13801544224E+03  0.00000000000E+00 0.  1.
         11    1    4    4    0    0 -0.13305715200E+02  0.40797449343E+02  0.31130071810E+02  0.53014670619E+02  0.00000000000E+00 0. -1.
</event>
<event>
 8    1  0.7232317E-009  0.1438268E+03  0.7561462E-02  0.1208271E+00
         -2   -1    0    0    0  501 -0.00000000000E+00  0.00000000000E+00  0.49105588039E+03  0.49105588039E+03  0.00000000000E+00 0. -1.
          2   -1    0    0  501    0  0.00000000000E+00 -0.00000000000E+00 -0.57275964017E+02  0.57275964017E+02  0.00000000000E+00 0.  1.
         25    2    1    2    0    0 -0.10999808773E+03  0.38409414941E+02  0.14758473951E+03  0.22584056843E+03  0.12509134484E+03 0.  0.
         23    2    1    2    0    0  0.10999808773E+03 -0.38409414941E+02  0.28619517687E+03  0.32249127598E+03  0.92293452425E+02 0.  0.
          5    1    3    3  502    0 -0.10454852905E+03 -0.24134834009E+02  0.10238732736E+03  0.14836954655E+03  0.41800000000E+01 0.  1.
         -5    1    3    3    0  502 -0.54495586745E+01  0.62544248950E+02  0.45197412146E+02  0.77471021881E+02  0.41800000000E+01 0.  1.
        -11    1    4    4    0    0  0.87822502661E+02 -0.36468964868E+02  0.28472199036E+03  0.30018225991E+03  0.00000000000E+00 0. -1.
         11    1    4    4    0    0  0.22175585066E+02 -0.19404500732E+01  0.14731865122E+01  0.22309016069E+02  0.00000000000E+00 0.  1.
</event>
<event>
 8    1  0.7232317E-009  0.1195059E+03  0.7561462E-02  0.1243914E+00
         -1   -1    0    0    0  501 -0.00000000000E+00  0.00000000000E+00  0.23058129580E+03  0.23058129580E+03  0.00000000000E+00 0.  1.
          1   -1    0    0  501    0  0.00000000000E+00 -0.00000000000E+00 -0.72901837129E+02  0.72901837129E+02  0.00000000000E+00 0. -1.
         25    2    1    2    0    0 -0.63785101547E+02 -0.30491462841E+02  0.86650737940E+02  0.16778973708E+03  0.12508707766E+03 0.  0.
         23    2    1    2    0    0  0.63785101547E+02  0.30491462841E+02  0.71028720733E+02  0.13569339585E+03  0.91484151761E+02 0.  0.
          5    1    3    3  502    0  0.27313386423E+02  0.14082451432E+02 -0.45335104678E+01  0.31342648793E+02  0.41800000000E+01 0.  1.
         -5    1    3    3    0  502 -0.91098487970E+02 -0.44573914273E+02  0.91184248407E+02  0.13644708829E+03  0.41800000000E+01 0.  1.
        -11    1    4    4    0    0  0.55274568168E+02 -0.17324866421E+02  0.64493025783E+02  0.86687826466E+02  0.00000000000E+00 0.  1.
         11    1    4    4    0    0  0.85105333787E+01  0.47816329262E+02  0.65356949505E+01  0.49005569387E+02  0.00000000000E+00 0. -1.
</event>
<event>
 8    1  0.7232317E-009  0.2164676E+03  0.7561462E-02  0.1136544E+00
          2   -1    0    0  501    0  0.00000000000E+00  0.00000000000E+00  0.11263158486E+03  0.11263158486E+03  0.00000000000E+00 0. -1.
         -2   -1    0    0    0  501 -0.00000000000E+00 -0.00000000000E+00 -0.49773346476E+03  0.49773346476E+03  0.00000000000E+00 0.  1.
         25    2    1    2    0    0  0.12607882368E+03  0.14113509067E+03 -0.81755733914E+02  0.24113158474E+03  0.12508180336E+03 0.  0.
         23    2    1    2    0    0 -0.12607882368E+03 -0.14113509067E+03 -0.30334614598E+03  0.36923346488E+03  0.92192644542E+02 0.  0.
          5    1    3    3  502    0  0.79227849003E+02  0.15539104291E+03 -0.46252256777E+02  0.18049978375E+03  0.41800000000E+01 0. -1.
         -5    1    3    3    0  502  0.46850974678E+02 -0.14255952245E+02 -0.35503477137E+02  0.60631800992E+02  0.41800000000E+01 0. -1.
        -11    1    4    4    0    0 -0.95458753598E+02 -0.14967389950E+03 -0.27027084867E+03  0.32335890504E+03  0.00000000000E+00 0.  1.
         11    1    4    4    0    0 -0.30620070083E+02  0.85388088294E+01 -0.33075297307E+02  0.45874559836E+02  0.00000000000E+00 0. -1.
</event>
<event>
 8    1  0.7232317E-009  0.1093234E+03  0.7561462E-02  0.1261828E+00
          1   -1    0    0  501    0  0.00000000000E+00  0.00000000000E+00  0.82357254517E+03  0.82357254517E+03  0.00000000000E+00 0. -1.
         -1   -1    0    0    0  501 -0.00000000000E+00 -0.00000000000E+00 -0.28027656339E+02  0.28027656339E+02  0.00000000000E+00 0.  1.
         25    2    1    2    0    0 -0.42626939528E+02  0.88012232838E+02  0.54514575646E+03  0.56779793993E+03  0.12508955071E+03 0.  0.
         23    2    1    2    0    0  0.42626939528E+02 -0.88012232838E+02  0.25039913237E+03  0.28380226158E+03  0.90998841116E+02 0.  0.
          5    1    3    3  502    0 -0.29027599517E+02  0.77770817995E+02  0.54391046048E+03  0.55022446609E+03  0.41800000000E+01 0. -1.
         -5    1    3    3    0  502 -0.13599340011E+02  0.10241414843E+02  0.12352959867E+01  0.17573473842E+02  0.41800000000E+01 0. -1.
        -11    1    4    4    0    0  0.10966641873E+02  0.10098193650E+02  0.22320611785E+01  0.15073912766E+02  0.00000000000E+00 0.  1.
         11    1    4    4    0    0  0.31660297654E+02 -0.98110426488E+02  0.24816707119E+03  0.26872834881E+03  0.00000000000E+00 0. -1.
</event>
<event>
 8    1  0.7232317E-009  0.1034151E+03  0.7561462E-02  0.1273274E+00
         -1   -1    0    0    0  501 -0.00000000000E+00  0.00000000000E+00  0.32987433939E+02  0.32987433939E+02  0.00000000000E+00 0.  1.
          1   -1    0    0  501    0  0.00000000000E+00 -0.00000000000E+00 -0.48662579261E+03  0.48662579261E+03  0.00000000000E+00 0. -1.
         25    2    1    2    0    0  0.13627179809E+02 -0.53206243573E+02 -0.33697733987E+03  0.36361781894E+03  0.12509031248E+03 0.  0.
         23    2    1    2    0    0 -0.13627179809E+02  0.53206243573E+02 -0.11666101880E+03  0.15599540762E+03  0.87796181607E+02 0.  0.
          5    1    3    3  502    0  0.29143918643E+02  0.35585747087E+02 -0.10502575806E+03  0.11473271393E+03  0.41800000000E+01 0.  1.
         -5    1    3    3    0  502 -0.15516738835E+02 -0.88791990659E+02 -0.23195158181E+03  0.24888510501E+03  0.41800000000E+01 0.  1.
        -11    1    4    4    0    0  0.15926349669E+02  0.24411002762E+02 -0.11049538966E+03  0.11427500517E+03  0.00000000000E+00 0. -1.
         11    1    4    4    0    0 -0.29553529477E+02  0.28795240811E+02 -0.61656291435E+01  0.41720402451E+02  0.00000000000E+00 0.  1.
</event>
<event>
 8    1  0.7232317E-009  0.1037769E+03  0.7561462E-02  0.1272548E+00
         -3   -1    0    0    0  501 -0.00000000000E+00  0.00000000000E+00  0.13667173112E+02  0.13667173112E+02  0.00000000000E+00 0.  1.
          3   -1    0    0  501    0  0.00000000000E+00 -0.00000000000E+00 -0.92088163349E+03  0.92088163349E+03  0.00000000000E+00 0. -1.
         25    2    1    2    0    0 -0.19385309739E+02 -0.65918818043E+01 -0.44096666715E+03  0.45881723111E+03  0.12506960818E+03 0.  0.
         23    2    1    2    0    0  0.19385309739E+02  0.65918818043E+01 -0.46624779323E+03  0.47573157548E+03  0.92272878390E+02 0.  0.
          5    1    3    3  502    0 -0.50780334860E+02 -0.41727960681E+02 -0.35148160123E+03  0.35759845290E+03  0.41800000000E+01 0.  1.
         -5    1    3    3    0  502  0.31395025121E+02  0.35136078877E+02 -0.89485065918E+02  0.10121877822E+03  0.41800000000E+01 0.  1.
        -11    1    4    4    0    0 -0.21432901031E+02 -0.31804287383E+02 -0.17749339128E+03  0.18158960843E+03  0.00000000000E+00 0.  1.
         11    1    4    4    0    0  0.40818210770E+02  0.38396169187E+02 -0.28875440194E+03  0.29414196705E+03  0.00000000000E+00 0. -1.
</event>
<event>
 8    1  0.7232317E-009  0.1385809E+03  0.7561462E-02  0.1215251E+00
          2   -1    0    0  501    0  0.00000000000E+00  0.00000000000E+00  0.13079980428E+04  0.13079980428E+04  0.00000000000E+00 0. -1.
         -2   -1    0    0    0  501 -0.00000000000E+00 -0.00000000000E+00 -0.18598178378E+02  0.18598178378E+02  0.00000000000E+00 0.  1.
         25    2    1    2    0    0  0.36938494403E+02  0.10356311243E+03  0.77926151816E+03  0.79686005135E+03  0.12509059567E+03 0.  0.
         23    2    1    2    0    0 -0.36938494403E+02 -0.10356311243E+03  0.51013834630E+03  0.52973616987E+03  0.91046727981E+02 0.  0.
          5    1    3    3  502    0  0.74113132100E+02  0.79891370241E+02  0.67248752326E+03  0.68127258035E+03  0.41800000000E+01 0. -1.
         -5    1    3    3    0  502 -0.37174637697E+02  0.23671742187E+02  0.10677399490E+03  0.11558747100E+03  0.41800000000E+01 0. -1.
        -11    1    4    4    0    0  0.14840096018E+02 -0.14095307843E+02  0.19302770456E+02  0.28133664893E+02  0.00000000000E+00 0.  1.
         11    1    4    4    0    0 -0.51778590421E+02 -0.89467804585E+02  0.49083557584E+03  0.50160250497E+03  0.00000000000E+00 0. -1.
</event>
<event>
 8    1  0.7232317E-009  0.8733653E+02  0.7561462E-02  0.1309433E+00
         -1   -1    0    0    0  501 -0.00000000000E+00  0.00000000000E+00  0.56553377737E+02  0.56553377737E+02  0.00000000000E+00 0.  1.
          1   -1    0    0  501    0  0.00000000000E+00 -0.00000000000E+00 -0.34501081152E+03  0.34501081152E+03  0.00000000000E+00 0. -1.
         25    2    1    2    0    0  0.52819125568E+02  0.10587403122E+02 -0.25602344677E+03  0.28998608699E+03  0.12506787046E+03 0.  0.
         23    2    1    2    0    0 -0.52819125568E+02 -0.10587403122E+02 -0.32433987013E+02  0.11157810227E+03  0.92172426795E+02 0.  0.
          5    1    3    3  502    0 -0.81764381216E+01 -0.30693718295E+02 -0.18441205278E+03  0.18717434678E+03  0.41800000000E+01 0. -1.
         -5    1    3    3    0  502  0.60995563690E+02  0.41281121417E+02 -0.71611393993E+02  0.10281174021E+03  0.41800000000E+01 0. -1.
        -11    1    4    4    0    0 -0.57652321908E+02 -0.47227590799E+00 -0.59153349352E+02  0.82602251819E+02  0.00000000000E+00 0. -1.
         11    1    4    4    0    0  0.48331963400E+01 -0.10115127214E+02  0.26719362339E+02  0.28975850449E+02  0.00000000000E+00 0.  1.
</event>
<event>
 8    1  0.7232317E-009  0.1888146E+03  0.7561462E-02  0.1159535E+00
         -2   -1    0    0    0  501 -0.00000000000E+00  0.00000000000E+00  0.39774100473E+02  0.39774100473E+02  0.00000000000E+00 0.  1.
          2   -1    0    0  501    0  0.00000000000E+00 -0.00000000000E+00 -0.10388917773E+04  0.10388917773E+04  0.00000000000E+00 0. -1.
         25    2    1    2    0    0 -0.54276759607E+01 -0.17155964355E+03 -0.51006573148E+03  0.55251676558E+03  0.12508219239E+03 0.  0.
         23    2    1    2    0    0  0.54276759607E+01  0.17155964355E+03 -0.48905194531E+03  0.52614911216E+03  0.90547843999E+02 0.  0.
          5    1    3    3  502    0  0.44118207705E+02 -0.12328861216E+03 -0.23706153353E+03  0.27085446502E+03  0.41800000000E+01 0. -1.
         -5    1    3    3    0  502 -0.49545883666E+02 -0.48271031387E+02 -0.27300419795E+03  0.28166230056E+03  0.41800000000E+01 0. -1.
        -11    1    4    4    0    0 -0.11475966372E+02  0.11081616662E+02 -0.63173886749E+01  0.17158363316E+02  0.00000000000E+00 0.  1.
         11    1    4    4    0    0  0.16903642333E+02  0.16047802689E+03 -0.48273455664E+03  0.50899074884E+03  0.00000000000E+00 0. -1.
</event>
<event>
 8    1  0.7232317E-009  0.1464507E+03  0.7561462E-02  0.1204903E+00
         -2   -1    0    0    0  501 -0.00000000000E+00  0.00000000000E+00  0.96385997806E+02  0.96385997806E+02  0.00000000000E+00 0. -1.
          2   -1    0    0  501    0  0.00000000000E+00 -0.00000000000E+00 -0.30871639136E+03  0.30871639136E+03  0.00000000000E+00 0.  1.
         25    2    1    2    0    0 -0.86782881658E+02 -0.10097315085E+03 -0.10780985855E+03  0.21212457949E+03  0.12508807250E+03 0.  0.
         23    2    1    2    0    0  0.86782881658E+02  0.10097315085E+03 -0.10452053501E+03  0.19297780968E+03  0.92677111786E+02 0.  0.
          5    1    3    3  502    0 -0.85209794969E+02 -0.97283564443E+02 -0.28359543297E+02  0.13246334272E+03  0.41800000000E+01 0. -1.
         -5    1    3    3    0  502 -0.15730866884E+01 -0.36895864034E+01 -0.79450315249E+02  0.79661236764E+02  0.41800000000E+01 0. -1.
        -11    1    4    4    0    0  0.91593499112E+02  0.45931699574E+02 -0.88652596967E+02  0.13549307382E+03  0.00000000000E+00 0.  1.
         11    1    4    4    0    0 -0.48106174538E+01  0.55041451273E+02 -0.15867938040E+02  0.57484735853E+02  0.00000000000E+00 0. -1.
</event>
<event>
 8    1  0.7232317E-009  0.1505616E+03  0.7561462E-02  0.1199785E+00
         -3   -1    0    0    0  501 -0.00000000000E+00  0.00000000000E+00  0.92879334254E+03  0.92879334254E+03  0.00000000000E+00 0.  1.
          3   -1    0    0  501    0  0.00000000000E+00 -0.00000000000E+00 -0.32152294891E+02  0.32152294891E+02  0.00000000000E+00 0. -1.
         25    2    1    2    0    0 -0.83902933851E+02 -0.70727334922E+02  0.25987005119E+03  0.30858074887E+03  0.12509027483E+03 0.  0.
         23    2    1    2    0    0  0.83902933851E+02  0.70727334922E+02  0.63677099646E+03  0.65236488856E+03  0.89780775640E+02 0.  0.
          5    1    3    3  502    0 -0.10423244964E+03 -0.16556105523E+02  0.19335178380E+03  0.22031997841E+03  0.41800000000E+01 0.  1.
         -5    1    3    3    0  502  0.20329515787E+02 -0.54171229398E+02  0.66518267385E+02  0.88260770462E+02  0.41800000000E+01 0.  1.
        -11    1    4    4    0    0 -0.16457482853E+02  0.38907336002E+01  0.38295702139E+02  0.41863436936E+02  0.00000000000E+00 0. -1.
         11    1    4    4    0    0  0.10036041670E+03  0.66836601322E+02  0.59847529432E+03  0.61050145162E+03  0.00000000000E+00 0.  1.
</event>
<event>
 8    1  0.7232317E-009  0.5505012E+02  0.7561462E-02  0.1419862E+00
         -2   -1    0    0    0  501 -0.00000000000E+00  0.00000000000E+00  0.17894310545E+04  0.17894310545E+04  0.00000000000E+00 0.  1.
          2   -1    0    0  501    0  0.00000000000E+00 -0.00000000000E+00 -0.14040757816E+02  0.14040757816E+02  0.00000000000E+00 0. -1.
         25    2    1    2    0    0  0.19350863852E+02 -0.18228681748E+02  0.15895759746E+04  0.15947121628E+04  0.12509341498E+03 0.  0.
         23    2    1    2    0    0 -0.19350863852E+02  0.18228681748E+02  0.18581432212E+03  0.20875964952E+03  0.91361305788E+02 0.  0.
          5    1    3    3  502    0  0.35592048215E+01 -0.81974943740E+01  0.15561362755E+04  0.15561675512E+04  0.41800000000E+01 0. -1.
         -5    1    3    3    0  502  0.15791659031E+02 -0.10031187374E+02  0.33439699087E+02  0.38544611687E+02  0.41800000000E+01 0. -1.
        -11    1    4    4    0    0 -0.15462120930E+02 -0.29431552580E+02  0.13479356611E+03  0.13883298936E+03  0.00000000000E+00 0.  1.
         11    1    4    4    0    0 -0.38887429224E+01  0.47660234327E+02  0.51020756009E+02  0.69926660162E+02  0.00000000000E+00 0. -1.
</event>
<event>
 8    1  0.7232317E-009  0.8219195E+02  0.7561462E-02  0.1322944E+00
         -2   -1    0    0    0  501 -0.00000000000E+00  0.00000000000E+00  0.70848711671E+02  0.70848711671E+02  0.00000000000E+00 0.  1.
          2   -1    0    0  501    0  0.00000000000E+00 -0.00000000000E+00 -0.18387665735E+03  0.18387665735E+03  0.00000000000E+00 0. -1.
         25    2    1    2    0    0 -0.11457085877E+02  0.96242176075E+01 -0.10110848307E+03  0.16153420041E+03  0.12508589917E+03 0.  0.
         23    2    1    2    0    0  0.11457085877E+02 -0.96242176075E+01 -0.11919462605E+02  0.93191168612E+02  0.91206523545E+02 0.  0.
          5    1    3    3  502    0 -0.46056525912E+02  0.15540098350E+02 -0.11392595606E+03  0.12393261920E+03  0.41800000000E+01 0. -1.
         -5    1    3    3    0  502  0.34599440035E+02 -0.59158807429E+01  0.12817472991E+02  0.37601581211E+02  0.41800000000E+01 0. -1.
        -11    1    4    4    0    0 -0.25105594275E+02  0.20862076547E+02  0.17691491510E+02  0.37128236877E+02  0.00000000000E+00 0.  1.
         11    1    4    4    0    0  0.36562680152E+02 -0.30486294154E+02 -0.29610954115E+02  0.56062931735E+02  0.00000000000E+00 0. -1.
</event>
<event>
 8    1  0.7232317E-009  0.1374058E+03  0.7561462E-02  0.1216863E+00
         -4   -1    0    0    0  501 -0.00000000000E+00  0.00000000000E+00  0.14277993418E+03  0.14277993418E+03  0.00000000000E+00 0. -1.
          4   -1    0    0  501    0  0.00000000000E+00 -0.00000000000E+00 -0.22520887578E+03  0.22520887578E+03  0.00000000000E+00 0.  1.
         25    2    1    2    0    0 -0.50675382627E+02 -0.85477268001E+02 -0.14782512480E+03  0.21765615093E+03  0.12509026647E+03 0.  0.
         23    2    1    2    0    0  0.50675382627E+02  0.85477268001E+02  0.65396183197E+02  0.15033265904E+03  0.91917842920E+02 0.  0.
          5    1    3    3  502    0 -0.86026460069E+02 -0.27085405911E+02 -0.96503484998E+02  0.13215356999E+03  0.41800000000E+01 0.  1.
         -5    1    3    3    0  502  0.35351077442E+02 -0.58391862090E+02 -0.51321639802E+02  0.85502580935E+02  0.41800000000E+01 0.  1.
        -11    1    4    4    0    0  0.61775431498E+02  0.84935473644E+02  0.79969722177E+02  0.13200528431E+03  0.00000000000E+00 0. -1.
         11    1    4    4    0    0 -0.11100048872E+02  0.54179435719E+00 -0.14573538980E+02  0.18327374730E+02  0.00000000000E+00 0.  1.
</event>
<event>
 8    1  0.7232317E-009  0.3263278E+03  0.7561462E-02  0.1072773E+00
         -1   -1    0    0    0  501 -0.00000000000E+00  0.00000000000E+00  0.82612270091E+03  0.82612270091E+03  0.00000000000E+00 0.  1.
          1   -1    0    0  501    0  0.00000000000E+00 -0.00000000000E+00 -0.16685347497E+03  0.16685347497E+03  0.00000000000E+00 0. -1.
         25    2    1    2    0    0 -0.30391626357E+03 -0.89247980564E+02  0.12098009503E+03  0.36140644382E+03  0.12509251354E+03 0.  0.
         23    2    1    2    0    0  0.30391626357E+03  0.89247980564E+02  0.53828913091E+03  0.63156973206E+03  0.93780812031E+02 0.  0.
          5    1    3    3  502    0 -0.26688336368E+03 -0.10074752348E+03  0.64050434352E+02  0.29239822817E+03  0.41800000000E+01 0.  1.
         -5    1    3    3    0  502 -0.37032899888E+02  0.11499542921E+02  0.56929660680E+02  0.69008215646E+02  0.41800000000E+01 0.  1.
        -11    1    4    4    0    0  0.14626379041E+03 -0.18527327729E+01  0.27450095651E+03  0.31104228672E+03  0.00000000000E+00 0.  1.
         11    1    4    4    0    0  0.15765247317E+03  0.91100713337E+02  0.26378817440E+03  0.32052744534E+03  0.00000000000E+00 0. -1.
</event>
<event>
 8    1  0.7232317E-009  0.1220065E+03  0.7561462E-02  0.1239823E+00
         -2   -1    0    0    0  501 -0.00000000000E+00  0.00000000000E+00  0.76557407409E+02  0.76557407409E+02  0.00000000000E+00 0. -1.
          2   -1    0    0  501    0  0.00000000000E+00 -0.00000000000E+00 -0.22338342722E+03  0.22338342722E+03  0.00000000000E+00 0.  1.
         25    2    1    2    0    0 -0.45726515476E+02  0.46424708004E+02 -0.44456844648E+02  0.14788519055E+03  0.12508977103E+03 0.  0.
         23    2    1    2    0    0  0.45726515476E+02 -0.46424708004E+02 -0.10236917516E+03  0.15205564408E+03  0.91625886863E+02 0.  0.
          5    1    3    3  502    0 -0.17638745727E+02  0.86742439773E+02 -0.13445759004E+02  0.89630558650E+02  0.41800000000E+01 0.  1.
         -5    1    3    3    0  502 -0.28087769749E+02 -0.40317731769E+02 -0.31011085644E+02  0.58254631895E+02  0.41800000000E+01 0.  1.
        -11    1    4    4    0    0 -0.10879123454E+02 -0.48236033735E+02 -0.73238674876E+02  0.88368398057E+02  0.00000000000E+00 0.  1.
         11    1    4    4    0    0  0.56605638929E+02  0.18113257307E+01 -0.29130500287E+02  0.63687246027E+02  0.00000000000E+00 0. -1.
</event>
<event>
 8    1  0.7232317E-009  0.1386581E+03  0.7561462E-02  0.1215146E+00
          1   -1    0    0  501    0  0.00000000000E+00  0.00000000000E+00  0.38169718148E+02  0.38169718148E+02  0.00000000000E+00 0. -1.
         -1   -1    0    0    0  501 -0.00000000000E+00 -0.00000000000E+00 -0.57455248498E+03  0.57455248498E+03  0.00000000000E+00 0.  1.
         25    2    1    2    0    0 -0.70273514550E+02 -0.71327364457E+02 -0.26392522258E+03  0.30875475590E+03  0.12508803463E+03 0.  0.
         23    2    1    2    0    0  0.70273514550E+02  0.71327364457E+02 -0.27245754425E+03  0.30396744723E+03  0.90206074002E+02 0.  0.
          5    1    3    3  502    0 -0.80402167473E+02 -0.26496075973E+01 -0.19434138922E+03  0.21037484859E+03  0.41800000000E+01 0. -1.
         -5    1    3    3    0  502  0.10128652923E+02 -0.68677756860E+02 -0.69583833361E+02  0.98379907311E+02  0.41800000000E+01 0. -1.
        -11    1    4    4    0    0  0.87775207391E+02  0.57822405385E+02 -0.17589887847E+03  0.20491054888E+03  0.00000000000E+00 0.  1.
         11    1    4    4    0    0 -0.17501692841E+02  0.13504959072E+02 -0.96558665785E+02  0.99056898346E+02  0.00000000000E+00 0. -1.
</event>
<event>
 8    1  0.7232317E-009  0.1084970E+03  0.7561462E-02  0.1263379E+00
         -2   -1    0    0    0  501 -0.00000000000E+00  0.00000000000E+00  0.44279167560E+02  0.44279167560E+02  0.00000000000E+00 0.  1.
          2   -1    0    0  501    0  0.00000000000E+00 -0.00000000000E+00 -0.30902543074E+03  0.30902543074E+03  0.00000000000E+00 0. -1.
         25    2    1    2    0    0 -0.38041553165E+02  0.14787877117E+02 -0.17662663721E+03  0.22024534412E+03  0.12508078014E+03 0.  0.
         23    2    1    2    0    0  0.38041553165E+02 -0.14787877117E+02 -0.88119625972E+02  0.13305925418E+03  0.90960736385E+02 0.  0.
          5    1    3    3  502    0 -0.22212389290E+02 -0.48566279564E+02 -0.12788677770E+03  0.13865271025E+03  0.41800000000E+01 0. -1.
         -5    1    3    3    0  502 -0.15829163875E+02  0.63354156680E+02 -0.48739859505E+02  0.81592633873E+02  0.41800000000E+01 0. -1.
        -11    1    4    4    0    0  0.12467201501E+02 -0.51645658418E+02 -0.35432962649E+02  0.63860786002E+02  0.00000000000E+00 0.  1.
         11    1    4    4    0    0  0.25574351664E+02  0.36857781302E+02 -0.52686663324E+02  0.69198468174E+02  0.00000000000E+00 0. -1.
</event>
<event>
 8    1  0.7232317E-009  0.1207105E+03  0.7561462E-02  0.1241930E+00
          2   -1    0    0  501    0  0.00000000000E+00  0.00000000000E+00  0.47883146547E+03  0.47883146547E+03  0.00000000000E+00 0. -1.
         -2   -1    0    0    0  501 -0.00000000000E+00 -0.00000000000E+00 -0.32662289600E+02  0.32662289600E+02  0.00000000000E+00 0.  1.
         25    2    1    2    0    0 -0.22004757772E+02  0.52704276436E+02  0.25321856929E+03  0.28814726570E+03  0.12508897942E+03 0.  0.
         23    2    1    2    0    0  0.22004757772E+02 -0.52704276436E+02  0.19295060658E+03  0.22334648938E+03  0.96911132583E+02 0.  0.
          5    1    3    3  502    0  0.23880133888E+02 -0.32486477757E+02  0.80367088868E+02  0.90010962692E+02  0.41800000000E+01 0. -1.
         -5    1    3    3    0  502 -0.45884891661E+02  0.85190754193E+02  0.17285148043E+03  0.19813630300E+03  0.41800000000E+01 0. -1.
        -11    1    4    4    0    0 -0.52579126668E+01 -0.71004082532E+02  0.86973914207E+02  0.11239967586E+03  0.00000000000E+00 0.  1.
         11    1    4    4    0    0  0.27262670439E+02  0.18299806096E+02  0.10597669237E+03  0.11094681351E+03  0.00000000000E+00 0. -1.
</event>
<event>
 8    1  0.7232317E-009  0.1516078E+03  0.7561462E-02  0.1198511E+00
         -2   -1    0    0    0  501 -0.00000000000E+00  0.00000000000E+00  0.24910363722E+02  0.24910363722E+02  0.00000000000E+00 0.  1.
          2   -1    0    0  501    0  0.00000000000E+00 -0.00000000000E+00 -0.14343751593E+04  0.14343751593E+04  0.00000000000E+00 0. -1.
         25    2    1    2    0    0 -0.12000159126E+03 -0.57062088426E+02 -0.10407131571E+04  0.10565924668E+04  0.12508917517E+03 0.  0.
         23    2    1    2    0    0  0.12000159126E+03  0.57062088426E+02 -0.36875163846E+03  0.40269305618E+03  0.92344262350E+02 0.  0.
          5    1    3    3  502    0 -0.75632747913E+01 -0.55244747889E+02 -0.17813383470E+03  0.18670383166E+03  0.41800000000E+01 0. -1.
         -5    1    3    3    0  502 -0.11243831647E+03 -0.18173405374E+01 -0.86257932243E+03  0.86988863518E+03  0.41800000000E+01 0. -1.
        -11    1    4    4    0    0  0.45284669945E+02  0.33820558344E+02 -0.27418980667E+03  0.27995460628E+03  0.00000000000E+00 0. -1.
         11    1    4    4    0    0  0.74716921317E+02  0.23241530083E+02 -0.94561831795E+02  0.12273844990E+03  0.00000000000E+00 0.  1.
</event>
<event>
 8    1  0.7232317E-009  0.1230748E+03  0.7561462E-02  0.1238109E+00
         -1   -1    0    0    0  501 -0.00000000000E+00  0.00000000000E+00  0.27261625160E+03  0.27261625160E+03  0.00000000000E+00 0.  1.
          1   -1    0    0  501    0  0.00000000000E+00 -0.00000000000E+00 -0.72883971537E+02  0.72883971537E+02  0.00000000000E+00 0. -1.
         25    2    1    2    0    0  0.54467670722E+02  0.34673507837E+02  0.17919639235E+03  0.22787608067E+03  0.12508869577E+03 0.  0.
         23    2    1    2    0    0 -0.54467670722E+02 -0.34673507837E+02  0.20535887713E+02  0.11762414247E+03  0.96149554902E+02 0.  0.
          5    1    3    3  502    0  0.87686231830E+02 -0.11193242103E+01  0.13940272449E+03  0.16474440851E+03  0.41800000000E+01 0. -1.
         -5    1    3    3    0  502 -0.33218561108E+02  0.35792832047E+02  0.39793667863E+02  0.63131672163E+02  0.41800000000E+01 0. -1.
        -11    1    4    4    0    0 -0.37489306676E+02  0.26467623995E+02 -0.10362534331E+02  0.47046417002E+02  0.00000000000E+00 0. -1.
         11    1    4    4    0    0 -0.16978364047E+02 -0.61141131832E+02  0.30898422044E+02  0.70577725468E+02  0.00000000000E+00 0.  1.
</event>
<event>
 8    1  0.7232317E-009  0.1399760E+03  0.7561462E-02  0.1213361E+00
         -2   -1    0    0    0  501 -0.00000000000E+00  0.00000000000E+00  0.17165535991E+03  0.17165535991E+03  0.00000000000E+00 0. -1.
          2   -1    0    0  501    0  0.00000000000E+00 -0.00000000000E+00 -0.17026203048E+03  0.17026203048E+03  0.00000000000E+00 0.  1.
         25    2    1    2    0    0  0.41228195723E+02  0.12324937650E+03  0.35222670835E+01  0.18041591546E+03  0.12508926115E+03 0.  0.
         23    2    1    2    0    0 -0.41228195723E+02 -0.12324937650E+03 -0.21289376464E+01  0.16150147493E+03  0.95854165791E+02 0.  0.
          5    1    3    3  502    0  0.25098135119E+02  0.11544794481E+03  0.51561675891E+02  0.12897373053E+03  0.41800000000E+01 0.  1.
         -5    1    3    3    0  502  0.16130060605E+02  0.78014316898E+01 -0.48039408807E+02  0.51442184927E+02  0.41800000000E+01 0.  1.
        -11    1    4    4    0    0 -0.29336005950E+02 -0.12399732971E+02 -0.32957552663E+02  0.45831811009E+02  0.00000000000E+00 0.  1.
         11    1    4    4    0    0 -0.11892189773E+02 -0.11084964353E+03  0.30828615017E+02  0.11566966392E+03  0.00000000000E+00 0. -1.
</event>
<event>
 8    1  0.7232317E-009  0.7715175E+02  0.7561462E-02  0.1337334E+00
          2   -1    0    0  501    0  0.00000000000E+00  0.00000000000E+00  0.67859603115E+03  0.67859603115E+03  0.00000000000E+00 0.  1.
         -2   -1    0    0    0  501 -0.00000000000E+00 -0.00000000000E+00 -0.39587218377E+02  0.39587218377E+02  0.00000000000E+00 0. -1.
         25    2    1    2    0    0  0.97537280745E+01  0.24801159998E+02  0.60401897787E+03  0.61741162935E+03  0.12509181300E+03 0.  0.
         23    2    1    2    0    0 -0.97537280745E+01 -0.24801159998E+02  0.34989834902E+02  0.10077162018E+03  0.90666411300E+02 0.  0.
          5    1    3    3  502    0 -0.29579014416E+02  0.19509779846E+02  0.54500289785E+03  0.54616955304E+03  0.41800000000E+01 0.  1.
         -5    1    3    3    0  502  0.39332742490E+02  0.52913801518E+01  0.59016080018E+02  0.71242076306E+02  0.41800000000E+01 0.  1.
        -11    1    4    4    0    0  0.11347760057E+02  0.23451417311E+02 -0.13359854797E+02  0.29278428107E+02  0.00000000000E+00 0. -1.
         11    1    4    4    0    0 -0.21101488131E+02 -0.48252577309E+02  0.48349689699E+02  0.71493192070E+02  0.00000000000E+00 0.  1.
</event>
<event>
 8    1  0.7232317E-009  0.1661401E+03  0.7561462E-02  0.1181934E+00
          1   -1    0    0  501    0  0.00000000000E+00  0.00000000000E+00  0.39855495231E+03  0.39855495231E+03  0.00000000000E+00 0. -1.
         -1   -1    0    0    0  501 -0.00000000000E+00 -0.00000000000E+00 -0.92875600369E+02  0.92875600369E+02  0.00000000000E+00 0.  1.
         25    2    1    2    0    0  0.97033119411E+02  0.12571586636E+03  0.18062686593E+03  0.27109778128E+03  0.12509211408E+03 0.  0.
         23    2    1    2    0    0 -0.97033119411E+02 -0.12571586636E+03  0.12505248602E+03  0.22033277140E+03  0.87684095340E+02 0.  0.
          5    1    3    3  502    0  0.29732364819E+02  0.49142374719E+02 -0.65077862143E+01  0.57955243008E+02  0.41800000000E+01 0. -1.
         -5    1    3    3    0  502  0.67300754593E+02  0.76573491639E+02  0.18713465214E+03  0.21314253827E+03  0.41800000000E+01 0. -1.
        -11    1    4    4    0    0 -0.10347991283E+03 -0.92409534086E+02  0.12449380589E+03  0.18640365354E+03  0.00000000000E+00 0. -1.
         11    1    4    4    0    0  0.64467934234E+01 -0.33306332272E+02  0.55868013126E+00  0.33929117854E+02  0.00000000000E+00 0.  1.
</event>
<event>
 8    1  0.7232317E-009  0.2054041E+03  0.7561462E-02  0.1145258E+00
         -2   -1    0    0    0  501 -0.00000000000E+00  0.00000000000E+00  0.16394787241E+03  0.16394787241E+03  0.00000000000E+00 0.  1.
          2   -1    0    0  501    0  0.00000000000E+00 -0.00000000000E+00 -0.30119003223E+03  0.30119003223E+03  0.00000000000E+00 0. -1.
         25    2    1    2    0    0 -0.15035524645E+03  0.96683793372E+02 -0.14839301346E+03  0.26386280482E+03  0.12509451341E+03 0.  0.
         23    2    1    2    0    0  0.15035524645E+03 -0.96683793372E+02  0.11150853636E+02  0.20127509983E+03  0.91830649770E+02 0.  0.
          5    1    3    3  502    0 -0.16412260527E+03  0.54509472045E+02 -0.12585541307E+03  0.21392655165E+03  0.41800000000E+01 0. -1.
         -5    1    3    3    0  502  0.13767358822E+02  0.42174321326E+02 -0.22537600391E+02  0.49936253160E+02  0.41800000000E+01 0. -1.
        -11    1    4    4    0    0 -0.84818597450E+01 -0.55076238252E+01 -0.13079827420E+02  0.16533534113E+02  0.00000000000E+00 0. -1.
         11    1    4    4    0    0  0.15883710620E+03 -0.91176169547E+02  0.24230681056E+02  0.18474156571E+03  0.00000000000E+00 0.  1.
</event>
<event>
 8    1  0.7232317E-009  0.2892199E+03  0.7561462E-02  0.1090757E+00
         -2   -1    0    0    0  501 -0.00000000000E+00  0.00000000000E+00  0.48995382143E+02  0.48995382143E+02  0.00000000000E+00 0.  1.
          2   -1    0    0  501    0  0.00000000000E+00 -0.00000000000E+00 -0.18466240813E+04  0.18466240813E+04  0.00000000000E+00 0. -1.
         25    2    1    2    0    0 -0.27777005933E+03 -0.21836842733E+02 -0.10187561001E+04  0.10635528366E+04  0.12509033234E+03 0.  0.
         23    2    1    2    0    0  0.27777005933E+03  0.21836842733E+02 -0.77887259908E+03  0.83206662684E+03  0.89773561511E+02 0.  0.
          5    1    3    3  502    0 -0.63935979407E+02 -0.31999363236E+02 -0.12091402711E+03  0.14053271172E+03  0.41800000000E+01 0.  1.
         -5    1    3    3    0  502 -0.21383407992E+03  0.10162520503E+02 -0.89784207297E+03  0.92302012489E+03  0.41800000000E+01 0.  1.
        -11    1    4    4    0    0  0.18552545883E+03 -0.28370006351E+02 -0.49390411599E+03  0.52836145670E+03  0.00000000000E+00 0. -1.
         11    1    4    4    0    0  0.92244600491E+02  0.50206849083E+02 -0.28496848309E+03  0.30370517014E+03  0.00000000000E+00 0.  1.
</event>
<event>
 8    1  0.7232317E-009  0.7456768E+02  0.7561462E-02  0.1345215E+00
          2   -1    0    0  501    0  0.00000000000E+00  0.00000000000E+00  0.41242793704E+03  0.41242793704E+03  0.00000000000E+00 0. -1.
         -2   -1    0    0    0  501 -0.00000000000E+00 -0.00000000000E+00 -0.39791216692E+02  0.39791216692E+02  0.00000000000E+00 0.  1.
         25    2    1    2    0    0  0.37154343935E+02 -0.22286317287E+02  0.11353338420E+03  0.17440424414E+03  0.12509950374E+03 0.  0.
         23    2    1    2    0    0 -0.37154343935E+02  0.22286317287E+02  0.25910333615E+03  0.27781490959E+03  0.90385065001E+02 0.  0.
          5    1    3    3  502    0  0.39729171049E+02 -0.16099423706E+02 -0.15015547991E+02  0.45612909986E+02  0.41800000000E+01 0. -1.
         -5    1    3    3    0  502 -0.25748271137E+01 -0.61868935807E+01  0.12854893219E+03  0.12879133415E+03  0.41800000000E+01 0. -1.
        -11    1    4    4    0    0  0.27792994676E+02 -0.40428372375E+01  0.10186619413E+03  0.10566700806E+03  0.00000000000E+00 0. -1.
         11    1    4    4    0    0 -0.64947338611E+02  0.26329154524E+02  0.15723714202E+03  0.17214790153E+03  0.00000000000E+00 0.  1.
</event>
<event>
 8    1  0.7232317E-009  0.1017641E+03  0.7561462E-02  0.1276629E+00
          1   -1    0    0  501    0  0.00000000000E+00  0.00000000000E+00  0.66752216350E+03  0.66752216350E+03  0.00000000000E+00 0. -1.
         -1   -1    0    0    0  501 -0.00000000000E+00 -0.00000000000E+00 -0.19925801481E+02  0.19925801481E+02  0.00000000000E+00 0.  1.
         25    2    1    2    0    0  0.34614318775E+02 -0.14651465962E+02  0.39630684650E+03  0.41726487245E+03  0.12505215185E+03 0.  0.
         23    2    1    2    0    0 -0.34614318775E+02  0.14651465962E+02  0.25128951552E+03  0.27018309253E+03  0.91867656762E+02 0.  0.
          5    1    3    3  502    0  0.56013985222E+02 -0.56602598171E+02  0.19922818118E+03  0.21459441101E+03  0.41800000000E+01 0.  1.
         -5    1    3    3    0  502 -0.21399666447E+02  0.41951132210E+02  0.19707866532E+03  0.20267046144E+03  0.41800000000E+01 0.  1.
        -11    1    4    4    0    0 -0.41739048983E+02  0.35299084605E+02  0.23889455579E+03  0.24506893391E+03  0.00000000000E+00 0. -1.
         11    1    4    4    0    0  0.71247302075E+01 -0.20647618643E+02  0.12394959728E+02  0.25114158612E+02  0.00000000000E+00 0.  1.
</event>
<event>
 8    1  0.7232317E-009  0.1810530E+03  0.7561462E-02  0.1166788E+00
         -2   -1    0    0    0  501 -0.00000000000E+00  0.00000000000E+00  0.26993062384E+02  0.26993062384E+02  0.00000000000E+00 0.  1.
          2   -1    0    0  501    0  0.00000000000E+00 -0.00000000000E+00 -0.12474459178E+04  0.12474459178E+04  0.00000000000E+00 0. -1.
         25    2    1    2    0    0 -0.70888836829E+02 -0.12940048073E+03 -0.74817301041E+03  0.77277439473E+03  0.12509076723E+03 0.  0.
         23    2    1    2    0    0  0.70888836829E+02  0.12940048073E+03 -0.47227984504E+03  0.50166458549E+03  0.82761057867E+02 0.  0.
          5    1    3    3  502    0  0.35659811367E+02 -0.22678797649E+02 -0.15396976683E+03  0.15971885145E+03  0.41800000000E+01 0. -1.
         -5    1    3    3    0  502 -0.10654864820E+03 -0.10672168309E+03 -0.59420324358E+03  0.61305554328E+03  0.41800000000E+01 0. -1.
        -11    1    4    4    0    0  0.12158774543E+02  0.10413500858E+03 -0.30973804086E+03  0.32700090178E+03  0.00000000000E+00 0. -1.
         11    1    4    4    0    0  0.58730062287E+02  0.25265472156E+02 -0.16254180418E+03  0.17466368371E+03  0.00000000000E+00 0.  1.
</event>
<event>
 7    1  0.7232317E-009  0.7475025E+02  0.7561462E-02  0.1344646E+00
         -1   -1    0    0    0  501 -0.00000000000E+00  0.00000000000E+00  0.94553113904E+02  0.94553113904E+02  0.00000000000E+00 0.  1.
          1   -1    0    0  501    0  0.00000000000E+00 -0.00000000000E+00 -0.13480411168E+03  0.13480411168E+03  0.00000000000E+00 0. -1.
         23    2    1    2    0    0  0.24328930719E+02  0.32381762031E+01  0.15550933854E+02  0.90267662322E+02  0.85463656968E+02 0.  0.
          5    1    1    2  502    0  0.14227092164E+02 -0.17172710819E+02 -0.85393457443E+02  0.88356251179E+02  0.41800000000E+01 0.  1.
         -5    1    1    2    0  502 -0.38556022883E+02  0.13934534615E+02  0.29591525810E+02  0.50733312086E+02  0.41800000000E+01 0.  1.
        -11    1    3    3    0    0  0.54632292757E+02  0.69493914432E+01 -0.18944112954E+01  0.55105083681E+02  0.00000000000E+00 0. -1.
         11    1    3    3    0    0 -0.30303362038E+02 -0.37112152400E+01  0.17445345150E+02  0.35162578642E+02  0.00000000000E+00 0.  1.
</event>
<event>
 8    1  0.7232317E-009  0.1751159E+03  0.7561462E-02  0.1172615E+00
          1   -1    0    0  501    0  0.00000000000E+00  0.00000000000E+00  0.71350947890E+03  0.71350947890E+03  0.00000000000E+00 0. -1.
         -1   -1    0    0    0  501 -0.00000000000E+00 -0.00000000000E+00 -0.45851165017E+02  0.45851165017E+02  0.00000000000E+00 0.  1.
         25    2    1    2    0    0 -0.13700280389E+03 -0.44010111695E+02  0.35100973504E+03  0.39944835398E+03  0.12507795648E+03 0.  0.
         23    2    1    2    0    0  0.13700280389E+03  0.44010111695E+02  0.31664857885E+03  0.35991228994E+03  0.92541211128E+02 0.  0.
          5    1    3    3  502    0  0.23942002223E+02 -0.38600386176E+01  0.50277354254E+02  0.55976817696E+02  0.41800000000E+01 0.  1.
         -5    1    3    3    0  502 -0.16094480612E+03 -0.40150073077E+02  0.30073238078E+03  0.34347153628E+03  0.41800000000E+01 0.  1.
        -11    1    4    4    0    0  0.35406365187E+02  0.46035638234E+02  0.18316088691E+03  0.19214786280E+03  0.00000000000E+00 0. -1.
         11    1    4    4    0    0  0.10159643871E+03 -0.20255265386E+01  0.13348769193E+03  0.16776442714E+03  0.00000000000E+00 0.  1.
</event>
<event>
 8    1  0.7232317E-009  0.9618156E+02  0.7561462E-02  0.1288537E+00
         -1   -1    0    0    0  501 -0.00000000000E+00  0.00000000000E+00  0.61422198884E+02  0.61422198884E+02  0.00000000000E+00 0.  1.
          1   -1    0    0  501    0  0.00000000000E+00 -0.00000000000E+00 -0.25387350933E+03  0.25387350933E+03  0.00000000000E+00 0. -1.
         25    2    1    2    0    0  0.59288010254E+02 -0.12812431697E+02 -0.12210325240E+03  0.18503072158E+03  0.12509171482E+03 0.  0.
         23    2    1    2    0    0 -0.59288010254E+02  0.12812431697E+02 -0.70348058047E+02  0.13026498663E+03  0.91328478061E+02 0.  0.
          5    1    3    3  502    0  0.42817030201E+02  0.21963648301E+02  0.82943261488E+01  0.49009878272E+02  0.41800000000E+01 0.  1.
         -5    1    3    3    0  502  0.16470980052E+02 -0.34776079999E+02 -0.13039757855E+03  0.13602084331E+03  0.41800000000E+01 0.  1.
        -11    1    4    4    0    0  0.15773339189E+02  0.24750734838E+02 -0.44790682054E+01  0.29689377834E+02  0.00000000000E+00 0.  1.
         11    1    4    4    0    0 -0.75061349443E+02 -0.11938303140E+02 -0.65868989841E+02  0.10057560880E+03  0.00000000000E+00 0. -1.
</event>
<event>
 8    1  0.7232317E-009  0.9300487E+02  0.7561462E-02  0.1295734E+00
          2   -1    0    0  501    0  0.00000000000E+00  0.00000000000E+00  0.92245887971E+02  0.92245887971E+02  0.00000000000E+00 0. -1.
         -2   -1    0    0    0  501 -0.00000000000E+00 -0.00000000000E+00 -0.15279110944E+03  0.15279110944E+03  0.00000000000E+00 0.  1.
         25    2    1    2    0    0  0.40979399625E+01 -0.47383102084E+02 -0.31945526141E+02  0.13758614646E+03  0.12508988601E+03 0.  0.
         23    2    1    2    0    0 -0.40979399625E+01  0.47383102084E+02 -0.28599695329E+02  0.10745085095E+03  0.92009734933E+02 0.  0.
          5    1    3    3  502    0 -0.53182628385E+02  0.61871603635E+01 -0.23411212473E+02  0.58585238625E+02  0.41800000000E+01 0. -1.
         -5    1    3    3    0  502  0.57280568348E+02 -0.53570262448E+02 -0.85343136684E+01  0.79000907835E+02  0.41800000000E+01 0. -1.
        -11    1    4    4    0    0  0.10383185027E+02  0.25427240429E+02 -0.60299843226E+02  0.66260291127E+02  0.00000000000E+00 0.  1.
         11    1    4    4    0    0 -0.14481124989E+02  0.21955861655E+02  0.31700147898E+02  0.41190559825E+02  0.00000000000E+00 0. -1.
</event>
<event>
 8    1  0.7232317E-009  0.1202389E+03  0.7561462E-02  0.1242703E+00
          1   -1    0    0  501    0  0.00000000000E+00  0.00000000000E+00  0.18411197000E+03  0.18411197000E+03  0.00000000000E+00 0. -1.
         -1   -1    0    0    0  501 -0.00000000000E+00 -0.00000000000E+00 -0.14249417565E+03  0.14249417565E+03  0.00000000000E+00 0.  1.
         25    2    1    2    0    0 -0.33848389553E+02 -0.10094939069E+03 -0.33013404362E+02  0.16755316281E+03  0.12509070526E+03 0.  0.
         23    2    1    2    0    0  0.33848389553E+02  0.10094939069E+03  0.74631198717E+02  0.15905298284E+03  0.91605363223E+02 0.  0.
          5    1    3    3  502    0  0.10004365053E+02 -0.70525841037E+02 -0.71967456984E+02  0.10134480174E+03  0.41800000000E+01 0.  1.
         -5    1    3    3    0  502 -0.43852754606E+02 -0.30423549657E+02  0.38954052622E+02  0.66208361072E+02  0.41800000000E+01 0.  1.
        -11    1    4    4    0    0  0.28503544316E+02  0.20863982496E+02 -0.15316031389E+02  0.38501150914E+02  0.00000000000E+00 0.  1.
         11    1    4    4    0    0  0.53448452371E+01  0.80085408197E+02  0.89947230106E+02  0.12055183192E+03  0.00000000000E+00 0. -1.
</event>
<event>
 8    1  0.7232317E-009  0.1014226E+03  0.7561462E-02  0.1277333E+00
          3   -1    0    0  501    0  0.00000000000E+00  0.00000000000E+00  0.37258972822E+03  0.37258972822E+03  0.00000000000E+00 0. -1.
         -3   -1    0    0    0  501 -0.00000000000E+00 -0.00000000000E+00 -0.41066325381E+02  0.41066325381E+02  0.00000000000E+00 0.  1.
         25    2    1    2    0    0  0.54192665217E+02  0.14962561628E+02  0.21582807381E+03  0.25571323382E+03  0.12508707883E+03 0.  0.
         23    2    1    2    0    0 -0.54192665217E+02 -0.14962561628E+02  0.11569532902E+03  0.15794281978E+03  0.91650433436E+02 0.  0.
          5    1    3    3  502    0  0.79526486092E+02 -0.27678399050E+02  0.16046144409E+03  0.18126197396E+03  0.41800000000E+01 0.  1.
         -5    1    3    3    0  502 -0.25333820874E+02  0.42640960678E+02  0.55366629721E+02  0.74451259857E+02  0.41800000000E+01 0.  1.
        -11    1    4    4    0    0 -0.39452967935E+02 -0.28561780190E+02  0.12622180728E+03  0.13529322451E+03  0.00000000000E+00 0. -1.
         11    1    4    4    0    0 -0.14739697282E+02  0.13599218562E+02 -0.10526478254E+02  0.22649595270E+02  0.00000000000E+00 0.  1.
</event>
<event>
 8    1  0.7232317E-009  0.1145672E+03  0.7561462E-02  0.1252338E+00
          1   -1    0    0  501    0  0.00000000000E+00  0.00000000000E+00  0.17425476653E+04  0.17425476653E+04  0.00000000000E+00 0. -1.
         -1   -1    0    0    0  501 -0.00000000000E+00 -0.00000000000E+00 -0.14066657303E+02  0.14066657303E+02  0.00000000000E+00 0.  1.
         25    2    1    2    0    0 -0.23227744604E+02  0.42035866391E+02  0.15052542005E+04  0.15112061081E+04  0.12508857303E+03 0.  0.
         23    2    1    2    0    0  0.23227744604E+02 -0.42035866391E+02  0.22322680758E+03  0.24540821451E+03  0.89935765639E+02 0.  0.
          5    1    3    3  502    0  0.45256211755E+02 -0.39991813022E+01  0.76403958160E+03  0.76540059629E+03  0.41800000000E+01 0.  1.
         -5    1    3    3    0  502 -0.68483956359E+02  0.46035047694E+02  0.74121461886E+03  0.74580551185E+03  0.41800000000E+01 0.  1.
        -11    1    4    4    0    0  0.36476971921E+01 -0.68149427026E+02  0.13357195688E+03  0.14999705918E+03  0.00000000000E+00 0.  1.
         11    1    4    4    0    0  0.19580047412E+02  0.26113560634E+02  0.89654850705E+02  0.95411155326E+02  0.00000000000E+00 0. -1.
</event>
<event>
 8    1  0.7232317E-009  0.8908325E+02  0.7561462E-02  0.1305087E+00
         -3   -1    0    0    0  501 -0.00000000000E+00  0.00000000000E+00  0.38807971043E+02  0.38807971043E+02  0.00000000000E+00 0.  1.
          3   -1    0    0  501    0  0.00000000000E+00 -0.00000000000E+00 -0.32470730478E+03  0.32470730478E+03  0.00000000000E+00 0. -1.
         25    2    1    2    0    0 -0.16757322993E+02  0.17595098442E+02 -0.14240896802E+03  0.19109470876E+03  0.12508588321E+03 0.  0.
         23    2    1    2    0    0  0.16757322993E+02 -0.17595098442E+02 -0.14349036571E+03  0.17242056706E+03  0.92460648555E+02 0.  0.
          5    1    3    3  502    0 -0.63364857257E+02 -0.79921751467E+01 -0.11382237492E+03  0.13058325096E+03  0.41800000000E+01 0.  1.
         -5    1    3    3    0  502  0.46607534264E+02  0.25587273589E+02 -0.28586593109E+02  0.60511457804E+02  0.41800000000E+01 0.  1.
        -11    1    4    4    0    0  0.33999340276E+02  0.28100712639E+01 -0.89721550530E+01  0.35275362592E+02  0.00000000000E+00 0.  1.
         11    1    4    4    0    0 -0.17242017283E+02 -0.20405169706E+02 -0.13451821065E+03  0.13714520447E+03  0.00000000000E+00 0. -1.
</event>
<event>
 7    1  0.7232317E-009  0.8790204E+02  0.7561462E-02  0.1308013E+00
          1   -1    0    0  501    0  0.00000000000E+00  0.00000000000E+00  0.29074323566E+03  0.29074323566E+03  0.00000000000E+00 0. -1.
         -1   -1    0    0    0  501 -0.00000000000E+00 -0.00000000000E+00 -0.45876542284E+02  0.45876542284E+02  0.00000000000E+00 0.  1.
         23    2    1    2    0    0  0.19292033370E+02 -0.18960931709E+02  0.15671205749E+03  0.18114105494E+03  0.86727811805E+02 0.  0.
          5    1    1    2  502    0  0.44569295966E+02 -0.15502331617E+02  0.62439423862E+02  0.78376644995E+02  0.41800000000E+01 0. -1.
         -5    1    1    2    0  502 -0.63861329337E+02  0.34463263326E+02  0.25715212028E+02  0.77102078009E+02  0.41800000000E+01 0. -1.
        -11    1    3    3    0    0 -0.12424253116E+02 -0.20520837821E+02  0.29912321769E+01  0.24174662775E+02  0.00000000000E+00 0.  1.
         11    1    3    3    0    0  0.31716286487E+02  0.15599061111E+01  0.15372082531E+03  0.15696639216E+03  0.00000000000E+00 0. -1.
</event>
<event>
 8    1  0.7232317E-009  0.1345316E+03  0.7561462E-02  0.1220882E+00
         -2   -1    0    0    0  501 -0.00000000000E+00  0.00000000000E+00  0.27615562993E+02  0.27615562993E+02  0.00000000000E+00 0. -1.
          2   -1    0    0  501    0  0.00000000000E+00 -0.00000000000E+00 -0.13663715105E+04  0.13663715105E+04  0.00000000000E+00 0.  1.
         25    2    1    2    0    0 -0.57387446101E+02  0.11680622467E+03 -0.10385445825E+04  0.10541144183E+04  0.12508134863E+03 0.  0.
         23    2    1    2    0    0  0.57387446101E+02 -0.11680622467E+03 -0.30021136499E+03  0.33987265526E+03  0.91921406796E+02 0.  0.
          5    1    3    3  502    0 -0.92852582777E+01  0.99627923628E+01 -0.69005549288E+01  0.15829191744E+02  0.41800000000E+01 0.  1.
         -5    1    3    3    0  502 -0.48102187824E+02  0.10684343231E+03 -0.10316440276E+04  0.10382852265E+04  0.41800000000E+01 0.  1.
        -11    1    4    4    0    0  0.18249899025E+02 -0.47236912853E+01 -0.20710472100E+01  0.18964738605E+02  0.00000000000E+00 0. -1.
         11    1    4    4    0    0  0.39137547076E+02 -0.11208253339E+03 -0.29814031778E+03  0.32090791665E+03  0.00000000000E+00 0.  1.
</event>
<event>
 8    1  0.7232317E-009  0.1229865E+03  0.7561462E-02  0.1238250E+00
         -1   -1    0    0    0  501 -0.00000000000E+00  0.00000000000E+00  0.69502017253E+02  0.69502017253E+02  0.00000000000E+00 0.  1.
          1   -1    0    0  501    0  0.00000000000E+00 -0.00000000000E+00 -0.26749959980E+03  0.26749959980E+03  0.00000000000E+00 0. -1.
         25    2    1    2    0    0 -0.72715647286E+02  0.75561391787E+01 -0.15673664989E+03  0.21344622626E+03  0.12509297936E+03 0.  0.
         23    2    1    2    0    0  0.72715647286E+02 -0.75561391787E+01 -0.41260932650E+02  0.12355539079E+03  0.90657649600E+02 0.  0.
          5    1    3    3  502    0  0.32547496766E+02  0.10572290236E+02 -0.65637992362E+02  0.74141292867E+02  0.41800000000E+01 0. -1.
         -5    1    3    3    0  502 -0.10526314405E+03 -0.30161510575E+01 -0.91098657532E+02  0.13930493339E+03  0.41800000000E+01 0. -1.
        -11    1    4    4    0    0  0.36681587223E+02 -0.42343102645E+02 -0.47020377006E+02  0.73139544958E+02  0.00000000000E+00 0. -1.
         11    1    4    4    0    0  0.36034060064E+02  0.34786963467E+02  0.57594443560E+01  0.50415845834E+02  0.00000000000E+00 0.  1.
</event>
<event>
 8    1  0.7232317E-009  0.6396340E+02  0.7561462E-02  0.1381914E+00
          2   -1    0    0  501    0  0.00000000000E+00  0.00000000000E+00  0.10902951173E+03  0.10902951173E+03  0.00000000000E+00 0. -1.
         -2   -1    0    0    0  501 -0.00000000000E+00 -0.00000000000E+00 -0.11491328903E+03  0.11491328903E+03  0.00000000000E+00 0.  1.
         25    2    1    2    0    0 -0.80604001199E+01  0.26302994663E+02  0.49377257784E-01  0.12807745917E+03  0.12508803113E+03 0.  0.
         23    2    1    2    0    0  0.80604001199E+01 -0.26302994663E+02 -0.59331545586E+01  0.95865341588E+02  0.91641387028E+02 0.  0.
          5    1    3    3  502    0  0.35664514117E+02  0.30430830825E+02  0.44982179758E+02  0.65106542895E+02  0.41800000000E+01 0.  1.
         -5    1    3    3    0  502 -0.43724914237E+02 -0.41278361621E+01 -0.44932802501E+02  0.62970916278E+02  0.41800000000E+01 0.  1.
        -11    1    4    4    0    0  0.16345962351E+02 -0.12250808326E+02 -0.47232747319E+02  0.51460715202E+02  0.00000000000E+00 0.  1.
         11    1    4    4    0    0 -0.82855622312E+01 -0.14052186337E+02  0.41299592760E+02  0.44404626386E+02  0.00000000000E+00 0. -1.
</event>
<event>
 8    1  0.7232317E-009  0.8024632E+02  0.7561462E-02  0.1328354E+00
          1   -1    0    0  501    0  0.00000000000E+00  0.00000000000E+00  0.50135502034E+03  0.50135502034E+03  0.00000000000E+00 0. -1.
         -1   -1    0    0    0  501 -0.00000000000E+00 -0.00000000000E+00 -0.32622238096E+02  0.32622238096E+02  0.00000000000E+00 0.  1.
         25    2    1    2    0    0 -0.14792907599E+02  0.64485480088E+02  0.28804299297E+03  0.32092599878E+03  0.12509006212E+03 0.  0.
         23    2    1    2    0    0  0.14792907599E+02 -0.64485480088E+02  0.18068978928E+03  0.21305125965E+03  0.91459455680E+02 0.  0.
          5    1    3    3  502    0  0.13718224021E+02  0.26342360441E+02  0.26702675606E+03  0.26870591820E+03  0.41800000000E+01 0. -1.
         -5    1    3    3    0  502 -0.28511131620E+02  0.38143119647E+02  0.21016236911E+02  0.52220080587E+02  0.41800000000E+01 0. -1.
        -11    1    4    4    0    0  0.33280711189E+02 -0.41156835907E+02  0.32960316167E+02  0.62352813256E+02  0.00000000000E+00 0.  1.
         11    1    4    4    0    0 -0.18487803591E+02 -0.23328644181E+02  0.14772947311E+03  0.15069844640E+03  0.00000000000E+00 0. -1.
</event>
<event>
 8    1  0.7232317E-009  0.1206825E+03  0.7561462E-02  0.1241975E+00
         -2   -1    0    0    0  501 -0.00000000000E+00  0.00000000000E+00  0.18594787855E+03  0.18594787855E+03  0.00000000000E+00 0.  1.
          2   -1    0    0  501    0  0.00000000000E+00 -0.00000000000E+00 -0.92804564905E+02  0.92804564905E+02  0.00000000000E+00 0. -1.
         25    2    1    2    0    0 -0.47472316773E+02 -0.45537075295E+02  0.14690290262E+02  0.14208935474E+03  0.12508530696E+03 0.  0.
         23    2    1    2    0    0  0.47472316773E+02  0.45537075295E+02  0.78453023384E+02  0.13666308871E+03  0.90524454443E+02 0.  0.
          5    1    3    3  502    0 -0.31266513650E+02 -0.85016342536E+02 -0.12167184626E+02  0.91492546996E+02  0.41800000000E+01 0.  1.
         -5    1    3    3    0  502 -0.16205803123E+02  0.39479267241E+02  0.26857474888E+02  0.50596807747E+02  0.41800000000E+01 0.  1.
        -11    1    4    4    0    0  0.67985710595E+02  0.52760725122E+02  0.75936647075E+02  0.11476987989E+03  0.00000000000E+00 0.  1.
         11    1    4    4    0    0 -0.20513393822E+02 -0.72236498275E+01  0.25163763093E+01  0.21893208825E+02  0.00000000000E+00 0. -1.
</event>
<event>
 8    1  0.7232317E-009  0.1012189E+03  0.7561462E-02  0.1277753E+00
         -2   -1    0    0    0  501 -0.00000000000E+00  0.00000000000E+00  0.23753594941E+02  0.23753594941E+02  0.00000000000E+00 0.  1.
          2   -1    0    0  501    0  0.00000000000E+00 -0.00000000000E+00 -0.66583895328E+03  0.66583895328E+03  0.00000000000E+00 0. -1.
         25    2    1    2    0    0 -0.51690974742E+02  0.26177664134E+02 -0.42867030177E+03  0.45029284879E+03  0.12509274593E+03 0.  0.
         23    2    1    2    0    0  0.51690974742E+02 -0.26177664134E+02 -0.21341505657E+03  0.23929969943E+03  0.91439230135E+02 0.  0.
          5    1    3    3  502    0  0.26314692934E+02  0.31030345998E+02 -0.55153688730E+02  0.68664016904E+02  0.41800000000E+01 0.  1.
         -5    1    3    3    0  502 -0.78005667676E+02 -0.48526818642E+01 -0.37351661304E+03  0.38162883189E+03  0.41800000000E+01 0.  1.
        -11    1    4    4    0    0 -0.56598288837E+00 -0.30803059973E+02 -0.15380330423E+02  0.34434044263E+02  0.00000000000E+00 0.  1.
         11    1    4    4    0    0  0.52256957630E+02  0.46253958397E+01 -0.19803472615E+03  0.20486565517E+03  0.00000000000E+00 0. -1.
</event>
<event>
 8    1  0.7232317E-009  0.1643555E+03  0.7561462E-02  0.1183865E+00
          2   -1    0    0  501    0  0.00000000000E+00  0.00000000000E+00  0.74972661820E+02  0.74972661820E+02  0.00000000000E+00 0. -1.
         -2   -1    0    0    0  501 -0.00000000000E+00 -0.00000000000E+00 -0.44793103680E+03  0.44793103680E+03  0.00000000000E+00 0.  1.
         25    2    1    2    0    0 -0.81825650900E+02 -0.10970664565E+03 -0.12004007024E+03  0.22088099179E+03  0.12509120204E+03 0.  0.
         23    2    1    2    0    0  0.81825650900E+02  0.10970664565E+03 -0.25291830474E+03  0.30202270682E+03  0.92298761206E+02 0.  0.
          5    1    3    3  502    0  0.12690289211E+02 -0.85991836378E+02 -0.46048250234E+02  0.98455843471E+02  0.41800000000E+01 0.  1.
         -5    1    3    3    0  502 -0.94515940111E+02 -0.23714809274E+02 -0.73991820006E+02  0.12242514832E+03  0.41800000000E+01 0.  1.
        -11    1    4    4    0    0  0.42520339482E+02  0.91371729721E+02 -0.23385502812E+03  0.25464670907E+03  0.00000000000E+00 0.  1.
         11    1    4    4    0    0  0.39305311418E+02  0.18334915932E+02 -0.19063276616E+02  0.47375997754E+02  0.00000000000E+00 0. -1.
</event>
<event>
 8    1  0.7232317E-009  0.2784587E+03  0.7561462E-02  0.1096534E+00
          2   -1    0    0  501    0  0.00000000000E+00  0.00000000000E+00  0.14617661871E+04  0.14617661871E+04  0.00000000000E+00 0.  1.
         -2   -1    0    0    0  501 -0.00000000000E+00 -0.00000000000E+00 -0.57371240255E+02  0.57371240255E+02  0.00000000000E+00 0. -1.
         25    2    1    2    0    0 -0.25704759524E+03  0.73112413862E+02  0.77209362296E+03  0.82655694787E+03  0.12509570008E+03 0.  0.
         23    2    1    2    0    0  0.25704759524E+03 -0.73112413862E+02  0.63230132391E+03  0.69258047951E+03  0.91890506050E+02 0.  0.
          5    1    3    3  502    0 -0.11459902555E+03  0.86407766569E+02  0.28895668641E+03  0.32266496216E+03  0.41800000000E+01 0. -1.
         -5    1    3    3    0  502 -0.14244856968E+03 -0.13295352707E+02  0.48313693655E+03  0.50389198571E+03  0.41800000000E+01 0. -1.
        -11    1    4    4    0    0  0.15982410736E+03 -0.65357372156E+02  0.49431019687E+03  0.52360089966E+03  0.00000000000E+00 0.  1.
         11    1    4    4    0    0  0.97223487876E+02 -0.77550417070E+01  0.13799112704E+03  0.16897957986E+03  0.00000000000E+00 0. -1.
</event>
<event>
 8    1  0.7232317E-009  0.1326602E+03  0.7561462E-02  0.1223561E+00
          2   -1    0    0  501    0  0.00000000000E+00  0.00000000000E+00  0.87209595060E+03  0.87209595060E+03  0.00000000000E+00 0.  1.
         -2   -1    0    0    0  501 -0.00000000000E+00 -0.00000000000E+00 -0.24735495569E+02  0.24735495569E+02  0.00000000000E+00 0. -1.
         25    2    1    2    0    0 -0.62235204796E+02  0.72658420231E+02  0.34694349994E+03  0.38101267801E+03  0.12509357261E+03 0.  0.
         23    2    1    2    0    0  0.62235204796E+02 -0.72658420231E+02  0.50041695510E+03  0.51581876816E+03  0.80618892919E+02 0.  0.
          5    1    3    3  502    0 -0.20197520925E+02 -0.33938156161E+02  0.59428339345E+02  0.71476836895E+02  0.41800000000E+01 0.  1.
         -5    1    3    3    0  502 -0.42037683872E+02  0.10659657639E+03  0.28751516059E+03  0.30953584111E+03  0.41800000000E+01 0.  1.
        -11    1    4    4    0    0  0.72191922685E+02 -0.55322125260E+02  0.47422884214E+03  0.48287183182E+03  0.00000000000E+00 0.  1.
         11    1    4    4    0    0 -0.99567178883E+01 -0.17336294971E+02  0.26188112953E+02  0.32946936344E+02  0.00000000000E+00 0. -1.
</event>
<event>
 8    1  0.7232317E-009  0.1746982E+03  0.7561462E-02  0.1173035E+00
          2   -1    0    0  501    0  0.00000000000E+00  0.00000000000E+00  0.16840684121E+03  0.16840684121E+03  0.00000000000E+00 0. -1.
         -2   -1    0    0    0  501 -0.00000000000E+00 -0.00000000000E+00 -0.20368289946E+03  0.20368289946E+03  0.00000000000E+00 0.  1.
         25    2    1    2    0    0 -0.46118819026E+02  0.14173049944E+03 -0.31956310160E+01  0.19460829379E+03  0.12509075111E+03 0.  0.
         23    2    1    2    0    0  0.46118819026E+02 -0.14173049944E+03 -0.32080427229E+02  0.17748144688E+03  0.90862699919E+02 0.  0.
          5    1    3    3  502    0 -0.77703836645E+02  0.75348386486E+02 -0.35799980020E+02  0.11408057041E+03  0.41800000000E+01 0. -1.
         -5    1    3    3    0  502  0.31585017618E+02  0.66382112956E+02  0.32604349004E+02  0.80527723378E+02  0.41800000000E+01 0. -1.
        -11    1    4    4    0    0  0.54372114755E+02 -0.14761513250E+03 -0.42494389449E+02  0.16294884885E+03  0.00000000000E+00 0.  1.
         11    1    4    4    0    0 -0.82532957284E+01  0.58846330575E+01  0.10413962221E+02  0.14532598038E+02  0.00000000000E+00 0. -1.
</event>
<event>
 7    1  0.7232317E-009  0.8695111E+02  0.7561462E-02  0.1310408E+00
         -3   -1    0    0    0  501 -0.00000000000E+00  0.00000000000E+00  0.36592341836E+02  0.36592341836E+02  0.00000000000E+00 0.  1.
          3   -1    0    0  501    0  0.00000000000E+00 -0.00000000000E+00 -0.38111786768E+03  0.38111786768E+03  0.00000000000E+00 0. -1.
         23    2    1    2    0    0 -0.36751568784E+02  0.18748161921E+02 -0.12484877017E+03  0.16151610727E+03  0.93798006979E+02 0.  0.
          5    1    1    2  502    0  0.84606192270E+01 -0.40927646889E+02 -0.21573909890E+03  0.21978963932E+03  0.41800000000E+01 0.  1.
         -5    1    1    2    0  502  0.28290949557E+02  0.22179484968E+02 -0.39376567832E+01  0.36404462930E+02  0.41800000000E+01 0.  1.
        -11    1    3    3    0    0 -0.57310719601E+01 -0.34019871839E+02 -0.19374905226E+02  0.39567459082E+02  0.00000000000E+00 0.  1.
         11    1    3    3    0    0 -0.31020496823E+02  0.52768033760E+02 -0.10547386494E+03  0.12194864819E+03  0.00000000000E+00 0. -1.
</event>
<event>
 8    1  0.7232317E-009  0.3936389E+03  0.7561462E-02  0.1046005E+00
         -1   -1    0    0    0  501 -0.00000000000E+00  0.00000000000E+00  0.21118673618E+04  0.21118673618E+04  0.00000000000E+00 0.  1.
          1   -1    0    0  501    0  0.00000000000E+00 -0.00000000000E+00 -0.77013452628E+02  0.77013452628E+02  0.00000000000E+00 0. -1.
         25    2    1    2    0    0 -0.22799293851E+03  0.30750161032E+03  0.84960723348E+03  0.94022212406E+03  0.12508865268E+03 0.  0.
         23    2    1    2    0    0  0.22799293851E+03 -0.30750161032E+03  0.11852466757E+04  0.12486586904E+04  0.88322264738E+02 0.  0.
          5    1    3    3  502    0 -0.10507923231E+03  0.67917317187E+02  0.18760384750E+03  0.22553732071E+03  0.41800000000E+01 0.  1.
         -5    1    3    3    0  502 -0.12291370620E+03  0.23958429313E+03  0.66200338598E+03  0.71468480335E+03  0.41800000000E+01 0.  1.
        -11    1    4    4    0    0  0.11607123577E+03 -0.85489207034E+02  0.42324479661E+03  0.44712089434E+03  0.00000000000E+00 0. -1.
         11    1    4    4    0    0  0.11192170274E+03 -0.22201240329E+03  0.76200187912E+03  0.80153779608E+03  0.00000000000E+00 0.  1.
</event>
<event>
 8    1  0.7232317E-009  0.2441011E+03  0.7561462E-02  0.1117091E+00
          2   -1    0    0  501    0  0.00000000000E+00  0.00000000000E+00  0.13804364112E+04  0.13804364112E+04  0.00000000000E+00 0. -1.
         -2   -1    0    0    0  501 -0.00000000000E+00 -0.00000000000E+00 -0.86948647209E+02  0.86948647209E+02  0.00000000000E+00 0.  1.
         25    2    1    2    0    0 -0.72543840022E+02 -0.22163013964E+03  0.11408047318E+04  0.11710959018E+04  0.12509055751E+03 0.  0.
         23    2    1    2    0    0  0.72543840022E+02  0.22163013964E+03  0.15268303223E+03  0.29628915665E+03  0.10046207491E+03 0.  0.
          5    1    3    3  502    0 -0.26364626057E+02 -0.11715607872E+03  0.31012788349E+03  0.33259196744E+03  0.41800000000E+01 0. -1.
         -5    1    3    3    0  502 -0.46179213964E+02 -0.10447406092E+03  0.83067684831E+03  0.83850393436E+03  0.41800000000E+01 0. -1.
        -11    1    4    4    0    0  0.95055865291E+02  0.14115481115E+03  0.10757066830E+03  0.20132497837E+03  0.00000000000E+00 0. -1.
         11    1    4    4    0    0 -0.22512025269E+02  0.80475328491E+02  0.45112363927E+02  0.94964178281E+02  0.00000000000E+00 0.  1.
</event>
<event>
 8    1  0.7232317E-009  0.1241220E+03  0.7561462E-02  0.1236448E+00
          1   -1    0    0  501    0  0.00000000000E+00  0.00000000000E+00  0.60250061372E+03  0.60250061372E+03  0.00000000000E+00 0. -1.
         -1   -1    0    0    0  501 -0.00000000000E+00 -0.00000000000E+00 -0.51639141598E+02  0.51639141598E+02  0.00000000000E+00 0.  1.
         25    2    1    2    0    0  0.48896845433E+02 -0.51441025678E+02  0.70651455374E+02  0.16024194659E+03  0.12509505459E+03 0.  0.
         23    2    1    2    0    0 -0.48896845433E+02  0.51441025678E+02  0.48021001675E+03  0.49389780873E+03  0.91084052764E+02 0.  0.
          5    1    3    3  502    0 -0.12133829414E+02 -0.69961447016E+02  0.94569532725E+01  0.71754722841E+02  0.41800000000E+01 0.  1.
         -5    1    3    3    0  502  0.61030674847E+02  0.18520421338E+02  0.61194502101E+02  0.88487223746E+02  0.41800000000E+01 0.  1.
        -11    1    4    4    0    0 -0.61670382841E+02  0.15400830298E+01  0.21231211289E+03  0.22109283403E+03  0.00000000000E+00 0.  1.
         11    1    4    4    0    0  0.12773537408E+02  0.49900942648E+02  0.26789790386E+03  0.27280497471E+03  0.00000000000E+00 0. -1.
</event>
<event>
 8    1  0.7232317E-009  0.1963164E+03  0.7561462E-02  0.1152885E+00
         -4   -1    0    0    0  501 -0.00000000000E+00  0.00000000000E+00  0.26495057981E+02  0.26495057981E+02  0.00000000000E+00 0.  1.
          4   -1    0    0  501    0  0.00000000000E+00 -0.00000000000E+00 -0.14997783084E+04  0.14997783084E+04  0.00000000000E+00 0. -1.
         25    2    1    2    0    0 -0.16493317226E+03  0.12295956613E+02 -0.68396822096E+03  0.71471309706E+03  0.12509253359E+03 0.  0.
         23    2    1    2    0    0  0.16493317226E+03 -0.12295956613E+02 -0.78931502944E+03  0.81156026930E+03  0.90871960227E+02 0.  0.
          5    1    3    3  502    0 -0.12184389537E+03 -0.49771870990E+02 -0.43066035705E+03  0.45034319082E+03  0.41800000000E+01 0.  1.
         -5    1    3    3    0  502 -0.43089276890E+02  0.62067827603E+02 -0.25330786391E+03  0.26436990624E+03  0.41800000000E+01 0.  1.
        -11    1    4    4    0    0  0.56583828367E+02  0.35557409366E+02 -0.36281656260E+03  0.36891993317E+03  0.00000000000E+00 0. -1.
         11    1    4    4    0    0  0.10834934389E+03 -0.47853365979E+02 -0.42649846683E+03  0.44264033613E+03  0.00000000000E+00 0.  1.
</event>
<event>
 8    1  0.7232317E-009  0.1290064E+03  0.7561462E-02  0.1228938E+00
         -2   -1    0    0    0  501 -0.00000000000E+00  0.00000000000E+00  0.32988982571E+02  0.32988982571E+02  0.00000000000E+00 0.  1.
          2   -1    0    0  501    0  0.00000000000E+00 -0.00000000000E+00 -0.51830043501E+03  0.51830043501E+03  0.00000000000E+00 0. -1.
         25    2    1    2    0    0  0.53116133519E+01 -0.69925449534E+02 -0.23252888215E+03  0.27320500216E+03  0.12511398980E+03 0.  0.
         23    2    1    2    0    0 -0.53116133519E+01  0.69925449534E+02 -0.25278257029E+03  0.27808441542E+03  0.92272057133E+02 0.  0.
          5    1    3    3  502    0 -0.58403541780E+02 -0.46606381505E+02 -0.10920211193E+03  0.13238467487E+03  0.41800000000E+01 0.  1.
         -5    1    3    3    0  502  0.63715155132E+02 -0.23319068030E+02 -0.12332677022E+03  0.14082032729E+03  0.41800000000E+01 0.  1.
        -11    1    4    4    0    0 -0.32022911372E+02 -0.78440998827E+01 -0.59206525335E+02  0.67767318067E+02  0.00000000000E+00 0.  1.
         11    1    4    4    0    0  0.26711298020E+02  0.77769549417E+02 -0.19357604495E+03  0.21031709735E+03  0.00000000000E+00 0. -1.
</event>
<event>
 8    1  0.7232317E-009  0.1383705E+03  0.7561462E-02  0.1215539E+00
         -2   -1    0    0    0  501 -0.00000000000E+00  0.00000000000E+00  0.33385613007E+02  0.33385613007E+02  0.00000000000E+00 0.  1.
          2   -1    0    0  501    0  0.00000000000E+00 -0.00000000000E+00 -0.69268882320E+03  0.69268882320E+03  0.00000000000E+00 0. -1.
         25    2    1    2    0    0 -0.50679129841E+02 -0.82583162294E+02 -0.23868845832E+03  0.28637212818E+03  0.12509381586E+03 0.  0.
         23    2    1    2    0    0  0.50679129841E+02  0.82583162294E+02 -0.42061475187E+03  0.43970230803E+03  0.83862967379E+02 0.  0.
          5    1    3    3  502    0 -0.39743677448E+02 -0.11250655557E+03 -0.21677344635E+03  0.24747825033E+03  0.41800000000E+01 0.  1.
         -5    1    3    3    0  502 -0.10935452393E+02  0.29923393280E+02 -0.21915011975E+02  0.38893877851E+02  0.41800000000E+01 0.  1.
        -11    1    4    4    0    0 -0.16785276775E+02  0.44912101487E+02 -0.20878955385E+03  0.21422399533E+03  0.00000000000E+00 0. -1.
         11    1    4    4    0    0  0.67464406616E+02  0.37671060807E+02 -0.21182519801E+03  0.22547831270E+03  0.00000000000E+00 0.  1.
</event>
<event>
 8    1  0.7232317E-009  0.1069567E+03  0.7561462E-02  0.1266312E+00
          2   -1    0    0  501    0  0.00000000000E+00  0.00000000000E+00  0.41755709018E+03  0.41755709018E+03  0.00000000000E+00 0.  1.
         -2   -1    0    0    0  501 -0.00000000000E+00 -0.00000000000E+00 -0.43858711993E+02  0.43858711993E+02  0.00000000000E+00 0. -1.
         25    2    1    2    0    0 -0.43477585984E+02 -0.41275906952E+02  0.29584672279E+03  0.32675576989E+03  0.12510015504E+03 0.  0.
         23    2    1    2    0    0  0.43477585984E+02  0.41275906952E+02  0.77851655395E+02  0.13466003228E+03  0.92078461483E+02 0.  0.
          5    1    3    3  502    0 -0.19727970917E+02  0.26335544192E+02  0.14158489788E+02  0.36065065611E+02  0.41800000000E+01 0. -1.
         -5    1    3    3    0  502 -0.23749615067E+02 -0.67611451144E+02  0.28168823300E+03  0.29069070428E+03  0.41800000000E+01 0. -1.
        -11    1    4    4    0    0  0.49915518462E+02 -0.15153529874E+02  0.28639440484E+02  0.59509713511E+02  0.00000000000E+00 0. -1.
         11    1    4    4    0    0 -0.64379324781E+01  0.56429436826E+02  0.49212214911E+02  0.75150318772E+02  0.00000000000E+00 0.  1.
</event>
<event>
 8    1  0.7232317E-009  0.8997068E+02  0.7561462E-02  0.1302923E+00
          4   -1    0    0  501    0  0.00000000000E+00  0.00000000000E+00  0.29655194677E+03  0.29655194677E+03  0.00000000000E+00 0. -1.
         -4   -1    0    0    0  501 -0.00000000000E+00 -0.00000000000E+00 -0.72434840112E+02  0.72434840112E+02  0.00000000000E+00 0.  1.
         25    2    1    2    0    0  0.30848947900E+02  0.64401082954E+02  0.36496426395E+02  0.14858943403E+03  0.12509066189E+03 0.  0.
         23    2    1    2    0    0 -0.30848947900E+02 -0.64401082954E+02  0.18762068026E+03  0.22039735285E+03  0.90963269565E+02 0.  0.
          5    1    3    3  502    0  0.28679234447E+02  0.33190941871E+02 -0.43911757374E+02  0.62208134085E+02  0.41800000000E+01 0.  1.
         -5    1    3    3    0  502  0.21697134529E+01  0.31210141083E+02  0.80408183768E+02  0.86381299943E+02  0.41800000000E+01 0.  1.
        -11    1    4    4    0    0  0.20409864737E+02 -0.45169181381E+02  0.42496899528E+02  0.65290152356E+02  0.00000000000E+00 0.  1.
         11    1    4    4    0    0 -0.51258812637E+02 -0.19231901573E+02  0.14512378074E+03  0.15510720050E+03  0.00000000000E+00 0. -1.
</event>
<event>
 8    1  0.7232317E-009  0.1773887E+03  0.7561462E-02  0.1170354E+00
         -2   -1    0    0    0  501 -0.00000000000E+00  0.00000000000E+00  0.62673997229E+02  0.62673997229E+02  0.00000000000E+00 0. -1.
          2   -1    0    0  501    0  0.00000000000E+00 -0.00000000000E+00 -0.56113179742E+03  0.56113179742E+03  0.00000000000E+00 0.  1.
         25    2    1    2    0    0 -0.13965430947E+03 -0.35863387386E+02 -0.34143878065E+03  0.39117429032E+03  0.12508947106E+03 0.  0.
         23    2    1    2    0    0  0.13965430947E+03  0.35863387386E+02 -0.15701901954E+03  0.23263150433E+03  0.93128597116E+02 0.  0.
          5    1    3    3  502    0 -0.14246764417E+03  0.94792230044E+01 -0.22985793046E+03  0.27062709750E+03  0.41800000000E+01 0.  1.
         -5    1    3    3    0  502  0.28133347013E+01 -0.45342610390E+02 -0.11158085019E+03  0.12054719282E+03  0.41800000000E+01 0.  1.
        -11    1    4    4    0    0  0.98425822298E+02  0.63084918102E+02 -0.13487938870E+03  0.17849313399E+03  0.00000000000E+00 0.  1.
         11    1    4    4    0    0  0.41228487168E+02 -0.27221530716E+02 -0.22139630844E+02  0.54138370336E+02  0.00000000000E+00 0. -1.
</event>
<event>
 8    1  0.7232317E-009  0.9123132E+02  0.7561462E-02  0.1299897E+00
          1   -1    0    0  501    0  0.00000000000E+00  0.00000000000E+00  0.21400755962E+02  0.21400755962E+02  0.00000000000E+00 0. -1.
         -1   -1    0    0    0  501 -0.00000000000E+00 -0.00000000000E+00 -0.68262154356E+03  0.68262154356E+03  0.00000000000E+00 0.  1.
         25    2    1    2    0    0 -0.38956086305E+02 -0.32516366995E+02 -0.38356212502E+03  0.40661567171E+03  0.12506602234E+03 0.  0.
         23    2    1    2    0    0  0.38956086305E+02  0.32516366995E+02 -0.27765866258E+03  0.29740662782E+03  0.93709543711E+02 0.  0.
          5    1    3    3  502    0  0.25023500332E+02 -0.58689658878E+01 -0.28424140201E+03  0.28543172099E+03  0.41800000000E+01 0.  1.
         -5    1    3    3    0  502 -0.63979586637E+02 -0.26647401107E+02 -0.99320723008E+02  0.12118395071E+03  0.41800000000E+01 0.  1.
        -11    1    4    4    0    0  0.52142093948E+02  0.44967319425E+02 -0.26830905120E+03  0.27700289662E+03  0.00000000000E+00 0.  1.
         11    1    4    4    0    0 -0.13186007643E+02 -0.12450952431E+02 -0.93496113763E+01  0.20403731200E+02  0.00000000000E+00 0. -1.
</event>
<event>
 8    1  0.7232317E-009  0.1231091E+03  0.7561462E-02  0.1238054E+00
         -2   -1    0    0    0  501 -0.00000000000E+00  0.00000000000E+00  0.24446706099E+02  0.24446706099E+02  0.00000000000E+00 0.  1.
          2   -1    0    0  501    0  0.00000000000E+00 -0.00000000000E+00 -0.64470172839E+03  0.64470172839E+03  0.00000000000E+00 0. -1.
         25    2    1    2    0    0  0.63384878017E+02  0.71747734332E+01 -0.33987795954E+03  0.36774905106E+03  0.12511281725E+03 0.  0.
         23    2    1    2    0    0 -0.63384878017E+02 -0.71747734332E+01 -0.28037706275E+03  0.30139938343E+03  0.90339199019E+02 0.  0.
          5    1    3    3  502    0  0.62514392382E+02 -0.49308361841E+02 -0.15375852916E+03  0.17320081262E+03  0.41800000000E+01 0. -1.
         -5    1    3    3    0  502  0.87048563527E+00  0.56483135274E+02 -0.18611943038E+03  0.19454823844E+03  0.41800000000E+01 0. -1.
        -11    1    4    4    0    0  0.22788582805E+02  0.33381333540E+01 -0.74164182607E+02  0.77658152324E+02  0.00000000000E+00 0. -1.
         11    1    4    4    0    0 -0.86173460823E+02 -0.10512906787E+02 -0.20621288014E+03  0.22374123110E+03  0.00000000000E+00 0.  1.
</event>
<event>
 8    1  0.7232317E-009  0.9517575E+02  0.7561462E-02  0.1290781E+00
          1   -1    0    0  501    0  0.00000000000E+00  0.00000000000E+00  0.11225923006E+03  0.11225923006E+03  0.00000000000E+00 0. -1.
         -1   -1    0    0    0  501 -0.00000000000E+00 -0.00000000000E+00 -0.10912866456E+03  0.10912866456E+03  0.00000000000E+00 0.  1.
         25    2    1    2    0    0  0.20180204547E+02 -0.77197992847E+01  0.12028006987E+02  0.12751161963E+03  0.12509078396E+03 0.  0.
         23    2    1    2    0    0 -0.20180204547E+02  0.77197992847E+01 -0.88974414802E+01  0.93876274989E+02  0.90921694795E+02 0.  0.
          5    1    3    3  502    0 -0.51615743895E+02  0.10293190363E+02  0.43810608920E+01  0.52979249525E+02  0.41800000000E+01 0.  1.
         -5    1    3    3    0  502  0.71795948442E+02 -0.18012989648E+02  0.76469460947E+01  0.74532370104E+02  0.41800000000E+01 0.  1.
        -11    1    4    4    0    0  0.17252779690E+02  0.17655481621E+02 -0.38081405658E+02  0.45382462419E+02  0.00000000000E+00 0.  1.
         11    1    4    4    0    0 -0.37432984238E+02 -0.99356823368E+01  0.29183964178E+02  0.48493812570E+02  0.00000000000E+00 0. -1.
</event>
<event>
 8    1  0.7232317E-009  0.1046170E+03  0.7561462E-02  0.1270876E+00
         -2   -1    0    0    0  501 -0.00000000000E+00  0.00000000000E+00  0.90687169392E+02  0.90687169392E+02  0.00000000000E+00 0.  1.
          2   -1    0    0  501    0  0.00000000000E+00 -0.00000000000E+00 -0.24330517513E+03  0.24330517513E+03  0.00000000000E+00 0. -1.
         25    2    1    2    0    0 -0.61745403034E+02  0.47751084052E+02 -0.15797261191E+03  0.21609281461E+03  0.12509235624E+03 0.  0.
         23    2    1    2    0    0  0.61745403034E+02 -0.47751084052E+02  0.53546061783E+01  0.11789952990E+03  0.88198449648E+02 0.  0.
          5    1    3    3  502    0 -0.53833452913E+02 -0.20836795198E+02 -0.19098010487E+02  0.60946034253E+02  0.41800000000E+01 0.  1.
         -5    1    3    3    0  502 -0.79119501216E+01  0.68587879250E+02 -0.13887460143E+03  0.15514678036E+03  0.41800000000E+01 0.  1.
        -11    1    4    4    0    0  0.30000517505E+02 -0.39104861964E+02 -0.38875947437E+02  0.62773884450E+02  0.00000000000E+00 0. -1.
         11    1    4    4    0    0  0.31744885530E+02 -0.86462220888E+01  0.44230553616E+02  0.55125645455E+02  0.00000000000E+00 0.  1.
</event>
<event>
 8    1  0.7232317E-009  0.1027916E+03  0.7561462E-02  0.1274533E+00
         -1   -1    0    0    0  501 -0.00000000000E+00  0.00000000000E+00  0.46293560286E+02  0.46293560286E+02  0.00000000000E+00 0.  1.
          1   -1    0    0  501    0  0.00000000000E+00 -0.00000000000E+00 -0.57026338413E+03  0.57026338413E+03  0.00000000000E+00 0. -1.
         25    2    1    2    0    0 -0.39983751454E+02  0.62064886432E+02 -0.10019916337E+03  0.17646276833E+03  0.12509390776E+03 0.  0.
         23    2    1    2    0    0  0.39983751454E+02 -0.62064886432E+02 -0.42377066048E+03  0.44009417608E+03  0.93008390134E+02 0.  0.
          5    1    3    3  502    0  0.24853957200E+02  0.44191528479E+01 -0.84381299906E+02  0.88175531040E+02  0.41800000000E+01 0. -1.
         -5    1    3    3    0  502 -0.64837708654E+02  0.57645733584E+02 -0.15817863462E+02  0.88287237291E+02  0.41800000000E+01 0. -1.
        -11    1    4    4    0    0 -0.14723415922E+02 -0.12420014535E+02 -0.14241656294E+02  0.23955385855E+02  0.00000000000E+00 0.  1.
         11    1    4    4    0    0  0.54707167375E+02 -0.49644871897E+02 -0.40952900418E+03  0.41613879023E+03  0.00000000000E+00 0. -1.
</event>
<event>
 8    1  0.7232317E-009  0.1476166E+03  0.7561462E-02  0.1203433E+00
         -2   -1    0    0    0  501 -0.00000000000E+00  0.00000000000E+00  0.50895598559E+02  0.50895598559E+02  0.00000000000E+00 0.  1.
          2   -1    0    0  501    0  0.00000000000E+00 -0.00000000000E+00 -0.52002571791E+03  0.52002571791E+03  0.00000000000E+00 0. -1.
         25    2    1    2    0    0  0.10600541523E+03  0.62169870748E+02 -0.21643684182E+03  0.27855802701E+03  0.12508967595E+03 0.  0.
         23    2    1    2    0    0 -0.10600541523E+03 -0.62169870748E+02 -0.25269327753E+03  0.29236328946E+03  0.80747505377E+02 0.  0.
          5    1    3    3  502    0  0.63042747161E+01  0.47247033849E+02 -0.10143976112E+02  0.48912153281E+02  0.41800000000E+01 0. -1.
         -5    1    3    3    0  502  0.99701140514E+02  0.14922836900E+02 -0.20629286571E+03  0.22964587373E+03  0.41800000000E+01 0. -1.
        -11    1    4    4    0    0 -0.25417365512E+02 -0.60786014240E+02 -0.10107595793E+03  0.12065376607E+03  0.00000000000E+00 0.  1.
         11    1    4    4    0    0 -0.80588049718E+02 -0.13838565088E+01 -0.15161731961E+03  0.17170952338E+03  0.00000000000E+00 0. -1.
</event>
<event>
 8    1  0.7232317E-009  0.3356245E+03  0.7561462E-02  0.1068675E+00
          2   -1    0    0  501    0  0.00000000000E+00  0.00000000000E+00  0.13376386511E+04  0.13376386511E+04  0.00000000000E+00 0.  1.
         -2   -1    0    0    0  501 -0.00000000000E+00 -0.00000000000E+00 -0.92415845815E+02  0.92415845815E+02  0.00000000000E+00 0. -1.
         25    2    1    2    0    0 -0.32110817784E+03  0.92702487328E+02  0.61583304194E+03  0.71175964704E+03  0.12508895465E+03 0.  0.
         23    2    1    2    0    0  0.32110817784E+03 -0.92702487328E+02  0.62938976337E+03  0.71829484990E+03  0.90065554658E+02 0.  0.
          5    1    3    3  502    0 -0.16413412654E+03  0.38885393414E+02  0.18673734810E+03  0.25167517734E+03  0.41800000000E+01 0. -1.
         -5    1    3    3    0  502 -0.15697405129E+03  0.53817093915E+02  0.42909569385E+03  0.46008446970E+03  0.41800000000E+01 0. -1.
        -11    1    4    4    0    0  0.12699705762E+03 -0.16812137536E+02  0.16191703792E+03  0.20646556076E+03  0.00000000000E+00 0. -1.
         11    1    4    4    0    0  0.19411112021E+03 -0.75890349792E+02  0.46747272545E+03  0.51182928914E+03  0.00000000000E+00 0.  1.
</event>
<event>
 8    1  0.7232317E-009  0.7686912E+02  0.7561462E-02  0.1338179E+00
          4   -1    0    0  501    0  0.00000000000E+00  0.00000000000E+00  0.23181584837E+03  0.23181584837E+03  0.00000000000E+00 0. -1.
         -4   -1    0    0    0  501 -0.00000000000E+00 -0.00000000000E+00 -0.63744482884E+02  0.63744482884E+02  0.00000000000E+00 0.  1.
         25    2    1    2    0    0 -0.47814262622E+01  0.50855420774E+02  0.11925856843E+03  0.18022117401E+03  0.12509168461E+03 0.  0.
         23    2    1    2    0    0  0.47814262622E+01 -0.50855420774E+02  0.48812797061E+02  0.11533915725E+03  0.91166310546E+02 0.  0.
          5    1    3    3  502    0 -0.24943112475E+01  0.49695994169E+02  0.14534216318E+03  0.15368061108E+03  0.41800000000E+01 0.  1.
         -5    1    3    3    0  502 -0.22871150147E+01  0.11594266042E+01 -0.26083594753E+02  0.26540562925E+02  0.41800000000E+01 0.  1.
        -11    1    4    4    0    0 -0.12224623216E+02  0.21413764362E+02  0.29841427238E+02  0.38710483032E+02  0.00000000000E+00 0.  1.
         11    1    4    4    0    0  0.17006049479E+02 -0.72269185136E+02  0.18971369823E+02  0.76628674216E+02  0.00000000000E+00 0. -1.
</event>
<event>
 8    1  0.7232317E-009  0.1345750E+03  0.7561462E-02  0.1220821E+00
          1   -1    0    0  501    0  0.00000000000E+00  0.00000000000E+00  0.24386361308E+03  0.24386361308E+03  0.00000000000E+00 0. -1.
         -1   -1    0    0    0  501 -0.00000000000E+00 -0.00000000000E+00 -0.11948273357E+03  0.11948273357E+03  0.00000000000E+00 0.  1.
         25    2    1    2    0    0 -0.65058548452E+02 -0.84220824102E+02 -0.15576096486E+02  0.16497232237E+03  0.12508992936E+03 0.  0.
         23    2    1    2    0    0  0.65058548452E+02  0.84220824102E+02  0.13995697599E+03  0.19837402428E+03  0.91861506855E+02 0.  0.
          5    1    3    3  502    0  0.17007291710E+02 -0.40112693808E+02  0.37524585388E+02  0.57652780370E+02  0.41800000000E+01 0. -1.
         -5    1    3    3    0  502 -0.82065840162E+02 -0.44108130293E+02 -0.53100681875E+02  0.10731954200E+03  0.41800000000E+01 0. -1.
        -11    1    4    4    0    0  0.82908059289E+02  0.75984101949E+02  0.13885593137E+03  0.17868491744E+03  0.00000000000E+00 0. -1.
         11    1    4    4    0    0 -0.17849510836E+02  0.82367221522E+01  0.11010446207E+01  0.19689106840E+02  0.00000000000E+00 0.  1.
</event>
<event>
 8    1  0.7232317E-009  0.1178376E+03  0.7561462E-02  0.1246707E+00
          1   -1    0    0  501    0  0.00000000000E+00  0.00000000000E+00  0.69900754391E+03  0.69900754391E+03  0.00000000000E+00 0. -1.
         -1   -1    0    0    0  501 -0.00000000000E+00 -0.00000000000E+00 -0.38209958410E+02  0.38209958410E+02  0.00000000000E+00 0.  1.
         25    2    1    2    0    0 -0.76155281838E+02 -0.61428097491E+02  0.51630116741E+03  0.54017347955E+03  0.12508978546E+03 0.  0.
         23    2    1    2    0    0  0.76155281838E+02  0.61428097491E+02  0.14449641808E+03  0.19704402276E+03  0.91510075703E+02 0.  0.
          5    1    3    3  502    0 -0.28944418653E+02  0.11835466077E+02  0.35823970978E+03  0.35962622219E+03  0.41800000000E+01 0. -1.
         -5    1    3    3    0  502 -0.47210863185E+02 -0.73263563568E+02  0.15806145764E+03  0.18054725736E+03  0.41800000000E+01 0. -1.
        -11    1    4    4    0    0  0.61115707168E+02  0.74905179339E+02  0.68687128772E+02  0.11859105031E+03  0.00000000000E+00 0.  1.
         11    1    4    4    0    0  0.15039574671E+02 -0.13477081848E+02  0.75809289309E+02  0.78452972455E+02  0.00000000000E+00 0. -1.
</event>
<event>
 8    1  0.7232317E-009  0.9355797E+02  0.7561462E-02  0.1294457E+00
         -1   -1    0    0    0  501 -0.00000000000E+00  0.00000000000E+00  0.61518022639E+02  0.61518022639E+02  0.00000000000E+00 0.  1.
          1   -1    0    0  501    0  0.00000000000E+00 -0.00000000000E+00 -0.22054259045E+03  0.22054259045E+03  0.00000000000E+00 0. -1.
         25    2    1    2    0    0  0.32593883879E+02  0.21302268386E+02 -0.10384521377E+03  0.16717609989E+03  0.12509145473E+03 0.  0.
         23    2    1    2    0    0 -0.32593883879E+02 -0.21302268386E+02 -0.55179354041E+02  0.11488451320E+03  0.92938379350E+02 0.  0.
          5    1    3    3  502    0  0.27375995427E+02  0.73361505494E+02 -0.58828583384E+02  0.98028721490E+02  0.41800000000E+01 0. -1.
         -5    1    3    3    0  502  0.52178884521E+01 -0.52059237108E+02 -0.45016630385E+02  0.69147378398E+02  0.41800000000E+01 0. -1.
        -11    1    4    4    0    0 -0.45093735146E+00  0.10786542558E+02  0.22469105564E+02  0.24928167797E+02  0.00000000000E+00 0.  1.
         11    1    4    4    0    0 -0.32142946527E+02 -0.32088810945E+02 -0.77648459605E+02  0.89956345404E+02  0.00000000000E+00 0. -1.
</event>
<event>
 8    1  0.7232317E-009  0.1053266E+03  0.7561462E-02  0.1269478E+00
         -1   -1    0    0    0  501 -0.00000000000E+00  0.00000000000E+00  0.13624270741E+02  0.13624270741E+02  0.00000000000E+00 0.  1.
          1   -1    0    0  501    0  0.00000000000E+00 -0.00000000000E+00 -0.14324319068E+04  0.14324319068E+04  0.00000000000E+00 0. -1.
         25    2    1    2    0    0  0.69257252663E+02 -0.26479828402E+02 -0.10272933137E+04  0.10375338121E+04  0.12508841060E+03 0.  0.
         23    2    1    2    0    0 -0.69257252663E+02  0.26479828402E+02 -0.39151432228E+03  0.40852236538E+03  0.90051707997E+02 0.  0.
          5    1    3    3  502    0  0.78899341109E+02 -0.28192180730E+02 -0.34132147254E+03  0.35147933809E+03  0.41800000000E+01 0. -1.
         -5    1    3    3    0  502 -0.96420884465E+01  0.17123523283E+01 -0.68597184120E+03  0.68605447403E+03  0.41800000000E+01 0. -1.
        -11    1    4    4    0    0 -0.33711780053E+02 -0.32774871320E+02 -0.13972014254E+03  0.14741911184E+03  0.00000000000E+00 0.  1.
         11    1    4    4    0    0 -0.35545472610E+02  0.59254699722E+02 -0.25179417973E+03  0.26110325354E+03  0.00000000000E+00 0. -1.
</event>
<event>
 8    1  0.7232317E-009  0.1717937E+03  0.7561462E-02  0.1175990E+00
         -1   -1    0    0    0  501 -0.00000000000E+00  0.00000000000E+00  0.29043317993E+03  0.29043317993E+03  0.00000000000E+00 0.  1.
          1   -1    0    0  501    0  0.00000000000E+00 -0.00000000000E+00 -0.12011700401E+03  0.12011700401E+03  0.00000000000E+00 0. -1.
         25    2    1    2    0    0 -0.14679139245E+03 -0.19986845430E+02  0.12538390012E+03  0.23090790650E+03  0.12510056749E+03 0.  0.
         23    2    1    2    0    0  0.14679139245E+03  0.19986845430E+02  0.44932275801E+02  0.17964227744E+03  0.91133152835E+02 0.  0.
          5    1    3    3  502    0  0.63121960858E+01 -0.36216014627E+02  0.41236759593E+02  0.55402042171E+02  0.41800000000E+01 0.  1.
         -5    1    3    3    0  502 -0.15310358854E+03  0.16229169197E+02  0.84147140531E+02  0.17550586433E+03  0.41800000000E+01 0.  1.
        -11    1    4    4    0    0  0.93978749499E+01  0.11588850465E+02 -0.21999756858E+02  0.26582152104E+02  0.00000000000E+00 0. -1.
         11    1    4    4    0    0  0.13739351750E+03  0.83979949648E+01  0.66932032659E+02  0.15306012533E+03  0.00000000000E+00 0.  1.
</event>
<event>
 8    1  0.7232317E-009  0.1457084E+03  0.7561462E-02  0.1205848E+00
         -1   -1    0    0    0  501 -0.00000000000E+00  0.00000000000E+00  0.21342766437E+03  0.21342766437E+03  0.00000000000E+00 0.  1.
          1   -1    0    0  501    0  0.00000000000E+00 -0.00000000000E+00 -0.13879217750E+03  0.13879217750E+03  0.00000000000E+00 0. -1.
         25    2    1    2    0    0 -0.98960505981E+02 -0.66283303443E+02 -0.21561492419E+02  0.17407376736E+03  0.12510044152E+03 0.  0.
         23    2    1    2    0    0  0.98960505981E+02  0.66283303443E+02  0.96196979288E+02  0.17814607450E+03  0.91079673786E+02 0.  0.
          5    1    3    3  502    0 -0.11654562074E+03 -0.83717634085E+02 -0.31657217688E+02  0.14700740051E+03  0.41800000000E+01 0. -1.
         -5    1    3    3    0  502  0.17585114764E+02  0.17434330642E+02  0.10095725269E+02  0.27066366858E+02  0.41800000000E+01 0. -1.
        -11    1    4    4    0    0  0.56785277837E+02  0.20187700336E+02  0.98669070142E+02  0.11561875465E+03  0.00000000000E+00 0.  1.
         11    1    4    4    0    0  0.42175228144E+02  0.46095603107E+02 -0.24720908542E+01  0.62527319853E+02  0.00000000000E+00 0. -1.
</event>
<event>
 8    1  0.7232317E-009  0.9392780E+02  0.7561462E-02  0.1293609E+00
         -2   -1    0    0    0  501 -0.00000000000E+00  0.00000000000E+00  0.13959797582E+02  0.13959797582E+02  0.00000000000E+00 0. -1.
          2   -1    0    0  501    0  0.00000000000E+00 -0.00000000000E+00 -0.10204440005E+04  0.10204440005E+04  0.00000000000E+00 0.  1.
         25    2    1    2    0    0  0.17228513575E+02 -0.88087874180E+01 -0.77012943036E+03  0.78046218982E+03  0.12508986293E+03 0.  0.
         23    2    1    2    0    0 -0.17228513575E+02  0.88087874180E+01 -0.23635477254E+03  0.25394160825E+03  0.90820402345E+02 0.  0.
          5    1    3    3  502    0 -0.46000672834E+02  0.89955157321E+01 -0.15954310412E+03  0.16633837704E+03  0.41800000000E+01 0.  1.
         -5    1    3    3    0  502  0.63229186408E+02 -0.17804303150E+02 -0.61058632625E+03  0.61412381278E+03  0.41800000000E+01 0.  1.
        -11    1    4    4    0    0 -0.45781624922E+02  0.33289568357E+01 -0.20913811298E+03  0.21411629886E+03  0.00000000000E+00 0.  1.
         11    1    4    4    0    0  0.28553111347E+02  0.54798305824E+01 -0.27216659559E+02  0.39825309395E+02  0.00000000000E+00 0. -1.
</event>
<event>
 7    1  0.7232317E-009  0.1240727E+03  0.7561462E-02  0.1236526E+00
         -1   -1    0    0    0  501 -0.00000000000E+00  0.00000000000E+00  0.25900314927E+02  0.25900314927E+02  0.00000000000E+00 0.  1.
          1   -1    0    0  501    0  0.00000000000E+00 -0.00000000000E+00 -0.89779548873E+03  0.89779548873E+03  0.00000000000E+00 0. -1.
         23    2    1    2    0    0 -0.72299743374E+02  0.47057657737E+02 -0.21083227274E+03  0.24536766464E+03  0.91177670407E+02 0.  0.
          5    1    1    2  502    0 -0.19746615148E+02 -0.33726311906E+02 -0.72699511981E+02  0.82644324469E+02  0.41800000000E+01 0.  1.
         -5    1    1    2    0  502  0.92046358522E+02 -0.13331345831E+02 -0.58836338908E+03  0.59568381454E+03  0.41800000000E+01 0.  1.
        -11    1    3    3    0    0 -0.72828873738E+02  0.42751729108E+01 -0.17486264585E+03  0.18947101855E+03  0.00000000000E+00 0. -1.
         11    1    3    3    0    0  0.52913036446E+00  0.42782484826E+02 -0.35969626886E+02  0.55896646099E+02  0.00000000000E+00 0.  1.
</event>
<event>
 8    1  0.7232317E-009  0.9830098E+02  0.7561462E-02  0.1283910E+00
         -1   -1    0    0    0  501 -0.00000000000E+00  0.00000000000E+00  0.75949966917E+02  0.75949966917E+02  0.00000000000E+00 0.  1.
          1   -1    0    0  501    0  0.00000000000E+00 -0.00000000000E+00 -0.18176522060E+03  0.18176522060E+03  0.00000000000E+00 0. -1.
         25    2    1    2    0    0 -0.28120752531E+02  0.34664296272E+02 -0.69436874211E+02  0.14987245430E+03  0.12509149810E+03 0.  0.
         23    2    1    2    0    0  0.28120752531E+02 -0.34664296272E+02 -0.36378379475E+02  0.10784273322E+03  0.91182665329E+02 0.  0.
          5    1    3    3  502    0 -0.63014031667E+02  0.52538283819E+02 -0.16374012312E+02  0.83765268057E+02  0.41800000000E+01 0. -1.
         -5    1    3    3    0  502  0.34893279136E+02 -0.17873987546E+02 -0.53062861899E+02  0.66107186240E+02  0.41800000000E+01 0. -1.
        -11    1    4    4    0    0 -0.18160009708E+02 -0.18705192542E+02  0.20232432330E+02  0.33000325735E+02  0.00000000000E+00 0.  1.
         11    1    4    4    0    0  0.46280762239E+02 -0.15959103730E+02 -0.56610811804E+02  0.74842407487E+02  0.00000000000E+00 0. -1.
</event>
<event>
 7    1  0.7232317E-009  0.1496362E+03  0.7561462E-02  0.1200921E+00
          1   -1    0    0  501    0  0.00000000000E+00  0.00000000000E+00  0.10361494354E+04  0.10361494354E+04  0.00000000000E+00 0. -1.
         -1   -1    0    0    0  501 -0.00000000000E+00 -0.00000000000E+00 -0.23249554996E+02  0.23249554996E+02  0.00000000000E+00 0.  1.
         23    2    1    2    0    0  0.99451389238E+02 -0.36383946880E+02  0.58891037856E+03  0.60481096010E+03  0.88127708899E+02 0.  0.
          5    1    1    2  502    0  0.25618644037E+02 -0.13447108121E+02  0.79032538208E+02  0.84265972580E+02  0.41800000000E+01 0. -1.
         -5    1    1    2    0  502 -0.12507003328E+03  0.49831055000E+02  0.34495696363E+03  0.37032205771E+03  0.41800000000E+01 0. -1.
        -11    1    3    3    0    0  0.79208384197E+02 -0.63488731841E+02  0.48580283886E+03  0.49629546184E+03  0.00000000000E+00 0. -1.
         11    1    3    3    0    0  0.20243005041E+02  0.27104784962E+02  0.10310753970E+03  0.10851549827E+03  0.00000000000E+00 0.  1.
</event>
<event>
 8    1  0.7232317E-009  0.1339329E+03  0.7561462E-02  0.1221734E+00
          1   -1    0    0  501    0  0.00000000000E+00  0.00000000000E+00  0.44386451992E+02  0.44386451992E+02  0.00000000000E+00 0. -1.
         -1   -1    0    0    0  501 -0.00000000000E+00 -0.00000000000E+00 -0.60104415512E+03  0.60104415512E+03  0.00000000000E+00 0.  1.
         25    2    1    2    0    0  0.61951599934E+02  0.87116492148E+02 -0.41190615987E+03  0.44355573806E+03  0.12509086413E+03 0.  0.
         23    2    1    2    0    0 -0.61951599934E+02 -0.87116492148E+02 -0.14475154326E+03  0.20187486905E+03  0.91505024675E+02 0.  0.
          5    1    3    3  502    0  0.92519118009E+02  0.35142912067E+02 -0.30578921095E+03  0.32143323630E+03  0.41800000000E+01 0.  1.
         -5    1    3    3    0  502 -0.30567518075E+02  0.51973580081E+02 -0.10611694892E+03  0.12212250176E+03  0.41800000000E+01 0.  1.
        -11    1    4    4    0    0 -0.24734283264E+02 -0.20781472092E+02  0.61515368275E+01  0.32886102783E+02  0.00000000000E+00 0. -1.
         11    1    4    4    0    0 -0.37217316670E+02 -0.66335020055E+02 -0.15090308009E+03  0.16898876627E+03  0.00000000000E+00 0.  1.
</event>
<event>
 8    1  0.7232317E-009  0.2017929E+03  0.7561462E-02  0.1148235E+00
         -3   -1    0    0    0  501 -0.00000000000E+00  0.00000000000E+00  0.56252994661E+02  0.56252994661E+02  0.00000000000E+00 0.  1.
          3   -1    0    0  501    0  0.00000000000E+00 -0.00000000000E+00 -0.80573711923E+03  0.80573711923E+03  0.00000000000E+00 0. -1.
         25    2    1    2    0    0  0.16116794910E+03 -0.86576370994E+02 -0.37669857215E+03  0.43705796711E+03  0.12508907435E+03 0.  0.
         23    2    1    2    0    0 -0.16116794910E+03  0.86576370994E+02 -0.37278555242E+03  0.42493214678E+03  0.90153676819E+02 0.  0.
          5    1    3    3  502    0  0.57794298799E+01 -0.46306425556E+02 -0.16394321111E+03  0.17050670288E+03  0.41800000000E+01 0.  1.
         -5    1    3    3    0  502  0.15538851922E+03 -0.40269945438E+02 -0.21275536104E+03  0.26655126423E+03  0.41800000000E+01 0.  1.
        -11    1    4    4    0    0 -0.55131992772E+02  0.69568855320E+02 -0.11207147862E+03  0.14296635470E+03  0.00000000000E+00 0.  1.
         11    1    4    4    0    0 -0.10603595633E+03  0.17007515674E+02 -0.26071407381E+03  0.28196579208E+03  0.00000000000E+00 0. -1.
</event>
<event>
 8    1  0.7232317E-009  0.1614408E+03  0.7561462E-02  0.1187080E+00
         -2   -1    0    0    0  501 -0.00000000000E+00  0.00000000000E+00  0.39138153690E+02  0.39138153690E+02  0.00000000000E+00 0.  1.
          2   -1    0    0  501    0  0.00000000000E+00 -0.00000000000E+00 -0.83652520229E+03  0.83652520229E+03  0.00000000000E+00 0. -1.
         25    2    1    2    0    0 -0.10339962914E+03 -0.96039729760E+02 -0.35523178404E+03  0.40218409072E+03  0.12508920593E+03 0.  0.
         23    2    1    2    0    0  0.10339962914E+03  0.96039729760E+02 -0.44215526455E+03  0.47347926525E+03  0.93628113576E+02 0.  0.
          5    1    3    3  502    0 -0.10806990821E+03 -0.46342022296E+02 -0.14846399858E+03  0.18943526432E+03  0.41800000000E+01 0.  1.
         -5    1    3    3    0  502  0.46702790752E+01 -0.49697707464E+02 -0.20676778546E+03  0.21274882640E+03  0.41800000000E+01 0.  1.
        -11    1    4    4    0    0 -0.31488772420E+01  0.29160357174E+02 -0.27662874128E+02  0.40317198110E+02  0.00000000000E+00 0. -1.
         11    1    4    4    0    0  0.10654850638E+03  0.66879372586E+02 -0.41449239042E+03  0.43316206714E+03  0.00000000000E+00 0.  1.
</event>
<event>
 7    1  0.7232317E-009  0.9351746E+02  0.7561462E-02  0.1294550E+00
          2   -1    0    0  501    0  0.00000000000E+00  0.00000000000E+00  0.28762501247E+03  0.28762501247E+03  0.00000000000E+00 0. -1.
         -2   -1    0    0    0  501 -0.00000000000E+00 -0.00000000000E+00 -0.56715665630E+02  0.56715665630E+02  0.00000000000E+00 0.  1.
         23    2    1    2    0    0  0.38133190474E+02  0.35956245472E+02  0.15282938041E+03  0.18761806142E+03  0.95376756331E+02 0.  0.
          5    1    1    2  502    0 -0.33936636012E+02  0.43142794309E+02  0.20654107201E+02  0.58796772946E+02  0.41800000000E+01 0.  1.
         -5    1    1    2    0  502 -0.41965544616E+01 -0.79099039781E+02  0.57425859226E+02  0.97925843736E+02  0.41800000000E+01 0.  1.
        -11    1    3    3    0    0  0.12757434614E+02  0.15469075231E+02 -0.93984591935E+01  0.22144422811E+02  0.00000000000E+00 0.  1.
         11    1    3    3    0    0  0.25375755860E+02  0.20487170241E+02  0.16222783961E+03  0.16547363861E+03  0.00000000000E+00 0. -1.
</event>
<event>
 8    1  0.7232317E-009  0.1307195E+03  0.7561462E-02  0.1226392E+00
         -2   -1    0    0    0  501 -0.00000000000E+00  0.00000000000E+00  0.13283244113E+02  0.13283244113E+02  0.00000000000E+00 0.  1.
          2   -1    0    0  501    0  0.00000000000E+00 -0.00000000000E+00 -0.16562470785E+04  0.16562470785E+04  0.00000000000E+00 0. -1.
         25    2    1    2    0    0 -0.51547195479E+02  0.83423533314E+02 -0.10311597105E+04  0.10433380262E+04  0.12508912481E+03 0.  0.
         23    2    1    2    0    0  0.51547195479E+02 -0.83423533314E+02 -0.61180412387E+03  0.62619229636E+03  0.90531247493E+02 0.  0.
          5    1    3    3  502    0  0.28593324792E+01  0.73007767024E+02 -0.25781588170E+03  0.26800151321E+03  0.41800000000E+01 0.  1.
         -5    1    3    3    0  502 -0.54406527958E+02  0.10415766291E+02 -0.77334382881E+03  0.77533651302E+03  0.41800000000E+01 0.  1.
        -11    1    4    4    0    0  0.58261548571E+02 -0.10169239356E+02 -0.30620647617E+03  0.31186572033E+03  0.00000000000E+00 0.  1.
         11    1    4    4    0    0 -0.67143530922E+01 -0.73254293959E+02 -0.30559764770E+03  0.31432657603E+03  0.00000000000E+00 0. -1.
</event>
<event>
 8    1  0.7232317E-009  0.1058416E+03  0.7561462E-02  0.1268470E+00
         -2   -1    0    0    0  501 -0.00000000000E+00  0.00000000000E+00  0.12337430937E+02  0.12337430937E+02  0.00000000000E+00 0.  1.
          2   -1    0    0  501    0  0.00000000000E+00 -0.00000000000E+00 -0.11692584364E+04  0.11692584364E+04  0.00000000000E+00 0. -1.
         25    2    1    2    0    0  0.10015881438E+02 -0.12964135816E+02 -0.86737582967E+03  0.87650175957E+03  0.12508444319E+03 0.  0.
         23    2    1    2    0    0 -0.10015881438E+02  0.12964135816E+02 -0.28954517580E+03  0.30509410778E+03  0.94750298541E+02 0.  0.
          5    1    3    3  502    0  0.32397566585E+02 -0.63012303636E+02 -0.46457285529E+03  0.46996336347E+03  0.41800000000E+01 0.  1.
         -5    1    3    3    0  502 -0.22381685147E+02  0.50048167820E+02 -0.40280297438E+03  0.40653839610E+03  0.41800000000E+01 0.  1.
        -11    1    4    4    0    0 -0.47322967984E+02  0.51080732367E+01 -0.22625814852E+03  0.23121052200E+03  0.00000000000E+00 0. -1.
         11    1    4    4    0    0  0.37307086546E+02  0.78560625795E+01 -0.63287027282E+02  0.73883585782E+02  0.00000000000E+00 0.  1.
</event>
<event>
 8    1  0.7232317E-009  0.6882807E+02  0.7561462E-02  0.1364124E+00
          2   -1    0    0  501    0  0.00000000000E+00  0.00000000000E+00  0.85365963299E+02  0.85365963299E+02  0.00000000000E+00 0. -1.
         -2   -1    0    0    0  501 -0.00000000000E+00 -0.00000000000E+00 -0.16584493994E+03  0.16584493994E+03  0.00000000000E+00 0.  1.
         25    2    1    2    0    0 -0.16230622704E+02 -0.29003524217E+02 -0.73749843581E+01  0.12964207753E+03  0.12509212741E+03 0.  0.
         23    2    1    2    0    0  0.16230622704E+02  0.29003524217E+02 -0.73103992278E+02  0.12156882571E+03  0.91269645372E+02 0.  0.
          5    1    3    3  502    0 -0.32469943632E+02 -0.25866450412E+02  0.52685552723E+02  0.67205731616E+02  0.41800000000E+01 0. -1.
         -5    1    3    3    0  502  0.16239320928E+02 -0.31370738057E+01 -0.60060537081E+02  0.62436345911E+02  0.41800000000E+01 0. -1.
        -11    1    4    4    0    0  0.42506657344E+02  0.41561994669E+01 -0.73947617616E+02  0.85395199301E+02  0.00000000000E+00 0.  1.
         11    1    4    4    0    0 -0.26276034639E+02  0.24847324750E+02  0.84362533776E+00  0.36173626406E+02  0.00000000000E+00 0. -1.
</event>
<event>
 8    1  0.7232317E-009  0.8705299E+02  0.7561462E-02  0.1310149E+00
         -1   -1    0    0    0  501 -0.00000000000E+00  0.00000000000E+00  0.18568219525E+03  0.18568219525E+03  0.00000000000E+00 0.  1.
          1   -1    0    0  501    0  0.00000000000E+00 -0.00000000000E+00 -0.70650669136E+02  0.70650669136E+02  0.00000000000E+00 0. -1.
         25    2    1    2    0    0  0.23101637967E+02  0.53201611285E+01  0.31881649856E+02  0.13124935493E+03  0.12509182140E+03 0.  0.
         23    2    1    2    0    0 -0.23101637967E+02 -0.53201611285E+01  0.83149876262E+02  0.12508350946E+03  0.90388011512E+02 0.  0.
          5    1    3    3  502    0 -0.28464354662E+02  0.33948940296E+02 -0.23423234743E+02  0.50287874874E+02  0.41800000000E+01 0. -1.
         -5    1    3    3    0  502  0.51565992629E+02 -0.28628779167E+02  0.55304884600E+02  0.80961480057E+02  0.41800000000E+01 0. -1.
        -11    1    4    4    0    0  0.22831111336E+02 -0.86736636297E+01  0.74266861028E+02  0.78179656769E+02  0.00000000000E+00 0.  1.
         11    1    4    4    0    0 -0.45932749303E+02  0.33535025013E+01  0.88830152341E+01  0.46903852690E+02  0.00000000000E+00 0. -1.
</event>
<event>
 8    1  0.7232317E-009  0.9124321E+02  0.7561462E-02  0.1299869E+00
          4   -1    0    0  501    0  0.00000000000E+00  0.00000000000E+00  0.47784397658E+03  0.47784397658E+03  0.00000000000E+00 0. -1.
         -4   -1    0    0    0  501 -0.00000000000E+00 -0.00000000000E+00 -0.26982813882E+02  0.26982813882E+02  0.00000000000E+00 0.  1.
         25    2    1    2    0    0  0.11042398276E+02 -0.34303753401E+02  0.26472893814E+03  0.29500547571E+03  0.12509251759E+03 0.  0.
         23    2    1    2    0    0 -0.11042398276E+02  0.34303753401E+02  0.18613222456E+03  0.20982131475E+03  0.89894922243E+02 0.  0.
          5    1    3    3  502    0 -0.51340603935E+02 -0.29303593438E+02  0.77578012719E+02  0.97623658292E+02  0.41800000000E+01 0.  1.
         -5    1    3    3    0  502  0.62383002211E+02 -0.50001599623E+01  0.18715092542E+03  0.19738181742E+03  0.41800000000E+01 0.  1.
        -11    1    4    4    0    0  0.19397016830E+02  0.13275794526E+02  0.38448668980E+01  0.23817514221E+02  0.00000000000E+00 0.  1.
         11    1    4    4    0    0 -0.30439415106E+02  0.21027958875E+02  0.18228735766E+03  0.18600380052E+03  0.00000000000E+00 0. -1.
</event>
<event>
 8    1  0.7232317E-009  0.1524610E+03  0.7561462E-02  0.1197481E+00
         -1   -1    0    0    0  501 -0.00000000000E+00  0.00000000000E+00  0.43143891311E+02  0.43143891311E+02  0.00000000000E+00 0.  1.
          1   -1    0    0  501    0  0.00000000000E+00 -0.00000000000E+00 -0.55482039773E+03  0.55482039773E+03  0.00000000000E+00 0. -1.
         25    2    1    2    0    0 -0.11144008716E+02  0.10745081917E+03 -0.30753609361E+03  0.34913491996E+03  0.12508747336E+03 0.  0.
         23    2    1    2    0    0  0.11144008716E+02 -0.10745081917E+03 -0.20414041280E+03  0.24882936908E+03  0.92589844503E+02 0.  0.
          5    1    3    3  502    0  0.56469941514E+02  0.41889119506E+02 -0.11733268068E+03  0.13685022098E+03  0.41800000000E+01 0.  1.
         -5    1    3    3    0  502 -0.67613950230E+02  0.65561699667E+02 -0.19020341294E+03  0.21228469898E+03  0.41800000000E+01 0.  1.
        -11    1    4    4    0    0 -0.32189126113E+02 -0.86072153699E+02 -0.11278234014E+03  0.14547993583E+03  0.00000000000E+00 0.  1.
         11    1    4    4    0    0  0.43333134829E+02 -0.21378665474E+02 -0.91358072662E+02  0.10334943324E+03  0.00000000000E+00 0. -1.
</event>
<event>
 8    1  0.7232317E-009  0.1361488E+03  0.7561462E-02  0.1218607E+00
          2   -1    0    0  501    0  0.00000000000E+00  0.00000000000E+00  0.53814723336E+03  0.53814723336E+03  0.00000000000E+00 0. -1.
         -2   -1    0    0    0  501 -0.00000000000E+00 -0.00000000000E+00 -0.47483211930E+02  0.47483211930E+02  0.00000000000E+00 0.  1.
         25    2    1    2    0    0 -0.40269528911E+02 -0.99836160786E+02  0.17934299292E+03  0.24372255790E+03  0.12509149516E+03 0.  0.
         23    2    1    2    0    0  0.40269528911E+02  0.99836160786E+02  0.31132102852E+03  0.34190788739E+03  0.91604184981E+02 0.  0.
          5    1    3    3  502    0  0.11841210456E+02  0.52862384869E+01 -0.12706239636E+02  0.18630069997E+02  0.41800000000E+01 0.  1.
         -5    1    3    3    0  502 -0.52110739367E+02 -0.10512239927E+03  0.19204923255E+03  0.22509248790E+03  0.41800000000E+01 0.  1.
        -11    1    4    4    0    0  0.70008240811E+02  0.65891025216E+02  0.21725180280E+03  0.23757341351E+03  0.00000000000E+00 0.  1.
         11    1    4    4    0    0 -0.29738711900E+02  0.33945135569E+02  0.94069225714E+02  0.10433447388E+03  0.00000000000E+00 0. -1.
</event>
<event>
 8    1  0.7232317E-009  0.8209846E+02  0.7561462E-02  0.1323200E+00
          1   -1    0    0  501    0  0.00000000000E+00  0.00000000000E+00  0.21346488542E+03  0.21346488542E+03  0.00000000000E+00 0. -1.
         -1   -1    0    0    0  501 -0.00000000000E+00 -0.00000000000E+00 -0.80781470311E+02  0.80781470311E+02  0.00000000000E+00 0.  1.
         25    2    1    2    0    0 -0.28404594480E+02  0.31987718043E+02  0.14184599594E+03  0.19389717032E+03  0.12508313636E+03 0.  0.
         23    2    1    2    0    0  0.28404594480E+02 -0.31987718043E+02 -0.91625808296E+01  0.10034918541E+03  0.90310414860E+02 0.  0.
          5    1    3    3  502    0 -0.65572908142E+02  0.37522464364E+02  0.40703509555E+02  0.85918506180E+02  0.41800000000E+01 0.  1.
         -5    1    3    3    0  502  0.37168313662E+02 -0.55347463205E+01  0.10114248639E+03  0.10797866414E+03  0.41800000000E+01 0.  1.
        -11    1    4    4    0    0 -0.33112418703E+01 -0.13735519850E+02 -0.46182950301E+02  0.48295897619E+02  0.00000000000E+00 0.  1.
         11    1    4    4    0    0  0.31715836351E+02 -0.18252198193E+02  0.37020369472E+02  0.52053287794E+02  0.00000000000E+00 0. -1.
</event>
<event>
 8    1  0.7232317E-009  0.9795107E+02  0.7561462E-02  0.1284665E+00
          1   -1    0    0  501    0  0.00000000000E+00  0.00000000000E+00  0.62475401623E+03  0.62475401623E+03  0.00000000000E+00 0. -1.
         -1   -1    0    0    0  501 -0.00000000000E+00 -0.00000000000E+00 -0.22451352143E+02  0.22451352143E+02  0.00000000000E+00 0.  1.
         25    2    1    2    0    0  0.29100046031E+02 -0.17981569727E+02  0.42582985872E+03  0.44513838280E+03  0.12508781609E+03 0.  0.
         23    2    1    2    0    0 -0.29100046031E+02  0.17981569727E+02  0.17647280536E+03  0.20206698557E+03  0.92294453227E+02 0.  0.
          5    1    3    3  502    0  0.61090659038E+02  0.25829038148E+02  0.15104756359E+03  0.16502135225E+03  0.41800000000E+01 0.  1.
         -5    1    3    3    0  502 -0.31990613008E+02 -0.43810607876E+02  0.27478229513E+03  0.28011703055E+03  0.41800000000E+01 0.  1.
        -11    1    4    4    0    0  0.43669250808E+01  0.36518159927E+02  0.21845145636E+02  0.42776821141E+02  0.00000000000E+00 0.  1.
         11    1    4    4    0    0 -0.33466971111E+02 -0.18536590200E+02  0.15462765973E+03  0.15929016443E+03  0.00000000000E+00 0. -1.
</event>
<event>
 8    1  0.7232317E-009  0.2066784E+03  0.7561462E-02  0.1144224E+00
          2   -1    0    0  501    0  0.00000000000E+00  0.00000000000E+00  0.86736906480E+02  0.86736906480E+02  0.00000000000E+00 0.  1.
         -2   -1    0    0    0  501 -0.00000000000E+00 -0.00000000000E+00 -0.82196577857E+03  0.82196577857E+03  0.00000000000E+00 0. -1.
         25    2    1    2    0    0  0.19590562997E+03 -0.14849986223E+02 -0.62359741507E+03  0.66567274397E+03  0.12508768141E+03 0.  0.
         23    2    1    2    0    0 -0.19590562997E+03  0.14849986223E+02 -0.11163145702E+03  0.24302994108E+03  0.89456314029E+02 0.  0.
          5    1    3    3  502    0  0.12240738154E+03 -0.28314295713E+02 -0.53560287858E+03  0.55015741596E+03  0.41800000000E+01 0. -1.
         -5    1    3    3    0  502  0.73498248435E+02  0.13464309490E+02 -0.87994536495E+02  0.11551532801E+03  0.41800000000E+01 0. -1.
        -11    1    4    4    0    0 -0.14424558495E+03 -0.26474294259E+02 -0.57401424371E+02  0.15748841403E+03  0.00000000000E+00 0.  1.
         11    1    4    4    0    0 -0.51660045024E+02  0.41324280482E+02 -0.54230032650E+02  0.85541527052E+02  0.00000000000E+00 0. -1.
</event>
<event>
 8    1  0.7232317E-009  0.1645381E+03  0.7561462E-02  0.1183667E+00
         -1   -1    0    0    0  501 -0.00000000000E+00  0.00000000000E+00  0.74451723922E+02  0.74451723922E+02  0.00000000000E+00 0.  1.
          1   -1    0    0  501    0  0.00000000000E+00 -0.00000000000E+00 -0.50836660363E+03  0.50836660363E+03  0.00000000000E+00 0. -1.
         25    2    1    2    0    0  0.10084329023E+03 -0.12700793362E+03 -0.26769394282E+03  0.33705787719E+03  0.12509029207E+03 0.  0.
         23    2    1    2    0    0 -0.10084329023E+03  0.12700793362E+03 -0.16622093689E+03  0.24576045036E+03  0.80426455304E+02 0.  0.
          5    1    3    3  502    0  0.10100677424E+03 -0.11891158460E+03 -0.14191571536E+03  0.21094993733E+03  0.41800000000E+01 0. -1.
         -5    1    3    3    0  502 -0.16348400050E+00 -0.80963490153E+01 -0.12577822745E+03  0.12610793986E+03  0.41800000000E+01 0. -1.
        -11    1    4    4    0    0 -0.39370231253E+02  0.32044313881E+02 -0.10617982869E+03  0.11769031048E+03  0.00000000000E+00 0. -1.
         11    1    4    4    0    0 -0.61473058981E+02  0.94963619734E+02 -0.60041108200E+02  0.12807013987E+03  0.00000000000E+00 0.  1.
</event>
<event>
 8    1  0.7232317E-009  0.1411662E+03  0.7561462E-02  0.1211768E+00
          2   -1    0    0  501    0  0.00000000000E+00  0.00000000000E+00  0.23811661412E+03  0.23811661412E+03  0.00000000000E+00 0. -1.
         -2   -1    0    0    0  501 -0.00000000000E+00 -0.00000000000E+00 -0.91064342210E+02  0.91064342210E+02  0.00000000000E+00 0.  1.
         25    2    1    2    0    0  0.43598867668E+02  0.80581734000E+02  0.11860138548E+03  0.19521156547E+03  0.12508792723E+03 0.  0.
         23    2    1    2    0    0 -0.43598867668E+02 -0.80581734000E+02  0.28450886439E+02  0.13396939087E+03  0.93509719464E+02 0.  0.
          5    1    3    3  502    0 -0.43757020938E+02  0.21480588083E+02  0.29903375460E+02  0.57339138550E+02  0.41800000000E+01 0. -1.
         -5    1    3    3    0  502  0.87355888606E+02  0.59101145917E+02  0.88698010016E+02  0.13787242692E+03  0.41800000000E+01 0. -1.
        -11    1    4    4    0    0 -0.17310573241E+01 -0.85662604516E+02  0.32418795669E+02  0.91608169311E+02  0.00000000000E+00 0. -1.
         11    1    4    4    0    0 -0.41867810344E+02  0.50808705162E+01 -0.39679092300E+01  0.42361221558E+02  0.00000000000E+00 0.  1.
</event>
<event>
 8    1  0.7232317E-009  0.1103017E+03  0.7561462E-02  0.1260012E+00
         -2   -1    0    0    0  501 -0.00000000000E+00  0.00000000000E+00  0.21517583715E+02  0.21517583715E+02  0.00000000000E+00 0.  1.
          2   -1    0    0  501    0  0.00000000000E+00 -0.00000000000E+00 -0.58933275131E+03  0.58933275131E+03  0.00000000000E+00 0. -1.
         25    2    1    2    0    0  0.67759754318E+01 -0.17726586012E+02 -0.27259503463E+03  0.30052461320E+03  0.12508734764E+03 0.  0.
         23    2    1    2    0    0 -0.67759754318E+01  0.17726586012E+02 -0.29522013297E+03  0.31032572182E+03  0.93738898130E+02 0.  0.
          5    1    3    3  502    0  0.82644632566E+01  0.53815424819E+02 -0.12696527028E+03  0.13821017892E+03  0.41800000000E+01 0.  1.
         -5    1    3    3    0  502 -0.14884878248E+01 -0.71542010831E+02 -0.14562976435E+03  0.16231443427E+03  0.41800000000E+01 0.  1.
        -11    1    4    4    0    0 -0.49422056075E+02  0.14710370012E+02 -0.18663356509E+03  0.19362598542E+03  0.00000000000E+00 0.  1.
         11    1    4    4    0    0  0.42646080643E+02  0.30162159999E+01 -0.10858656788E+03  0.11669973640E+03  0.00000000000E+00 0. -1.
</event>
<event>
 8    1  0.7232317E-009  0.9252225E+02  0.7561462E-02  0.1296856E+00
         -2   -1    0    0    0  501 -0.00000000000E+00  0.00000000000E+00  0.14305019614E+02  0.14305019614E+02  0.00000000000E+00 0.  1.
          2   -1    0    0  501    0  0.00000000000E+00 -0.00000000000E+00 -0.12313167455E+04  0.12313167455E+04  0.00000000000E+00 0. -1.
         25    2    1    2    0    0  0.67673907829E+01  0.62317197222E+02 -0.88026148489E+03  0.89131203904E+03  0.12509052126E+03 0.  0.
         23    2    1    2    0    0 -0.67673907829E+01 -0.62317197222E+02 -0.33675024097E+03  0.35430972605E+03  0.90583809430E+02 0.  0.
          5    1    3    3  502    0 -0.19514491094E+02  0.11131591610E+02 -0.72998336700E+03  0.73034095887E+03  0.41800000000E+01 0.  1.
         -5    1    3    3    0  502  0.26281881877E+02  0.51185605612E+02 -0.15027811788E+03  0.16097108017E+03  0.41800000000E+01 0.  1.
        -11    1    4    4    0    0 -0.20051964762E+02 -0.79949536757E+02 -0.20900853705E+03  0.22467438278E+03  0.00000000000E+00 0. -1.
         11    1    4    4    0    0  0.13284573979E+02  0.17632339535E+02 -0.12774170392E+03  0.12963534327E+03  0.00000000000E+00 0.  1.
</event>
<event>
 8    1  0.7232317E-009  0.1383128E+03  0.7561462E-02  0.1215617E+00
          1   -1    0    0  501    0  0.00000000000E+00  0.00000000000E+00  0.26738375339E+03  0.26738375339E+03  0.00000000000E+00 0.  1.
         -1   -1    0    0    0  501 -0.00000000000E+00 -0.00000000000E+00 -0.10541746248E+03  0.10541746248E+03  0.00000000000E+00 0. -1.
         25    2    1    2    0    0  0.59473911359E+02  0.10340248606E+03  0.13650487247E+03  0.22025103693E+03  0.12509084222E+03 0.  0.
         23    2    1    2    0    0 -0.59473911359E+02 -0.10340248606E+03  0.25461418448E+02  0.15255017894E+03  0.91619064656E+02 0.  0.
          5    1    3    3  502    0 -0.23524461283E+02  0.52362361108E+02  0.67776885825E+01  0.57953659091E+02  0.41800000000E+01 0.  1.
         -5    1    3    3    0  502  0.82998372642E+02  0.51040124956E+02  0.12972718388E+03  0.16229737784E+03  0.41800000000E+01 0.  1.
        -11    1    4    4    0    0 -0.71232348022E+01 -0.33287424102E+02 -0.32923301222E+02  0.47357542596E+02  0.00000000000E+00 0. -1.
         11    1    4    4    0    0 -0.52350676556E+02 -0.70115061962E+02  0.58384719670E+02  0.10519263634E+03  0.00000000000E+00 0.  1.
</event>
<event>
 8    1  0.7232317E-009  0.2713948E+03  0.7561462E-02  0.1100484E+00
          1   -1    0    0  501    0  0.00000000000E+00  0.00000000000E+00  0.31806258223E+03  0.31806258223E+03  0.00000000000E+00 0.  1.
         -1   -1    0    0    0  501 -0.00000000000E+00 -0.00000000000E+00 -0.25164406854E+03  0.25164406854E+03  0.00000000000E+00 0. -1.
         25    2    1    2    0    0  0.11266017761E+03  0.22645500837E+03 -0.30635925459E+02  0.28383305294E+03  0.12509378713E+03 0.  0.
         23    2    1    2    0    0 -0.11266017761E+03 -0.22645500837E+03  0.97054439152E+02  0.28587359782E+03  0.91268632817E+02 0.  0.
          5    1    3    3  502    0  0.10749312291E+02  0.15864671570E+03 -0.79030295147E+01  0.15926160363E+03  0.41800000000E+01 0.  1.
         -5    1    3    3    0  502  0.10191086532E+03  0.67808292676E+02 -0.22732895944E+02  0.12457144931E+03  0.41800000000E+01 0.  1.
        -11    1    4    4    0    0 -0.36866348837E+01 -0.72671445427E+02  0.58795035787E+02  0.93549914433E+02  0.00000000000E+00 0.  1.
         11    1    4    4    0    0 -0.10897354272E+03 -0.15378356295E+03  0.38259403365E+02  0.19232368339E+03  0.00000000000E+00 0. -1.
</event>
<event>
 8    1  0.7232317E-009  0.1086940E+03  0.7561462E-02  0.1263008E+00
          1   -1    0    0  501    0  0.00000000000E+00  0.00000000000E+00  0.32314934290E+02  0.32314934290E+02  0.00000000000E+00 0. -1.
         -1   -1    0    0    0  501 -0.00000000000E+00 -0.00000000000E+00 -0.50147884866E+03  0.50147884866E+03  0.00000000000E+00 0.  1.
         25    2    1    2    0    0 -0.62623480129E+02  0.22932212536E+02 -0.29106761366E+03  0.32375166575E+03  0.12508876334E+03 0.  0.
         23    2    1    2    0    0  0.62623480129E+02 -0.22932212536E+02 -0.17809630071E+03  0.21004211721E+03  0.89172933334E+02 0.  0.
          5    1    3    3  502    0 -0.86188197662E+02 -0.12808487039E+02 -0.24794813567E+03  0.26284636794E+03  0.41800000000E+01 0.  1.
         -5    1    3    3    0  502  0.23564717534E+02  0.35740699575E+02 -0.43119477995E+02  0.60905297808E+02  0.41800000000E+01 0.  1.
        -11    1    4    4    0    0 -0.42386291702E+01 -0.19752221115E+02 -0.45418580003E+00  0.20206991388E+02  0.00000000000E+00 0. -1.
         11    1    4    4    0    0  0.66862109299E+02 -0.31799914214E+01 -0.17764211491E+03  0.18983512582E+03  0.00000000000E+00 0.  1.
</event>
<event>
 8    1  0.7232317E-009  0.1168761E+03  0.7561462E-02  0.1248341E+00
         -1   -1    0    0    0  501 -0.00000000000E+00  0.00000000000E+00  0.12166192868E+03  0.12166192868E+03  0.00000000000E+00 0.  1.
          1   -1    0    0  501    0  0.00000000000E+00 -0.00000000000E+00 -0.11873215399E+03  0.11873215399E+03  0.00000000000E+00 0. -1.
         25    2    1    2    0    0  0.28673322626E+01 -0.24317134736E+02 -0.60010858853E+01  0.12760661968E+03  0.12509153336E+03 0.  0.
         23    2    1    2    0    0 -0.28673322626E+01  0.24317134736E+02  0.89308605721E+01  0.11278746300E+03  0.10973471148E+03 0.  0.
          5    1    3    3  502    0  0.49681558469E+02  0.22774470181E+02 -0.22187461440E+02  0.59132813134E+02  0.41800000000E+01 0.  1.
         -5    1    3    3    0  502 -0.46814226206E+02 -0.47091604917E+02  0.16186375555E+02  0.68473806544E+02  0.41800000000E+01 0.  1.
        -11    1    4    4    0    0 -0.33872064598E+02 -0.32969178234E+02  0.49687718809E+01  0.47528645758E+02  0.00000000000E+00 0.  1.
         11    1    4    4    0    0  0.31004732336E+02  0.57286312970E+02  0.39620886912E+01  0.65258817241E+02  0.00000000000E+00 0. -1.
</event>
<event>
 8    1  0.7232317E-009  0.1006188E+03  0.7561462E-02  0.1279000E+00
          2   -1    0    0  501    0  0.00000000000E+00  0.00000000000E+00  0.47357604908E+03  0.47357604908E+03  0.00000000000E+00 0. -1.
         -2   -1    0    0    0  501 -0.00000000000E+00 -0.00000000000E+00 -0.38685627169E+02  0.38685627169E+02  0.00000000000E+00 0.  1.
         25    2    1    2    0    0  0.16798198837E+02 -0.78444728551E+02  0.24879647796E+03  0.28979737028E+03  0.12508826266E+03 0.  0.
         23    2    1    2    0    0 -0.16798198837E+02  0.78444728551E+02  0.18609394395E+03  0.22246430596E+03  0.91780480121E+02 0.  0.
          5    1    3    3  502    0  0.27950216714E+02 -0.82355896475E+02  0.25924647948E+03  0.27347745395E+03  0.41800000000E+01 0. -1.
         -5    1    3    3    0  502 -0.11152017878E+02  0.39111679234E+01 -0.10450001519E+02  0.16319916330E+02  0.41800000000E+01 0. -1.
        -11    1    4    4    0    0 -0.40704080501E+02  0.50203135493E+02  0.17045002411E+03  0.18229203960E+03  0.00000000000E+00 0. -1.
         11    1    4    4    0    0  0.23905881665E+02  0.28241593058E+02  0.15643919837E+02  0.40172266360E+02  0.00000000000E+00 0.  1.
</event>
<event>
 8    1  0.7232317E-009  0.1446667E+03  0.7561462E-02  0.1207184E+00
          2   -1    0    0  501    0  0.00000000000E+00  0.00000000000E+00  0.25630425959E+04  0.25630425959E+04  0.00000000000E+00 0. -1.
         -2   -1    0    0    0  501 -0.00000000000E+00 -0.00000000000E+00 -0.15542265049E+02  0.15542265049E+02  0.00000000000E+00 0.  1.
         25    2    1    2    0    0 -0.10535554648E+03  0.62169315206E+02  0.21103884282E+04  0.21176289039E+04  0.12509213335E+03 0.  0.
         23    2    1    2    0    0  0.10535554648E+03 -0.62169315206E+02  0.43711190267E+03  0.46095595706E+03  0.80304196476E+02 0.  0.
          5    1    3    3  502    0 -0.12064843846E+03  0.45105204276E+02  0.20257174716E+04  0.20298126200E+04  0.41800000000E+01 0.  1.
         -5    1    3    3    0  502  0.15292891980E+02  0.17064110929E+02  0.84670956602E+02  0.87816283905E+02  0.41800000000E+01 0.  1.
        -11    1    4    4    0    0  0.48835212323E+02 -0.64139010074E+02  0.17304959956E+03  0.19090535478E+03  0.00000000000E+00 0.  1.
         11    1    4    4    0    0  0.56520334161E+02  0.19696948681E+01  0.26406230311E+03  0.27005060229E+03  0.00000000000E+00 0. -1.
</event>
<event>
 8    1  0.7232317E-009  0.1220529E+03  0.7561462E-02  0.1239748E+00
          2   -1    0    0  501    0  0.00000000000E+00  0.00000000000E+00  0.20240580218E+03  0.20240580218E+03  0.00000000000E+00 0. -1.
         -2   -1    0    0    0  501 -0.00000000000E+00 -0.00000000000E+00 -0.92312800417E+02  0.92312800417E+02  0.00000000000E+00 0.  1.
         25    2    1    2    0    0 -0.26615259737E+02 -0.62714149482E+02  0.10985519443E+03  0.17988249652E+03  0.12509241470E+03 0.  0.
         23    2    1    2    0    0  0.26615259737E+02  0.62714149482E+02  0.23780733920E+00  0.11483610608E+03  0.92443702393E+02 0.  0.
          5    1    3    3  502    0 -0.13023957693E+02 -0.10083228274E+03  0.78095508327E+02  0.12826984656E+03  0.41800000000E+01 0. -1.
         -5    1    3    3    0  502 -0.13591302044E+02  0.38118133256E+02  0.31759686099E+02  0.51612649954E+02  0.41800000000E+01 0. -1.
        -11    1    4    4    0    0  0.94699267095E+01 -0.17360990749E+02 -0.22394186419E+02  0.29876129218E+02  0.00000000000E+00 0.  1.
         11    1    4    4    0    0  0.17145333027E+02  0.80075140232E+02  0.22631993758E+02  0.84959976867E+02  0.00000000000E+00 0. -1.
</event>
<event>
 8    1  0.7232317E-009  0.1041042E+03  0.7561462E-02  0.1271895E+00
          2   -1    0    0  501    0  0.00000000000E+00  0.00000000000E+00  0.56927979186E+03  0.56927979186E+03  0.00000000000E+00 0. -1.
         -2   -1    0    0    0  501 -0.00000000000E+00 -0.00000000000E+00 -0.32153090013E+02  0.32153090013E+02  0.00000000000E+00 0.  1.
         25    2    1    2    0    0  0.39740731734E+02  0.66159290854E+02  0.32531842384E+03  0.35698256797E+03  0.12509236357E+03 0.  0.
         23    2    1    2    0    0 -0.39740731734E+02 -0.66159290854E+02  0.21180827801E+03  0.24445031390E+03  0.94534817964E+02 0.  0.
          5    1    3    3  502    0 -0.22322728504E+02  0.14661848741E+02  0.23201890522E+03  0.23358835330E+03  0.41800000000E+01 0.  1.
         -5    1    3    3    0  502  0.62063460238E+02  0.51497442113E+02  0.93299518614E+02  0.12339421467E+03  0.41800000000E+01 0.  1.
        -11    1    4    4    0    0  0.59811360575E+01 -0.52305801490E+02  0.39986681354E+02  0.66110555464E+02  0.00000000000E+00 0.  1.
         11    1    4    4    0    0 -0.45721867792E+02 -0.13853489364E+02  0.17182159666E+03  0.17833975844E+03  0.00000000000E+00 0. -1.
</event>
<event>
 8    1  0.7232317E-009  0.1045834E+03  0.7561462E-02  0.1270943E+00
         -4   -1    0    0    0  501 -0.00000000000E+00  0.00000000000E+00  0.53353434918E+03  0.53353434918E+03  0.00000000000E+00 0. -1.
          4   -1    0    0  501    0  0.00000000000E+00 -0.00000000000E+00 -0.40314379721E+02  0.40314379721E+02  0.00000000000E+00 0.  1.
         25    2    1    2    0    0  0.18045284244E+02 -0.15713760990E+02  0.45530750121E+03  0.47278403796E+03  0.12508905355E+03 0.  0.
         23    2    1    2    0    0 -0.18045284244E+02  0.15713760990E+02  0.37912468247E+02  0.10106469095E+03  0.90576828934E+02 0.  0.
          5    1    3    3  502    0 -0.46930890300E+02  0.14612418415E+02  0.26111214546E+03  0.26573117270E+03  0.41800000000E+01 0. -1.
         -5    1    3    3    0  502  0.64976174544E+02 -0.30326179406E+02  0.19419535576E+03  0.20705286526E+03  0.41800000000E+01 0. -1.
        -11    1    4    4    0    0 -0.30389410477E+02 -0.28768400833E+02  0.35436666569E+02  0.54835157455E+02  0.00000000000E+00 0. -1.
         11    1    4    4    0    0  0.12344126233E+02  0.44482161823E+02  0.24758016774E+01  0.46229533491E+02  0.00000000000E+00 0.  1.
</event>
<event>
 7    1  0.7232317E-009  0.1375103E+03  0.7561462E-02  0.1216719E+00
         -1   -1    0    0    0  501 -0.00000000000E+00  0.00000000000E+00  0.33043063384E+02  0.33043063384E+02  0.00000000000E+00 0.  1.
          1   -1    0    0  501    0  0.00000000000E+00 -0.00000000000E+00 -0.63429695999E+03  0.63429695999E+03  0.00000000000E+00 0. -1.
         23    2    1    2    0    0 -0.31051502931E+02  0.80808541900E+02 -0.18453215315E+03  0.22370092844E+03  0.92172520648E+02 0.  0.
          5    1    1    2  502    0 -0.43003723168E+02 -0.57627971225E+02 -0.24025718215E+03  0.25082122966E+03  0.41800000000E+01 0. -1.
         -5    1    1    2    0  502  0.74055226099E+02 -0.23180570675E+02 -0.17646456130E+03  0.19281786526E+03  0.41800000000E+01 0. -1.
        -11    1    3    3    0    0  0.31835900485E+02  0.18831174962E+02 -0.41312294344E+02  0.55451270266E+02  0.00000000000E+00 0.  1.
         11    1    3    3    0    0 -0.62887403416E+02  0.61977366937E+02 -0.14321985880E+03  0.16824965818E+03  0.00000000000E+00 0. -1.
</event>
<event>
 8    1  0.7232317E-009  0.8860509E+02  0.7561462E-02  0.1306265E+00
          3   -1    0    0  501    0  0.00000000000E+00  0.00000000000E+00  0.53919893794E+02  0.53919893794E+02  0.00000000000E+00 0. -1.
         -3   -1    0    0    0  501 -0.00000000000E+00 -0.00000000000E+00 -0.25622198565E+03  0.25622198565E+03  0.00000000000E+00 0.  1.
         25    2    1    2    0    0 -0.27934267027E+02  0.37794264058E+02 -0.11682350603E+03  0.17748971247E+03  0.12508451863E+03 0.  0.
         23    2    1    2    0    0  0.27934267027E+02 -0.37794264058E+02 -0.85478585835E+02  0.13265216698E+03  0.89895934830E+02 0.  0.
          5    1    3    3  502    0 -0.84491650649E+01 -0.27634195338E+02  0.12053572563E+02  0.31587943171E+02  0.41800000000E+01 0. -1.
         -5    1    3    3    0  502 -0.19485101962E+02  0.65428459395E+02 -0.12887707859E+03  0.14590176929E+03  0.41800000000E+01 0. -1.
        -11    1    4    4    0    0 -0.16517972157E+02 -0.30337721741E+02 -0.80135232680E+02  0.87263258484E+02  0.00000000000E+00 0.  1.
         11    1    4    4    0    0  0.44452239184E+02 -0.74565423170E+01 -0.53433531551E+01  0.45388908499E+02  0.00000000000E+00 0. -1.
</event>
<event>
 8    1  0.7232317E-009  0.1255066E+03  0.7561462E-02  0.1234280E+00
          3   -1    0    0  501    0  0.00000000000E+00  0.00000000000E+00  0.16609248849E+03  0.16609248849E+03  0.00000000000E+00 0. -1.
         -3   -1    0    0    0  501 -0.00000000000E+00 -0.00000000000E+00 -0.11559882674E+03  0.11559882674E+03  0.00000000000E+00 0.  1.
         25    2    1    2    0    0 -0.54328892460E+02 -0.67692966224E+02  0.31304460032E+02  0.15544246244E+03  0.12509365963E+03 0.  0.
         23    2    1    2    0    0  0.54328892460E+02  0.67692966224E+02  0.19189201716E+02  0.12624885279E+03  0.89646980624E+02 0.  0.
          5    1    3    3  502    0 -0.56016922785E+02 -0.89195866444E+02  0.58441462134E+02  0.12052665732E+03  0.41800000000E+01 0. -1.
         -5    1    3    3    0  502  0.16880303256E+01  0.21502900220E+02 -0.27137002101E+02  0.34915805121E+02  0.41800000000E+01 0. -1.
        -11    1    4    4    0    0  0.44649760183E+02 -0.96549653903E+01  0.15392429666E+02  0.48205252121E+02  0.00000000000E+00 0.  1.
         11    1    4    4    0    0  0.96791322771E+01  0.77347931614E+02  0.37967720503E+01  0.78043600664E+02  0.00000000000E+00 0. -1.
</event>
<event>
 8    1  0.7232317E-009  0.1425285E+03  0.7561462E-02  0.1209967E+00
          2   -1    0    0  501    0  0.00000000000E+00  0.00000000000E+00  0.17963583885E+03  0.17963583885E+03  0.00000000000E+00 0. -1.
         -2   -1    0    0    0  501 -0.00000000000E+00 -0.00000000000E+00 -0.15841558591E+03  0.15841558591E+03  0.00000000000E+00 0.  1.
         25    2    1    2    0    0 -0.11419463911E+03 -0.57133257348E+02  0.24523059408E+02  0.18042581561E+03  0.12508984690E+03 0.  0.
         23    2    1    2    0    0  0.11419463911E+03  0.57133257348E+02 -0.33028064677E+01  0.15762560914E+03  0.92359620126E+02 0.  0.
          5    1    3    3  502    0 -0.10360271147E+03 -0.43469968740E+02  0.69419148942E+02  0.13213497132E+03  0.41800000000E+01 0.  1.
         -5    1    3    3    0  502 -0.10591927648E+02 -0.13663288608E+02 -0.44896089533E+02  0.48290844290E+02  0.41800000000E+01 0.  1.
        -11    1    4    4    0    0  0.84549419855E+02 -0.63385996092E+01  0.12793592180E+02  0.85746476567E+02  0.00000000000E+00 0.  1.
         11    1    4    4    0    0  0.29645219259E+02  0.63471856957E+02 -0.16096398648E+02  0.71879132576E+02  0.00000000000E+00 0. -1.
</event>
<event>
 8    1  0.7232317E-009  0.1005645E+03  0.7561462E-02  0.1279113E+00
          3   -1    0    0  501    0  0.00000000000E+00  0.00000000000E+00  0.18055611806E+03  0.18055611806E+03  0.00000000000E+00 0. -1.
         -3   -1    0    0    0  501 -0.00000000000E+00 -0.00000000000E+00 -0.73445010992E+02  0.73445010992E+02  0.00000000000E+00 0.  1.
         25    2    1    2    0    0 -0.40353748201E+02  0.43674452010E+02  0.33273214315E+02  0.14244531141E+03  0.12509067592E+03 0.  0.
         23    2    1    2    0    0  0.40353748201E+02 -0.43674452010E+02  0.73837892750E+02  0.11155581763E+03  0.58794415466E+02 0.  0.
          5    1    3    3  502    0 -0.28192891254E+02  0.82759997250E+02 -0.30163375993E+01  0.87582115495E+02  0.41800000000E+01 0. -1.
         -5    1    3    3    0  502 -0.12160856946E+02 -0.39085545240E+02  0.36289551915E+02  0.54863195920E+02  0.41800000000E+01 0. -1.
        -11    1    4    4    0    0  0.80531176991E+01  0.81040869606E+01 -0.44767601935E+01  0.12270709514E+02  0.00000000000E+00 0. -1.
         11    1    4    4    0    0  0.32300630502E+02 -0.51778538970E+02  0.78314652944E+02  0.99285108120E+02  0.00000000000E+00 0.  1.
</event>
<event>
 8    1  0.7232317E-009  0.1169520E+03  0.7561462E-02  0.1248212E+00
         -1   -1    0    0    0  501 -0.00000000000E+00  0.00000000000E+00  0.22952447336E+02  0.22952447336E+02  0.00000000000E+00 0.  1.
          1   -1    0    0  501    0  0.00000000000E+00 -0.00000000000E+00 -0.78463739006E+03  0.78463739006E+03  0.00000000000E+00 0. -1.
         25    2    1    2    0    0  0.42358147464E+02  0.65644537596E+02 -0.42016253685E+03  0.44529449850E+03  0.12508882864E+03 0.  0.
         23    2    1    2    0    0 -0.42358147464E+02 -0.65644537596E+02 -0.34152240587E+03  0.36229533890E+03  0.92287273761E+02 0.  0.
          5    1    3    3  502    0  0.80976127233E+02  0.50612496621E+02 -0.20567590081E+03  0.22680124905E+03  0.41800000000E+01 0.  1.
         -5    1    3    3    0  502 -0.38617979768E+02  0.15032040974E+02 -0.21448663604E+03  0.21849324945E+03  0.41800000000E+01 0.  1.
        -11    1    4    4    0    0 -0.18569490557E+02  0.72933397283E+01 -0.10590729333E+02  0.22587216113E+02  0.00000000000E+00 0.  1.
         11    1    4    4    0    0 -0.23788656908E+02 -0.72937877324E+02 -0.33093167654E+03  0.33970812278E+03  0.00000000000E+00 0. -1.
</event>
<event>
 8    1  0.7232317E-009  0.2063559E+03  0.7561462E-02  0.1144485E+00
         -1   -1    0    0    0  501 -0.00000000000E+00  0.00000000000E+00  0.46977790351E+02  0.46977790351E+02  0.00000000000E+00 0.  1.
          1   -1    0    0  501    0  0.00000000000E+00 -0.00000000000E+00 -0.11010443918E+04  0.11010443918E+04  0.00000000000E+00 0. -1.
         25    2    1    2    0    0  0.19630959776E+03 -0.25164795812E+02 -0.60539857828E+03  0.64909598291E+03  0.12508969312E+03 0.  0.
         23    2    1    2    0    0 -0.19630959776E+03  0.25164795812E+02 -0.44866802320E+03  0.49892619928E+03  0.91943635787E+02 0.  0.
          5    1    3    3  502    0  0.15565816190E+03  0.16005924419E+02 -0.30153357379E+03  0.33974346426E+03  0.41800000000E+01 0. -1.
         -5    1    3    3    0  502  0.40651435853E+02 -0.41170720231E+02 -0.30386500449E+03  0.30935251865E+03  0.41800000000E+01 0. -1.
        -11    1    4    4    0    0 -0.11787080867E+03  0.20038170847E+02 -0.15994142375E+03  0.19969054774E+03  0.00000000000E+00 0.  1.
         11    1    4    4    0    0 -0.78438789087E+02  0.51266249651E+01 -0.28872659946E+03  0.29923565154E+03  0.00000000000E+00 0. -1.
</event>
<event>
 8    1  0.7232317E-009  0.7483222E+02  0.7561462E-02  0.1344391E+00
         -3   -1    0    0    0  501 -0.00000000000E+00  0.00000000000E+00  0.24490108291E+03  0.24490108291E+03  0.00000000000E+00 0.  1.
          3   -1    0    0  501    0  0.00000000000E+00 -0.00000000000E+00 -0.55956084478E+02  0.55956084478E+02  0.00000000000E+00 0. -1.
         25    2    1    2    0    0 -0.19607389845E+02  0.29502839809E+02  0.60025466772E+02  0.14319772307E+03  0.12509062290E+03 0.  0.
         23    2    1    2    0    0  0.19607389845E+02 -0.29502839809E+02  0.12891953166E+03  0.15765944432E+03  0.83554697332E+02 0.  0.
          5    1    3    3  502    0 -0.43907730742E+02  0.90686605855E+01  0.89171766310E+02  0.99895974547E+02  0.41800000000E+01 0.  1.
         -5    1    3    3    0  502  0.24300340897E+02  0.20434179223E+02 -0.29146299538E+02  0.43301748521E+02  0.41800000000E+01 0.  1.
        -11    1    4    4    0    0 -0.14101797212E+02 -0.35657866165E+02  0.11401772332E+03  0.12029291473E+03  0.00000000000E+00 0.  1.
         11    1    4    4    0    0  0.33709187057E+02  0.61550263562E+01  0.14901808340E+02  0.37366529586E+02  0.00000000000E+00 0. -1.
</event>
<event>
 8    1  0.7232317E-009  0.1051252E+03  0.7561462E-02  0.1269873E+00
          1   -1    0    0  501    0  0.00000000000E+00  0.00000000000E+00  0.78831119388E+02  0.78831119388E+02  0.00000000000E+00 0. -1.
         -1   -1    0    0    0  501 -0.00000000000E+00 -0.00000000000E+00 -0.20997137538E+03  0.20997137538E+03  0.00000000000E+00 0.  1.
         25    2    1    2    0    0 -0.59429678232E+02 -0.34022994293E+02 -0.57315556958E+02  0.15369362125E+03  0.12508878986E+03 0.  0.
         23    2    1    2    0    0  0.59429678232E+02  0.34022994293E+02 -0.73824699029E+02  0.13510887352E+03  0.90082577231E+02 0.  0.
          5    1    3    3  502    0  0.12415938780E+02  0.72155066747E+01 -0.68395620880E+02  0.70011802062E+02  0.41800000000E+01 0. -1.
         -5    1    3    3    0  502 -0.71845617011E+02 -0.41238500968E+02  0.11080063922E+02  0.83681819186E+02  0.41800000000E+01 0. -1.
        -11    1    4    4    0    0  0.15954810892E+02 -0.30573003801E+02 -0.30301900655E+02  0.45907186097E+02  0.00000000000E+00 0.  1.
         11    1    4    4    0    0  0.43474867340E+02  0.64595998095E+02 -0.43522798374E+02  0.89201687418E+02  0.00000000000E+00 0. -1.
</event>
<event>
 8    1  0.7232317E-009  0.9482572E+02  0.7561462E-02  0.1291569E+00
         -2   -1    0    0    0  501 -0.00000000000E+00  0.00000000000E+00  0.89989499836E+02  0.89989499836E+02  0.00000000000E+00 0.  1.
          2   -1    0    0  501    0  0.00000000000E+00 -0.00000000000E+00 -0.18807874397E+03  0.18807874397E+03  0.00000000000E+00 0. -1.
         25    2    1    2    0    0 -0.29923478773E+02  0.46844810933E+02 -0.10256170638E+03  0.17104389030E+03  0.12508899991E+03 0.  0.
         23    2    1    2    0    0  0.29923478773E+02 -0.46844810933E+02  0.44724622424E+01  0.10702435351E+03  0.91347459913E+02 0.  0.
          5    1    3    3  502    0 -0.77435459977E+02  0.30905330256E+02 -0.81033063031E+02  0.11634096271E+03  0.41800000000E+01 0.  1.
         -5    1    3    3    0  502  0.47511981204E+02  0.15939480677E+02 -0.21528643345E+02  0.54702927586E+02  0.41800000000E+01 0.  1.
        -11    1    4    4    0    0  0.21208180435E+02 -0.37663762161E+02  0.46289670964E+02  0.63333084051E+02  0.00000000000E+00 0.  1.
         11    1    4    4    0    0  0.87152983378E+01 -0.91810487721E+01 -0.41817208722E+02  0.43691269459E+02  0.00000000000E+00 0. -1.
</event>
<event>
 8    1  0.7232317E-009  0.1087644E+03  0.7561462E-02  0.1262875E+00
         -3   -1    0    0    0  501 -0.00000000000E+00  0.00000000000E+00  0.11817183395E+04  0.11817183395E+04  0.00000000000E+00 0.  1.
          3   -1    0    0  501    0  0.00000000000E+00 -0.00000000000E+00 -0.11122342313E+02  0.11122342313E+02  0.00000000000E+00 0. -1.
         25    2    1    2    0    0  0.14674392322E+02 -0.33737890522E+01  0.84124077678E+03  0.85062332513E+03  0.12508907424E+03 0.  0.
         23    2    1    2    0    0 -0.14674392322E+02  0.33737890522E+01  0.32935522041E+03  0.34221735669E+03  0.91712255250E+02 0.  0.
          5    1    3    3  502    0 -0.12738854678E+02 -0.60545177195E+02  0.45098903002E+03  0.45523244008E+03  0.41800000000E+01 0. -1.
         -5    1    3    3    0  502  0.27413247001E+02  0.57171388143E+02  0.39025174676E+03  0.39539088506E+03  0.41800000000E+01 0. -1.
        -11    1    4    4    0    0 -0.44363102915E+02 -0.24988303248E+02  0.20641318454E+03  0.21260033620E+03  0.00000000000E+00 0.  1.
         11    1    4    4    0    0  0.29688710593E+02  0.28362092300E+02  0.12294203587E+03  0.12961702049E+03  0.00000000000E+00 0. -1.
</event>
<event>
 8    1  0.7232317E-009  0.1065873E+03  0.7561462E-02  0.1267023E+00
         -1   -1    0    0    0  501 -0.00000000000E+00  0.00000000000E+00  0.42081572499E+03  0.42081572499E+03  0.00000000000E+00 0.  1.
          1   -1    0    0  501    0  0.00000000000E+00 -0.00000000000E+00 -0.31292034479E+02  0.31292034479E+02  0.00000000000E+00 0. -1.
         25    2    1    2    0    0  0.26970022850E+02 -0.23996808477E+01  0.18197085890E+03  0.22247309684E+03  0.12509094583E+03 0.  0.
         23    2    1    2    0    0 -0.26970022850E+02  0.23996808477E+01  0.20755283161E+03  0.22963466263E+03  0.94449773794E+02 0.  0.
          5    1    3    3  502    0  0.30463893562E+02 -0.59252503218E+02  0.69708117261E+02  0.96517366109E+02  0.41800000000E+01 0.  1.
         -5    1    3    3    0  502 -0.34938707117E+01  0.56852822370E+02  0.11226274164E+03  0.12595573073E+03  0.41800000000E+01 0.  1.
        -11    1    4    4    0    0 -0.26729559041E+02  0.41956626445E+02  0.65941679035E+02  0.82602257010E+02  0.00000000000E+00 0. -1.
         11    1    4    4    0    0 -0.24046380929E+00 -0.39556945598E+02  0.14161115258E+03  0.14703240562E+03  0.00000000000E+00 0.  1.
</event>
<event>
 8    1  0.7232317E-009  0.1393605E+03  0.7561462E-02  0.1214192E+00
          1   -1    0    0  501    0  0.00000000000E+00  0.00000000000E+00  0.47865987021E+02  0.47865987021E+02  0.00000000000E+00 0. -1.
         -1   -1    0    0    0  501 -0.00000000000E+00 -0.00000000000E+00 -0.45399993888E+03  0.45399993888E+03  0.00000000000E+00 0.  1.
         25    2    1    2    0    0  0.98460609480E+02 -0.12074319003E+02 -0.22261624281E+03  0.27394462722E+03  0.12508951364E+03 0.  0.
         23    2    1    2    0    0 -0.98460609480E+02  0.12074319003E+02 -0.18351770905E+03  0.22792129867E+03  0.91810065118E+02 0.  0.
          5    1    3    3  502    0 -0.28617186809E+02  0.97745038012E+01 -0.46703417600E+02  0.55795751818E+02  0.41800000000E+01 0.  1.
         -5    1    3    3    0  502  0.12707779629E+03 -0.21848822804E+02 -0.17591282521E+03  0.21814887541E+03  0.41800000000E+01 0.  1.
        -11    1    4    4    0    0 -0.41155209706E+02  0.38247081138E+02 -0.14136472229E+03  0.15212026561E+03  0.00000000000E+00 0.  1.
         11    1    4    4    0    0 -0.57305399774E+02 -0.26172762136E+02 -0.42152986760E+02  0.75801033066E+02  0.00000000000E+00 0. -1.
</event>
<event>
 8    1  0.7232317E-009  0.1167182E+03  0.7561462E-02  0.1248611E+00
          2   -1    0    0  501    0  0.00000000000E+00  0.00000000000E+00  0.68117734445E+03  0.68117734445E+03  0.00000000000E+00 0. -1.
         -2   -1    0    0    0  501 -0.00000000000E+00 -0.00000000000E+00 -0.22312637488E+02  0.22312637488E+02  0.00000000000E+00 0.  1.
         25    2    1    2    0    0 -0.15735388402E+02  0.52595592016E+02  0.40256973836E+03  0.42511687973E+03  0.12509223972E+03 0.  0.
         23    2    1    2    0    0  0.15735388402E+02 -0.52595592016E+02  0.25629496859E+03  0.27837310220E+03  0.93758062890E+02 0.  0.
          5    1    3    3  502    0 -0.66431790160E+02  0.46890790106E+02  0.29432409011E+03  0.30537857057E+03  0.41800000000E+01 0. -1.
         -5    1    3    3    0  502  0.50696401757E+02  0.57048019097E+01  0.10824564825E+03  0.11973830916E+03  0.41800000000E+01 0. -1.
        -11    1    4    4    0    0 -0.27109059948E+02 -0.51231559825E+02  0.93322834216E+02  0.10985775002E+03  0.00000000000E+00 0.  1.
         11    1    4    4    0    0  0.42844448350E+02 -0.13640321912E+01  0.16297213438E+03  0.16851535218E+03  0.00000000000E+00 0. -1.
</event>
<event>
 8    1  0.7232317E-009  0.1482984E+03  0.7561462E-02  0.1202580E+00
         -2   -1    0    0    0  501 -0.00000000000E+00  0.00000000000E+00  0.12276445314E+03  0.12276445314E+03  0.00000000000E+00 0.  1.
          2   -1    0    0  501    0  0.00000000000E+00 -0.00000000000E+00 -0.26646605606E+03  0.26646605606E+03  0.00000000000E+00 0. -1.
         25    2    1    2    0    0 -0.11626158719E+03  0.39683638408E+02 -0.15740474756E+03  0.23561597323E+03  0.12508830670E+03 0.  0.
         23    2    1    2    0    0  0.11626158719E+03 -0.39683638408E+02  0.13703144647E+02  0.15361453597E+03  0.91203627542E+02 0.  0.
          5    1    3    3  502    0 -0.12829060450E+03  0.50113932876E+02 -0.16704166194E+03  0.21654162347E+03  0.41800000000E+01 0.  1.
         -5    1    3    3    0  502  0.12029017309E+02 -0.10430294468E+02  0.96369143777E+01  0.19074349762E+02  0.41800000000E+01 0.  1.
        -11    1    4    4    0    0  0.41542446425E+02  0.20568501155E+02  0.31429279181E+02  0.56005693323E+02  0.00000000000E+00 0.  1.
         11    1    4    4    0    0  0.74719140763E+02 -0.60252139563E+02 -0.17726134534E+02  0.97608842652E+02  0.00000000000E+00 0. -1.
</event>
<event>
 8    1  0.7232317E-009  0.1090644E+03  0.7561462E-02  0.1262312E+00
          1   -1    0    0  501    0  0.00000000000E+00  0.00000000000E+00  0.10167218848E+03  0.10167218848E+03  0.00000000000E+00 0. -1.
         -1   -1    0    0    0  501 -0.00000000000E+00 -0.00000000000E+00 -0.16026184762E+03  0.16026184762E+03  0.00000000000E+00 0.  1.
         25    2    1    2    0    0 -0.50289234554E+02 -0.41319279568E+02 -0.10394346940E+02  0.14139647264E+03  0.12509448450E+03 0.  0.
         23    2    1    2    0    0  0.50289234554E+02  0.41319279568E+02 -0.48195312199E+02  0.12053756345E+03  0.89276122836E+02 0.  0.
          5    1    3    3  502    0  0.39385749090E+02 -0.31121556192E+02 -0.80947873495E+01  0.51017511439E+02  0.41800000000E+01 0.  1.
         -5    1    3    3    0  502 -0.89674983644E+02 -0.10197723376E+02 -0.22995595906E+01  0.90378961202E+02  0.41800000000E+01 0.  1.
        -11    1    4    4    0    0  0.12157682411E+02  0.37102903142E+02 -0.67203932404E+02  0.77722604136E+02  0.00000000000E+00 0.  1.
         11    1    4    4    0    0  0.38131552143E+02  0.42163764257E+01  0.19008620205E+02  0.42814959314E+02  0.00000000000E+00 0. -1.
</event>
<event>
 8    1  0.7232317E-009  0.2461689E+03  0.7561462E-02  0.1115750E+00
         -2   -1    0    0    0  501 -0.00000000000E+00  0.00000000000E+00  0.15368821546E+03  0.15368821546E+03  0.00000000000E+00 0. -1.
          2   -1    0    0  501    0  0.00000000000E+00 -0.00000000000E+00 -0.58529348889E+03  0.58529348889E+03  0.00000000000E+00 0.  1.
         25    2    1    2    0    0 -0.24313393345E+03 -0.22932018146E+02 -0.53684739313E+02  0.27958699750E+03  0.12508737302E+03 0.  0.
         23    2    1    2    0    0  0.24313393345E+03  0.22932018146E+02 -0.37792053411E+03  0.45939470685E+03  0.92626019700E+02 0.  0.
          5    1    3    3  502    0 -0.85449239765E+02 -0.19545687809E+02 -0.81046615978E+02  0.11945556852E+03  0.41800000000E+01 0. -1.
         -5    1    3    3    0  502 -0.15768469368E+03 -0.33863303373E+01  0.27361876665E+02  0.16013142899E+03  0.41800000000E+01 0. -1.
        -11    1    4    4    0    0  0.11147122140E+03 -0.73229226626E+01 -0.98104980895E+02  0.14867429392E+03  0.00000000000E+00 0. -1.
         11    1    4    4    0    0  0.13166271205E+03  0.30254940809E+02 -0.27981555322E+03  0.31072041293E+03  0.00000000000E+00 0.  1.
</event>
<event>
 8    1  0.7232317E-009  0.1360348E+03  0.7561462E-02  0.1218766E+00
         -1   -1    0    0    0  501 -0.00000000000E+00  0.00000000000E+00  0.20375740395E+03  0.20375740395E+03  0.00000000000E+00 0.  1.
          1   -1    0    0  501    0  0.00000000000E+00 -0.00000000000E+00 -0.12632563258E+03  0.12632563258E+03  0.00000000000E+00 0. -1.
         25    2    1    2    0    0 -0.13693881519E+02  0.11280216315E+03  0.10306139753E+02  0.16930990755E+03  0.12509107832E+03 0.  0.
         23    2    1    2    0    0  0.13693881519E+02 -0.11280216315E+03  0.67125631620E+02  0.16077312898E+03  0.91816655245E+02 0.  0.
          5    1    3    3  502    0  0.43037969492E+02  0.84388427087E+02  0.35030063147E+02  0.10108536575E+03  0.41800000000E+01 0.  1.
         -5    1    3    3    0  502 -0.56731851011E+02  0.28413736062E+02 -0.24723923394E+02  0.68224541802E+02  0.41800000000E+01 0.  1.
        -11    1    4    4    0    0  0.10386570061E+02 -0.75281216106E+02  0.89146497641E+02  0.11714196677E+03  0.00000000000E+00 0. -1.
         11    1    4    4    0    0  0.33073114582E+01 -0.37520947043E+02 -0.22020866021E+02  0.43631162217E+02  0.00000000000E+00 0.  1.
</event>
<event>
 7    1  0.7232317E-009  0.1354689E+03  0.7561462E-02  0.1219559E+00
          2   -1    0    0  501    0  0.00000000000E+00  0.00000000000E+00  0.87061306235E+03  0.87061306235E+03  0.00000000000E+00 0.  1.
         -2   -1    0    0    0  501 -0.00000000000E+00 -0.00000000000E+00 -0.30969972281E+02  0.30969972281E+02  0.00000000000E+00 0. -1.
         23    2    1    2    0    0  0.11700148813E+03  0.34143315865E+02  0.42966092291E+03  0.45593084515E+03  0.91702304457E+02 0.  0.
          5    1    1    2  502    0 -0.21230712898E+02 -0.25824242743E+02  0.28953746657E+03  0.29149108327E+03  0.41800000000E+01 0. -1.
         -5    1    1    2    0  502 -0.95770775228E+02 -0.83190731226E+01  0.12044470060E+03  0.15416110621E+03  0.41800000000E+01 0. -1.
        -11    1    3    3    0    0  0.23715751065E+02 -0.21830913657E+02  0.40017902743E+02  0.51385388776E+02  0.00000000000E+00 0. -1.
         11    1    3    3    0    0  0.93285737061E+02  0.55974229522E+02  0.38964302017E+03  0.40454545638E+03  0.00000000000E+00 0.  1.
</event>
<event>
 8    1  0.7232317E-009  0.1103118E+03  0.7561462E-02  0.1259994E+00
          1   -1    0    0  501    0  0.00000000000E+00  0.00000000000E+00  0.24558882080E+03  0.24558882080E+03  0.00000000000E+00 0. -1.
         -1   -1    0    0    0  501 -0.00000000000E+00 -0.00000000000E+00 -0.87861251750E+02  0.87861251750E+02  0.00000000000E+00 0.  1.
         25    2    1    2    0    0 -0.62622614053E+02  0.71045386479E+02  0.11614267621E+03  0.19520968646E+03  0.12509461107E+03 0.  0.
         23    2    1    2    0    0  0.62622614053E+02 -0.71045386479E+02  0.41584892838E+02  0.13824038609E+03  0.91717295550E+02 0.  0.
          5    1    3    3  502    0 -0.22253698196E+02  0.34384197652E+02 -0.21967953977E+02  0.46664371136E+02  0.41800000000E+01 0.  1.
         -5    1    3    3    0  502 -0.40368915857E+02  0.36661188827E+02  0.13811063018E+03  0.14854531532E+03  0.41800000000E+01 0.  1.
        -11    1    4    4    0    0 -0.19268990825E+02 -0.60006829734E+01 -0.89656232697E+01  0.22083582232E+02  0.00000000000E+00 0.  1.
         11    1    4    4    0    0  0.81891604878E+02 -0.65044703506E+02  0.50550516108E+02  0.11615680386E+03  0.00000000000E+00 0. -1.
</event>
<event>
 8    1  0.7232317E-009  0.1069493E+03  0.7561462E-02  0.1266326E+00
         -3   -1    0    0    0  501 -0.00000000000E+00  0.00000000000E+00  0.25940927460E+03  0.25940927460E+03  0.00000000000E+00 0.  1.
          3   -1    0    0  501    0  0.00000000000E+00 -0.00000000000E+00 -0.70578697613E+02  0.70578697613E+02  0.00000000000E+00 0. -1.
         25    2    1    2    0    0  0.69682138763E+02  0.82394945708E+01  0.15094912081E+03  0.20822155670E+03  0.12508832826E+03 0.  0.
         23    2    1    2    0    0 -0.69682138763E+02 -0.82394945708E+01  0.37881456181E+02  0.12176641552E+03  0.92024809116E+02 0.  0.
          5    1    3    3  502    0 -0.23173157299E+02  0.10792535040E+02 -0.52608024067E+01  0.26431467492E+02  0.41800000000E+01 0. -1.
         -5    1    3    3    0  502  0.92855296061E+02 -0.25530404697E+01  0.15620992322E+03  0.18179008921E+03  0.41800000000E+01 0. -1.
        -11    1    4    4    0    0  0.11018892288E+02  0.67616647693E+01  0.37517172869E+02  0.39682166748E+02  0.00000000000E+00 0.  1.
         11    1    4    4    0    0 -0.80701031050E+02 -0.15001159340E+02  0.36428331162E+00  0.82084248772E+02  0.00000000000E+00 0. -1.
</event>
<event>
 8    1  0.7232317E-009  0.2342150E+03  0.7561462E-02  0.1123708E+00
          2   -1    0    0  501    0  0.00000000000E+00  0.00000000000E+00  0.70577435206E+03  0.70577435206E+03  0.00000000000E+00 0. -1.
         -2   -1    0    0    0  501 -0.00000000000E+00 -0.00000000000E+00 -0.85871144661E+02  0.85871144661E+02  0.00000000000E+00 0.  1.
         25    2    1    2    0    0  0.50607886017E+02  0.21077088121E+03  0.37950818296E+03  0.45459819060E+03  0.12509009341E+03 0.  0.
         23    2    1    2    0    0 -0.50607886017E+02 -0.21077088121E+03  0.24039502444E+03  0.33704730613E+03  0.93944644863E+02 0.  0.
          5    1    3    3  502    0  0.20644049695E+02  0.21811360659E+03  0.33327842159E+03  0.39886301015E+03  0.41800000000E+01 0. -1.
         -5    1    3    3    0  502  0.29963836322E+02 -0.73427253847E+01  0.46229761368E+02  0.55735180446E+02  0.41800000000E+01 0. -1.
        -11    1    4    4    0    0 -0.53110835946E+02 -0.19121210735E+03  0.24645202865E+03  0.31641971070E+03  0.00000000000E+00 0. -1.
         11    1    4    4    0    0  0.25029499297E+01 -0.19558773861E+02 -0.60570042078E+01  0.20627595431E+02  0.00000000000E+00 0.  1.
</event>
<event>
 8    1  0.7232317E-009  0.1604917E+03  0.7561462E-02  0.1188143E+00
         -1   -1    0    0    0  501 -0.00000000000E+00  0.00000000000E+00  0.10986748048E+04  0.10986748048E+04  0.00000000000E+00 0.  1.
          1   -1    0    0  501    0  0.00000000000E+00 -0.00000000000E+00 -0.39295922454E+02  0.39295922454E+02  0.00000000000E+00 0. -1.
         25    2    1    2    0    0  0.94545766434E+02 -0.87309260368E+02  0.88248061824E+03  0.90054443033E+03  0.12508565282E+03 0.  0.
         23    2    1    2    0    0 -0.94545766434E+02  0.87309260368E+02  0.17689826409E+03  0.23742629690E+03  0.92284569274E+02 0.  0.
          5    1    3    3  502    0 -0.17136614133E+02 -0.38355225357E+02  0.42434472633E+03  0.42643956902E+03  0.41800000000E+01 0. -1.
         -5    1    3    3    0  502  0.11168238057E+03 -0.48954035010E+02  0.45813589190E+03  0.47410486131E+03  0.41800000000E+01 0. -1.
        -11    1    4    4    0    0 -0.47378041700E+02 -0.10175388324E+02  0.39750531167E+02  0.62676327995E+02  0.00000000000E+00 0. -1.
         11    1    4    4    0    0 -0.47167724734E+02  0.97484648692E+02  0.13714773293E+03  0.17474996891E+03  0.00000000000E+00 0.  1.
</event>
<event>
 8    1  0.7232317E-009  0.1089559E+03  0.7561462E-02  0.1262516E+00
          2   -1    0    0  501    0  0.00000000000E+00  0.00000000000E+00  0.40836407348E+03  0.40836407348E+03  0.00000000000E+00 0. -1.
         -2   -1    0    0    0  501 -0.00000000000E+00 -0.00000000000E+00 -0.34129540081E+02  0.34129540081E+02  0.00000000000E+00 0.  1.
         25    2    1    2    0    0 -0.28236532027E+02 -0.23802032584E+02  0.15499232284E+03  0.20256534223E+03  0.12508500805E+03 0.  0.
         23    2    1    2    0    0  0.28236532027E+02  0.23802032584E+02  0.21924221056E+03  0.23992827132E+03  0.90191961920E+02 0.  0.
          5    1    3    3  502    0  0.46185480659E+02  0.51841465337E+01  0.34862689311E+02  0.58248206023E+02  0.41800000000E+01 0.  1.
         -5    1    3    3    0  502 -0.74422012685E+02 -0.28986179118E+02  0.12012963353E+03  0.14431713621E+03  0.41800000000E+01 0.  1.
        -11    1    4    4    0    0 -0.69227403386E+01  0.48060050368E+02  0.15776337517E+03  0.16506657844E+03  0.00000000000E+00 0. -1.
         11    1    4    4    0    0  0.35159272365E+02 -0.24258017784E+02  0.61478835389E+02  0.74861692880E+02  0.00000000000E+00 0.  1.
</event>
<event>
 8    1  0.7232317E-009  0.1140550E+03  0.7561462E-02  0.1253240E+00
          2   -1    0    0  501    0  0.00000000000E+00  0.00000000000E+00  0.13586773859E+04  0.13586773859E+04  0.00000000000E+00 0. -1.
         -2   -1    0    0    0  501 -0.00000000000E+00 -0.00000000000E+00 -0.19010518720E+02  0.19010518720E+02  0.00000000000E+00 0.  1.
         25    2    1    2    0    0 -0.59097869128E+02 -0.61229829530E+02  0.10682170353E+04  0.10788775198E+04  0.12508963988E+03 0.  0.
         23    2    1    2    0    0  0.59097869128E+02  0.61229829530E+02  0.27144983192E+03  0.29881038488E+03  0.91438420301E+02 0.  0.
          5    1    3    3  502    0  0.70772895286E+01 -0.71402382245E+02  0.33640928387E+03  0.34400155071E+03  0.41800000000E+01 0. -1.
         -5    1    3    3    0  502 -0.66175158657E+02  0.10172552715E+02  0.73180775140E+03  0.73487596904E+03  0.41800000000E+01 0. -1.
        -11    1    4    4    0    0  0.41178518534E+02  0.23568646325E+02  0.24471093602E+03  0.24926811606E+03  0.00000000000E+00 0. -1.
         11    1    4    4    0    0  0.17919350594E+02  0.37661183205E+02  0.26738895898E+02  0.49542268821E+02  0.00000000000E+00 0.  1.
</event>
<event>
 8    1  0.7232317E-009  0.1091159E+03  0.7561462E-02  0.1262216E+00
         -2   -1    0    0    0  501 -0.00000000000E+00  0.00000000000E+00  0.26037243333E+03  0.26037243333E+03  0.00000000000E+00 0.  1.
          2   -1    0    0  501    0  0.00000000000E+00 -0.00000000000E+00 -0.55163690511E+02  0.55163690511E+02  0.00000000000E+00 0. -1.
         25    2    1    2    0    0  0.12676821418E+02  0.35814341029E+02  0.78832453002E+02  0.15266585115E+03  0.12509571390E+03 0.  0.
         23    2    1    2    0    0 -0.12676821418E+02 -0.35814341029E+02  0.12637628982E+03  0.16287027269E+03  0.95458840735E+02 0.  0.
          5    1    3    3  502    0 -0.42571700542E+02  0.52747395659E+02  0.21692705647E+02  0.71292940142E+02  0.41800000000E+01 0.  1.
         -5    1    3    3    0  502  0.55248521960E+02 -0.16933054630E+02  0.57139747355E+02  0.81372911006E+02  0.41800000000E+01 0.  1.
        -11    1    4    4    0    0  0.26573790489E+02 -0.44826405461E+02  0.34338896903E+02  0.62407794449E+02  0.00000000000E+00 0. -1.
         11    1    4    4    0    0 -0.39250611907E+02  0.90120644316E+01  0.92037392915E+02  0.10046247824E+03  0.00000000000E+00 0.  1.
</event>
<event>
 8    1  0.7232317E-009  0.9644165E+02  0.7561462E-02  0.1287962E+00
          1   -1    0    0  501    0  0.00000000000E+00  0.00000000000E+00  0.12769603997E+03  0.12769603997E+03  0.00000000000E+00 0. -1.
         -1   -1    0    0    0  501 -0.00000000000E+00 -0.00000000000E+00 -0.21707857193E+03  0.21707857193E+03  0.00000000000E+00 0.  1.
         25    2    1    2    0    0  0.73484467942E+02 -0.26936647528E+02 -0.15151220093E+03  0.21149817178E+03  0.12509987860E+03 0.  0.
         23    2    1    2    0    0 -0.73484467942E+02  0.26936647528E+02  0.62129668975E+02  0.13327644012E+03  0.88187094950E+02 0.  0.
          5    1    3    3  502    0  0.37180820102E+02 -0.13350384195E+01  0.14080758561E+02  0.39999198401E+02  0.41800000000E+01 0.  1.
         -5    1    3    3    0  502  0.36303647839E+02 -0.25601609108E+02 -0.16559295949E+03  0.17149897338E+03  0.41800000000E+01 0.  1.
        -11    1    4    4    0    0 -0.58332751205E+02 -0.19872559482E+02  0.11518809209E+02  0.62692196078E+02  0.00000000000E+00 0.  1.
         11    1    4    4    0    0 -0.15151716737E+02  0.46809207009E+02  0.50610859766E+02  0.70584244043E+02  0.00000000000E+00 0. -1.
</event>
<event>
 8    1  0.7232317E-009  0.1502742E+03  0.7561462E-02  0.1200136E+00
         -1   -1    0    0    0  501 -0.00000000000E+00  0.00000000000E+00  0.40015630552E+03  0.40015630552E+03  0.00000000000E+00 0.  1.
          1   -1    0    0  501    0  0.00000000000E+00 -0.00000000000E+00 -0.65164938313E+02  0.65164938313E+02  0.00000000000E+00 0. -1.
         25    2    1    2    0    0  0.15095526509E+02  0.11779639615E+03  0.18533428434E+03  0.25318029047E+03  0.12509035400E+03 0.  0.
         23    2    1    2    0    0 -0.15095526509E+02 -0.11779639615E+03  0.14965708287E+03  0.21214095336E+03  0.92209954850E+02 0.  0.
          5    1    3    3  502    0 -0.18322389311E+02  0.12355091445E+03  0.17919084181E+03  0.21846594380E+03  0.41800000000E+01 0.  1.
         -5    1    3    3    0  502  0.33417915821E+02 -0.57545182985E+01  0.61434425308E+01  0.34714346671E+02  0.41800000000E+01 0.  1.
        -11    1    4    4    0    0  0.16768096679E+02 -0.10617858653E+03  0.14069790897E+03  0.17706203120E+03  0.00000000000E+00 0.  1.
         11    1    4    4    0    0 -0.31863623188E+02 -0.11617809622E+02  0.89591738965E+01  0.35078922161E+02  0.00000000000E+00 0. -1.
</event>
<event>
 8    1  0.7232317E-009  0.7508004E+02  0.7561462E-02  0.1343623E+00
         -1   -1    0    0    0  501 -0.00000000000E+00  0.00000000000E+00  0.61224990226E+02  0.61224990226E+02  0.00000000000E+00 0.  1.
          1   -1    0    0  501    0  0.00000000000E+00 -0.00000000000E+00 -0.22858620783E+03  0.22858620783E+03  0.00000000000E+00 0. -1.
         25    2    1    2    0    0  0.30207698453E+02 -0.23008125877E+02 -0.53546113851E+02  0.14126230885E+03  0.12508387063E+03 0.  0.
         23    2    1    2    0    0 -0.30207698453E+02  0.23008125877E+02 -0.11381510375E+03  0.14854888920E+03  0.87584335012E+02 0.  0.
          5    1    3    3  502    0 -0.62784095360E+01  0.53979098552E+01  0.37731727355E+02  0.38855006194E+02  0.41800000000E+01 0.  1.
         -5    1    3    3    0  502  0.36486107989E+02 -0.28406035732E+02 -0.91277841206E+02  0.10240730266E+03  0.41800000000E+01 0.  1.
        -11    1    4    4    0    0 -0.92479388826E-01  0.52385465102E+02 -0.73678605629E+02  0.90403442599E+02  0.00000000000E+00 0.  1.
         11    1    4    4    0    0 -0.30115219064E+02 -0.29377339225E+02 -0.40136498121E+02  0.58145446603E+02  0.00000000000E+00 0. -1.
</event>
<event>
 8    1  0.7232317E-009  0.9799131E+02  0.7561462E-02  0.1284578E+00
         -1   -1    0    0    0  501 -0.00000000000E+00  0.00000000000E+00  0.49030522510E+02  0.49030522510E+02  0.00000000000E+00 0.  1.
          1   -1    0    0  501    0  0.00000000000E+00 -0.00000000000E+00 -0.32272394014E+03  0.32272394014E+03  0.00000000000E+00 0. -1.
         25    2    1    2    0    0  0.51201228397E+02 -0.27537916599E+02 -0.19077811364E+03  0.23542346420E+03  0.12509203098E+03 0.  0.
         23    2    1    2    0    0 -0.51201228397E+02  0.27537916599E+02 -0.82915303992E+02  0.13633099845E+03  0.91275905151E+02 0.  0.
          5    1    3    3  502    0 -0.16142207824E+02  0.37011353265E+02 -0.34033544313E+02  0.52973254407E+02  0.41800000000E+01 0.  1.
         -5    1    3    3    0  502  0.67343436221E+02 -0.64549269864E+02 -0.15674456932E+03  0.18245020980E+03  0.41800000000E+01 0.  1.
        -11    1    4    4    0    0 -0.41861295849E+02  0.11433052262E+02  0.74834882781E+01  0.44035047076E+02  0.00000000000E+00 0.  1.
         11    1    4    4    0    0 -0.93399325478E+01  0.16104864337E+02 -0.90398792270E+02  0.92295951370E+02  0.00000000000E+00 0. -1.
</event>
<event>
 8    1  0.7232317E-009  0.9951407E+02  0.7561462E-02  0.1281321E+00
         -1   -1    0    0    0  501 -0.00000000000E+00  0.00000000000E+00  0.27399362063E+03  0.27399362063E+03  0.00000000000E+00 0.  1.
          1   -1    0    0  501    0  0.00000000000E+00 -0.00000000000E+00 -0.68506804060E+02  0.68506804060E+02  0.00000000000E+00 0. -1.
         25    2    1    2    0    0 -0.86479688753E+01 -0.68272163502E+02  0.15719197040E+03  0.21234883367E+03  0.12508731322E+03 0.  0.
         23    2    1    2    0    0  0.86479688753E+01  0.68272163502E+02  0.48294846168E+02  0.13015159101E+03  0.99353755854E+02 0.  0.
          5    1    3    3  502    0  0.34825255852E+02 -0.77148877303E+02  0.14180719525E+03  0.16520139448E+03  0.41800000000E+01 0.  1.
         -5    1    3    3    0  502 -0.43473224727E+02  0.88767138006E+01  0.15384775153E+02  0.47147439194E+02  0.41800000000E+01 0.  1.
        -11    1    4    4    0    0 -0.26773597544E+01  0.16620093041E+02 -0.30746272929E+02  0.35053231619E+02  0.00000000000E+00 0. -1.
         11    1    4    4    0    0  0.11325328630E+02  0.51652070461E+02  0.79041119097E+02  0.95098359395E+02  0.00000000000E+00 0.  1.
</event>
<event>
 8    1  0.7232317E-009  0.1584823E+03  0.7561462E-02  0.1190421E+00
          2   -1    0    0  501    0  0.00000000000E+00  0.00000000000E+00  0.49631356214E+03  0.49631356214E+03  0.00000000000E+00 0.  1.
         -2   -1    0    0    0  501 -0.00000000000E+00 -0.00000000000E+00 -0.60918935207E+02  0.60918935207E+02  0.00000000000E+00 0. -1.
         25    2    1    2    0    0  0.89063914147E+02 -0.83489665580E+02  0.13452342386E+03  0.22056072621E+03  0.12509027667E+03 0.  0.
         23    2    1    2    0    0 -0.89063914147E+02  0.83489665580E+02  0.30087120308E+03  0.33667177114E+03  0.89002784110E+02 0.  0.
          5    1    3    3  502    0  0.10033374888E+03 -0.10791957613E+03  0.11020368168E+03  0.18405385063E+03  0.41800000000E+01 0. -1.
         -5    1    3    3    0  502 -0.11269834738E+02  0.24429910551E+02  0.24319742179E+02  0.36506875575E+02  0.41800000000E+01 0. -1.
        -11    1    4    4    0    0 -0.37861309086E+02 -0.68560849277E+01  0.38206148983E+02  0.54223559883E+02  0.00000000000E+00 0. -1.
         11    1    4    4    0    0 -0.51202605061E+02  0.90345750508E+02  0.26266505410E+03  0.28244821126E+03  0.00000000000E+00 0.  1.
</event>
<event>
 7    1  0.7232317E-009  0.1922997E+03  0.7561462E-02  0.1156403E+00
          2   -1    0    0  501    0  0.00000000000E+00  0.00000000000E+00  0.42193129628E+03  0.42193129628E+03  0.00000000000E+00 0. -1.
         -2   -1    0    0    0  501 -0.00000000000E+00 -0.00000000000E+00 -0.22397801446E+03  0.22397801446E+03  0.00000000000E+00 0.  1.
         23    2    1    2    0    0  0.25916122776E+02  0.17832497436E+03 -0.13763619605E+03  0.24512708715E+03  0.93124242231E+02 0.  0.
          5    1    1    2  502    0 -0.39740334762E+02 -0.15023646561E+03  0.16269894805E+03  0.22503046439E+03  0.41800000000E+01 0.  1.
         -5    1    1    2    0  502  0.13824211986E+02 -0.28088508751E+02  0.17289052982E+03  0.17575175920E+03  0.41800000000E+01 0.  1.
        -11    1    3    3    0    0  0.55268270920E+02  0.10710078088E+03 -0.11033180121E+03  0.16339603849E+03  0.00000000000E+00 0.  1.
         11    1    3    3    0    0 -0.29352148144E+02  0.71224193482E+02 -0.27304394839E+02  0.81731048662E+02  0.00000000000E+00 0. -1.
</event>
<event>
 8    1  0.7232317E-009  0.1415300E+03  0.7561462E-02  0.1211285E+00
          2   -1    0    0  501    0  0.00000000000E+00  0.00000000000E+00  0.78112153262E+03  0.78112153262E+03  0.00000000000E+00 0. -1.
         -2   -1    0    0    0  501 -0.00000000000E+00 -0.00000000000E+00 -0.42532566778E+02  0.42532566778E+02  0.00000000000E+00 0.  1.
         25    2    1    2    0    0 -0.66558783845E+02  0.11085134246E+03  0.23482167599E+03  0.29581354424E+03  0.12508533732E+03 0.  0.
         23    2    1    2    0    0  0.66558783845E+02 -0.11085134246E+03  0.50376728985E+03  0.52784055515E+03  0.90089275211E+02 0.  0.
          5    1    3    3  502    0 -0.12538270943E+02  0.77454356783E+00  0.14033398890E+03  0.14095711758E+03  0.41800000000E+01 0.  1.
         -5    1    3    3    0  502 -0.54020512902E+02  0.11007679889E+03  0.94487687090E+02  0.15485642666E+03  0.41800000000E+01 0.  1.
        -11    1    4    4    0    0 -0.15073302032E+02 -0.18845577814E+02  0.30726250869E+02  0.39069972226E+02  0.00000000000E+00 0.  1.
         11    1    4    4    0    0  0.81632085877E+02 -0.92005764643E+02  0.47304103898E+03  0.48877058293E+03  0.00000000000E+00 0. -1.
</event>
<event>
 8    1  0.7232317E-009  0.1182825E+03  0.7561462E-02  0.1245958E+00
         -1   -1    0    0    0  501 -0.00000000000E+00  0.00000000000E+00  0.20951722163E+02  0.20951722163E+02  0.00000000000E+00 0.  1.
          1   -1    0    0  501    0  0.00000000000E+00 -0.00000000000E+00 -0.11640700652E+04  0.11640700652E+04  0.00000000000E+00 0. -1.
         25    2    1    2    0    0 -0.77082811093E+02  0.19761199633E+02 -0.91715680301E+03  0.92906184961E+03  0.12508818613E+03 0.  0.
         23    2    1    2    0    0  0.77082811093E+02 -0.19761199633E+02 -0.22596153999E+03  0.25595993772E+03  0.90136604033E+02 0.  0.
          5    1    3    3  502    0 -0.53537485629E+02 -0.42585547881E+02 -0.27374545989E+03  0.28219468539E+03  0.41800000000E+01 0. -1.
         -5    1    3    3    0  502 -0.23545325464E+02  0.62346747514E+02 -0.64341134312E+03  0.64686716421E+03  0.41800000000E+01 0. -1.
        -11    1    4    4    0    0  0.43466323386E+02 -0.42402242751E+02 -0.60919887237E+02  0.86014557606E+02  0.00000000000E+00 0.  1.
         11    1    4    4    0    0  0.33616487707E+02  0.22641043118E+02 -0.16504165275E+03  0.16994538012E+03  0.00000000000E+00 0. -1.
</event>
<event>
 8    1  0.7232317E-009  0.1165391E+03  0.7561462E-02  0.1248918E+00
          1   -1    0    0  501    0  0.00000000000E+00  0.00000000000E+00  0.33095863990E+03  0.33095863990E+03  0.00000000000E+00 0. -1.
         -1   -1    0    0    0  501 -0.00000000000E+00 -0.00000000000E+00 -0.51745983480E+02  0.51745983480E+02  0.00000000000E+00 0.  1.
         25    2    1    2    0    0 -0.16017416346E+01 -0.72402650801E+02  0.17145616262E+03  0.22425281331E+03  0.12508956454E+03 0.  0.
         23    2    1    2    0    0  0.16017416346E+01  0.72402650801E+02  0.10775649381E+03  0.15845181007E+03  0.90833940457E+02 0.  0.
          5    1    3    3  502    0 -0.17558657945E+02  0.26277945429E+02  0.89215778849E+02  0.94740511294E+02  0.41800000000E+01 0. -1.
         -5    1    3    3    0  502  0.15956916310E+02 -0.98680596230E+02  0.82240383767E+02  0.12951230201E+03  0.41800000000E+01 0. -1.
        -11    1    4    4    0    0  0.33336950555E+02  0.17294115829E+02  0.81337770336E+02  0.89589461422E+02  0.00000000000E+00 0. -1.
         11    1    4    4    0    0 -0.31735208921E+02  0.55108534972E+02  0.26418723469E+02  0.68862348651E+02  0.00000000000E+00 0.  1.
</event>
<event>
 8    1  0.7232317E-009  0.1083516E+03  0.7561462E-02  0.1263653E+00
          1   -1    0    0  501    0  0.00000000000E+00  0.00000000000E+00  0.19850541802E+03  0.19850541802E+03  0.00000000000E+00 0. -1.
         -1   -1    0    0    0  501 -0.00000000000E+00 -0.00000000000E+00 -0.64893753884E+02  0.64893753884E+02  0.00000000000E+00 0.  1.
         25    2    1    2    0    0  0.18391545040E+02  0.55119841645E+01  0.10816252288E+03  0.16647903764E+03  0.12508999848E+03 0.  0.
         23    2    1    2    0    0 -0.18391545040E+02 -0.55119841645E+01  0.25449141256E+02  0.96920134264E+02  0.91527169391E+02 0.  0.
          5    1    3    3  502    0 -0.50298963561E+02 -0.18348163429E+02  0.47146510327E+02  0.71462624305E+02  0.41800000000E+01 0.  1.
         -5    1    3    3    0  502  0.68690508601E+02  0.23860147593E+02  0.61016012551E+02  0.95016413333E+02  0.41800000000E+01 0.  1.
        -11    1    4    4    0    0 -0.53437546705E+02  0.47414931149E+01  0.27620961666E+02  0.60340456396E+02  0.00000000000E+00 0. -1.
         11    1    4    4    0    0  0.35046001665E+02 -0.10253477279E+02 -0.21718204099E+01  0.36579677867E+02  0.00000000000E+00 0.  1.
</event>
<event>
 8    1  0.7232317E-009  0.1032657E+03  0.7561462E-02  0.1273575E+00
          1   -1    0    0  501    0  0.00000000000E+00  0.00000000000E+00  0.16286851327E+03  0.16286851327E+03  0.00000000000E+00 0. -1.
         -1   -1    0    0    0  501 -0.00000000000E+00 -0.00000000000E+00 -0.95075092143E+02  0.95075092143E+02  0.00000000000E+00 0.  1.
         25    2    1    2    0    0  0.18579649472E+02 -0.35346261797E+02 -0.16354856956E+01  0.13134796402E+03  0.12512014723E+03 0.  0.
         23    2    1    2    0    0 -0.18579649472E+02  0.35346261797E+02  0.69428906824E+02  0.12659564139E+03  0.98038368606E+02 0.  0.
          5    1    3    3  502    0 -0.24332916443E+02  0.38478043867E+02 -0.33253381583E+01  0.45838640429E+02  0.41800000000E+01 0. -1.
         -5    1    3    3    0  502  0.42912565916E+02 -0.73824305664E+02  0.16898524627E+01  0.85509323594E+02  0.41800000000E+01 0. -1.
        -11    1    4    4    0    0 -0.89587235749E+01  0.53783443685E+02  0.84743366188E+02  0.10076882284E+03  0.00000000000E+00 0. -1.
         11    1    4    4    0    0 -0.96209258973E+01 -0.18437181888E+02 -0.15314459364E+02  0.25826818556E+02  0.00000000000E+00 0.  1.
</event>
<event>
 8    1  0.7232317E-009  0.1357288E+03  0.7561462E-02  0.1219195E+00
         -1   -1    0    0    0  501 -0.00000000000E+00  0.00000000000E+00  0.21945115304E+02  0.21945115304E+02  0.00000000000E+00 0.  1.
          1   -1    0    0  501    0  0.00000000000E+00 -0.00000000000E+00 -0.10282295700E+04  0.10282295700E+04  0.00000000000E+00 0. -1.
         25    2    1    2    0    0  0.71177325405E+02 -0.64530361281E+02 -0.68304701066E+03  0.70102166132E+03  0.12509105355E+03 0.  0.
         23    2    1    2    0    0 -0.71177325405E+02  0.64530361281E+02 -0.32323744403E+03  0.34915302399E+03  0.90526293175E+02 0.  0.
          5    1    3    3  502    0  0.48107835273E+02  0.28626699128E+02 -0.16910658751E+03  0.17818070057E+03  0.41800000000E+01 0. -1.
         -5    1    3    3    0  502  0.23069490132E+02 -0.93157060409E+02 -0.51394042315E+03  0.52284096074E+03  0.41800000000E+01 0. -1.
        -11    1    4    4    0    0 -0.34950100312E+01  0.49888731048E+02 -0.66296220176E+02  0.83043900380E+02  0.00000000000E+00 0.  1.
         11    1    4    4    0    0 -0.67682315374E+02  0.14641630233E+02 -0.25694122386E+03  0.26610912361E+03  0.00000000000E+00 0. -1.
</event>
<event>
 8    1  0.7232317E-009  0.1393621E+03  0.7561462E-02  0.1214190E+00
          1   -1    0    0  501    0  0.00000000000E+00  0.00000000000E+00  0.10154007349E+04  0.10154007349E+04  0.00000000000E+00 0. -1.
         -1   -1    0    0    0  501 -0.00000000000E+00 -0.00000000000E+00 -0.19512929296E+02  0.19512929296E+02  0.00000000000E+00 0.  1.
         25    2    1    2    0    0  0.68265686396E+02 -0.63042968302E+02  0.50468300207E+03  0.52819260201E+03  0.12509145633E+03 0.  0.
         23    2    1    2    0    0 -0.68265686396E+02  0.63042968302E+02  0.49120480352E+03  0.50672106217E+03  0.82761440643E+02 0.  0.
          5    1    3    3  502    0  0.79842946488E+02 -0.93333865677E+02  0.41002366305E+03  0.42804553875E+03  0.41800000000E+01 0.  1.
         -5    1    3    3    0  502 -0.11577260093E+02  0.30290897375E+02  0.94659339025E+02  0.10014706326E+03  0.41800000000E+01 0.  1.
        -11    1    4    4    0    0  0.75680590804E+01  0.44398950981E+02  0.21631365025E+03  0.22095279507E+03  0.00000000000E+00 0. -1.
         11    1    4    4    0    0 -0.75833745476E+02  0.18644017320E+02  0.27489115327E+03  0.28576826710E+03  0.00000000000E+00 0.  1.
</event>
<event>
 8    1  0.7232317E-009  0.1147373E+03  0.7561462E-02  0.1252040E+00
          2   -1    0    0  501    0  0.00000000000E+00  0.00000000000E+00  0.35034444052E+03  0.35034444052E+03  0.00000000000E+00 0. -1.
         -2   -1    0    0    0  501 -0.00000000000E+00 -0.00000000000E+00 -0.53882844378E+02  0.53882844378E+02  0.00000000000E+00 0.  1.
         25    2    1    2    0    0 -0.44120353233E+02  0.32052807077E+02  0.24974660551E+03  0.28459594124E+03  0.12508994682E+03 0.  0.
         23    2    1    2    0    0  0.44120353233E+02 -0.32052807077E+02  0.46714990625E+02  0.11963134365E+03  0.95683750052E+02 0.  0.
          5    1    3    3  502    0  0.33878981538E+02 -0.29475376007E+01  0.14664598409E+03  0.15059545285E+03  0.41800000000E+01 0. -1.
         -5    1    3    3    0  502 -0.77999334771E+02  0.35000344678E+02  0.10310062142E+03  0.13400048839E+03  0.41800000000E+01 0. -1.
        -11    1    4    4    0    0  0.72698388417E+02 -0.35372361690E+02  0.39446866185E+02  0.89957294878E+02  0.00000000000E+00 0. -1.
         11    1    4    4    0    0 -0.28578035184E+02  0.33195546122E+01  0.72681244400E+01  0.29674048775E+02  0.00000000000E+00 0.  1.
</event>
<event>
 8    1  0.7232317E-009  0.8475132E+02  0.7561462E-02  0.1316084E+00
         -3   -1    0    0    0  501 -0.00000000000E+00  0.00000000000E+00  0.26412661899E+03  0.26412661899E+03  0.00000000000E+00 0.  1.
          3   -1    0    0  501    0  0.00000000000E+00 -0.00000000000E+00 -0.51510912544E+02  0.51510912544E+02  0.00000000000E+00 0. -1.
         25    2    1    2    0    0  0.37279814370E+02  0.95671119031E+01  0.95851684033E+02  0.16222427771E+03  0.12509139361E+03 0.  0.
         23    2    1    2    0    0 -0.37279814370E+02 -0.95671119031E+01  0.11676402242E+03  0.15341325383E+03  0.91763147996E+02 0.  0.
          5    1    3    3  502    0 -0.17351196754E+02  0.50316150930E+02  0.72547800987E+02  0.90074607417E+02  0.41800000000E+01 0. -1.
         -5    1    3    3    0  502  0.54631011124E+02 -0.40749039027E+02  0.23303883046E+02  0.72149670291E+02  0.41800000000E+01 0. -1.
        -11    1    4    4    0    0 -0.42094018393E+01 -0.13859423340E+02 -0.12981596311E+02  0.19450566109E+02  0.00000000000E+00 0. -1.
         11    1    4    4    0    0 -0.33070412530E+02  0.42923114373E+01  0.12974561873E+03  0.13396268772E+03  0.00000000000E+00 0.  1.
</event>
<event>
 8    1  0.7232317E-009  0.1783123E+03  0.7561462E-02  0.1169446E+00
         -1   -1    0    0    0  501 -0.00000000000E+00  0.00000000000E+00  0.95017159742E+02  0.95017159742E+02  0.00000000000E+00 0.  1.
          1   -1    0    0  501    0  0.00000000000E+00 -0.00000000000E+00 -0.46652731020E+03  0.46652731020E+03  0.00000000000E+00 0. -1.
         25    2    1    2    0    0 -0.18456956340E+02  0.17254906022E+03 -0.12637429894E+03  0.24845889555E+03  0.12509005527E+03 0.  0.
         23    2    1    2    0    0  0.18456956340E+02 -0.17254906022E+03 -0.24513585152E+03  0.31308557439E+03  0.88414669429E+02 0.  0.
          5    1    3    3  502    0 -0.36986483020E+02  0.11074019964E+03 -0.12485036712E+02  0.11749357551E+03  0.41800000000E+01 0.  1.
         -5    1    3    3    0  502  0.18529526680E+02  0.61808860575E+02 -0.11388926223E+03  0.13096532005E+03  0.41800000000E+01 0.  1.
        -11    1    4    4    0    0 -0.55747698841E+01 -0.44709833565E+02 -0.13606332291E+03  0.14332925423E+03  0.00000000000E+00 0. -1.
         11    1    4    4    0    0  0.24031726224E+02 -0.12783922666E+03 -0.10907252861E+03  0.16975632016E+03  0.00000000000E+00 0.  1.
</event>
<event>
 8    1  0.7232317E-009  0.8114781E+02  0.7561462E-02  0.1325825E+00
         -2   -1    0    0    0  501 -0.00000000000E+00  0.00000000000E+00  0.12676565246E+03  0.12676565246E+03  0.00000000000E+00 0.  1.
          2   -1    0    0  501    0  0.00000000000E+00 -0.00000000000E+00 -0.11351518124E+03  0.11351518124E+03  0.00000000000E+00 0. -1.
         25    2    1    2    0    0  0.72184322865E+01 -0.18483581877E+02  0.49919208581E+02  0.13614272985E+03  0.12509663041E+03 0.  0.
         23    2    1    2    0    0 -0.72184322865E+01  0.18483581877E+02 -0.36668737356E+02  0.10413810385E+03  0.95427458369E+02 0.  0.
          5    1    3    3  502    0 -0.55161306320E+02 -0.58591417675E+01  0.46098136122E+02  0.72246867137E+02  0.41800000000E+01 0.  1.
         -5    1    3    3    0  502  0.62379738606E+02 -0.12624440109E+02  0.38210724584E+01  0.63895862709E+02  0.41800000000E+01 0.  1.
        -11    1    4    4    0    0 -0.19426296285E+02 -0.14824726919E+01  0.28710367854E+02  0.34696742426E+02  0.00000000000E+00 0.  1.
         11    1    4    4    0    0  0.12207863999E+02  0.19966054569E+02 -0.65379105211E+02  0.69441361425E+02  0.00000000000E+00 0. -1.
</event>
<event>
 8    1  0.7232317E-009  0.2644020E+03  0.7561462E-02  0.1104527E+00
         -2   -1    0    0    0  501 -0.00000000000E+00  0.00000000000E+00  0.11525543471E+03  0.11525543471E+03  0.00000000000E+00 0.  1.
          2   -1    0    0  501    0  0.00000000000E+00 -0.00000000000E+00 -0.75389155605E+03  0.75389155605E+03  0.00000000000E+00 0. -1.
         25    2    1    2    0    0  0.21526804982E+03 -0.12389227447E+03 -0.15719369117E+03  0.31944764341E+03  0.12508921372E+03 0.  0.
         23    2    1    2    0    0 -0.21526804982E+03  0.12389227447E+03 -0.48144243018E+03  0.54969934736E+03  0.93235883480E+02 0.  0.
          5    1    3    3  502    0  0.80681304048E+02  0.11610325997E+02 -0.77201222501E+02  0.11234666728E+03  0.41800000000E+01 0. -1.
         -5    1    3    3    0  502  0.13458674577E+03 -0.13550260047E+03 -0.79992468666E+02  0.20710097613E+03  0.41800000000E+01 0. -1.
        -11    1    4    4    0    0 -0.15840724964E+03  0.12079764986E+03 -0.30498631292E+03  0.36428228068E+03  0.00000000000E+00 0.  1.
         11    1    4    4    0    0 -0.56860800175E+02  0.30946246104E+01 -0.17645611726E+03  0.18541706668E+03  0.00000000000E+00 0. -1.
</event>
<event>
 8    1  0.7232317E-009  0.5864951E+02  0.7561462E-02  0.1403588E+00
          2   -1    0    0  501    0  0.00000000000E+00  0.00000000000E+00  0.28719682607E+03  0.28719682607E+03  0.00000000000E+00 0.  1.
         -2   -1    0    0    0  501 -0.00000000000E+00 -0.00000000000E+00 -0.75412756943E+02  0.75412756943E+02  0.00000000000E+00 0. -1.
         25    2    1    2    0    0 -0.28173192287E+02  0.17427072684E+02  0.23007889539E+03  0.26397303475E+03  0.12509209946E+03 0.  0.
         23    2    1    2    0    0  0.28173192287E+02 -0.17427072684E+02 -0.18294826264E+02  0.98636548259E+02  0.91088069244E+02 0.  0.
          5    1    3    3  502    0 -0.15468005001E+02  0.25139821219E+02  0.24239595710E+03  0.24422232127E+03  0.41800000000E+01 0. -1.
         -5    1    3    3    0  502 -0.12705187286E+02 -0.77127485350E+01 -0.12317061708E+02  0.19750713482E+02  0.41800000000E+01 0. -1.
        -11    1    4    4    0    0  0.42353037570E+02  0.78410344701E+01  0.22502772895E+02  0.48596670677E+02  0.00000000000E+00 0.  1.
         11    1    4    4    0    0 -0.14179845283E+02 -0.25268107154E+02 -0.40797599158E+02  0.50039877583E+02  0.00000000000E+00 0. -1.
</event>
<event>
 8    1  0.7232317E-009  0.9585398E+02  0.7561462E-02  0.1289264E+00
          1   -1    0    0  501    0  0.00000000000E+00  0.00000000000E+00  0.23510128689E+02  0.23510128689E+02  0.00000000000E+00 0. -1.
         -1   -1    0    0    0  501 -0.00000000000E+00 -0.00000000000E+00 -0.50539668964E+03  0.50539668964E+03  0.00000000000E+00 0.  1.
         25    2    1    2    0    0  0.16337620950E+02 -0.14333318196E+02 -0.24729694610E+03  0.27800032044E+03  0.12512408541E+03 0.  0.
         23    2    1    2    0    0 -0.16337620950E+02  0.14333318196E+02 -0.23458961485E+03  0.25090649789E+03  0.86310030792E+02 0.  0.
          5    1    3    3  502    0  0.34472628270E+02  0.36139501980E+02 -0.40843946710E+02  0.64653894593E+02  0.41800000000E+01 0. -1.
         -5    1    3    3    0  502 -0.18135007320E+02 -0.50472820176E+02 -0.20645299938E+03  0.21334642585E+03  0.41800000000E+01 0. -1.
        -11    1    4    4    0    0 -0.47093831340E+02  0.27279966065E+02 -0.16469395918E+03  0.17345352602E+03  0.00000000000E+00 0.  1.
         11    1    4    4    0    0  0.30756210390E+02 -0.12946647870E+02 -0.69895655671E+02  0.77452971862E+02  0.00000000000E+00 0. -1.
</event>
<event>
 8    1  0.7232317E-009  0.1164611E+03  0.7561462E-02  0.1249052E+00
          2   -1    0    0  501    0  0.00000000000E+00  0.00000000000E+00  0.61678421943E+03  0.61678421943E+03  0.00000000000E+00 0. -1.
         -2   -1    0    0    0  501 -0.00000000000E+00 -0.00000000000E+00 -0.31562701345E+02  0.31562701345E+02  0.00000000000E+00 0.  1.
         25    2    1    2    0    0 -0.53180087697E+01  0.85608907266E+02  0.27739012711E+03  0.31614717725E+03  0.12508632558E+03 0.  0.
         23    2    1    2    0    0  0.53180087697E+01 -0.85608907266E+02  0.30783139097E+03  0.33219974352E+03  0.90770799846E+02 0.  0.
          5    1    3    3  502    0 -0.40020376360E+01 -0.15560654896E+02  0.16107183263E+03  0.16192516158E+03  0.41800000000E+01 0.  1.
         -5    1    3    3    0  502 -0.13159711337E+01  0.10116956216E+03  0.11631829448E+03  0.15422201567E+03  0.41800000000E+01 0.  1.
        -11    1    4    4    0    0 -0.27606771968E+02 -0.75846319620E+02  0.14659415575E+03  0.16734588301E+03  0.00000000000E+00 0.  1.
         11    1    4    4    0    0  0.32924780738E+02 -0.97625876456E+01  0.16123723522E+03  0.16485386051E+03  0.00000000000E+00 0. -1.
</event>
<event>
 8    1  0.7232317E-009  0.1108229E+03  0.7561462E-02  0.1259054E+00
          2   -1    0    0  501    0  0.00000000000E+00  0.00000000000E+00  0.84709947621E+03  0.84709947621E+03  0.00000000000E+00 0.  1.
         -2   -1    0    0    0  501 -0.00000000000E+00 -0.00000000000E+00 -0.16770016288E+02  0.16770016288E+02  0.00000000000E+00 0. -1.
         25    2    1    2    0    0 -0.30442034517E-01  0.43245889399E+02  0.37428540534E+03  0.39699726000E+03  0.12508817660E+03 0.  0.
         23    2    1    2    0    0  0.30442034517E-01 -0.43245889399E+02  0.45604405459E+03  0.46687223250E+03  0.90129317512E+02 0.  0.
          5    1    3    3  502    0  0.58356842120E+02  0.21312878507E+02  0.12063031184E+03  0.13575310069E+03  0.41800000000E+01 0.  1.
         -5    1    3    3    0  502 -0.58387284155E+02  0.21933010892E+02  0.25365509350E+03  0.26124415931E+03  0.41800000000E+01 0.  1.
        -11    1    4    4    0    0 -0.33848172851E+02  0.86095691330E+01  0.11277536239E+03  0.11805975542E+03  0.00000000000E+00 0. -1.
         11    1    4    4    0    0  0.33878614886E+02 -0.51855458532E+02  0.34326869220E+03  0.34881247708E+03  0.00000000000E+00 0.  1.
</event>
<event>
 8    1  0.7232317E-009  0.3401227E+03  0.7561462E-02  0.1066744E+00
         -1   -1    0    0    0  501 -0.00000000000E+00  0.00000000000E+00  0.72082393270E+03  0.72082393270E+03  0.00000000000E+00 0.  1.
          1   -1    0    0  501    0  0.00000000000E+00 -0.00000000000E+00 -0.19005831588E+03  0.19005831588E+03  0.00000000000E+00 0. -1.
         25    2    1    2    0    0 -0.29408029791E+03 -0.16081066848E+03  0.12665982604E+03  0.37951543631E+03  0.12508382051E+03 0.  0.
         23    2    1    2    0    0  0.29408029791E+03  0.16081066848E+03  0.40410579079E+03  0.53136681227E+03  0.81889598343E+02 0.  0.
          5    1    3    3  502    0 -0.16879972468E+03 -0.81501925323E+02  0.13486072566E+03  0.23095626990E+03  0.41800000000E+01 0.  1.
         -5    1    3    3    0  502 -0.12528057323E+03 -0.79308743154E+02 -0.82008996193E+01  0.14855916641E+03  0.41800000000E+01 0.  1.
        -11    1    4    4    0    0  0.19427987603E+03  0.14709160490E+03  0.30003922509E+03  0.38652832633E+03  0.00000000000E+00 0.  1.
         11    1    4    4    0    0  0.99800421879E+02  0.13719063576E+02  0.10406656569E+03  0.14483848593E+03  0.00000000000E+00 0. -1.
</event>
<event>
 7    1  0.7232317E-009  0.1236168E+03  0.7561462E-02  0.1237247E+00
          2   -1    0    0  501    0  0.00000000000E+00  0.00000000000E+00  0.35655826222E+03  0.35655826222E+03  0.00000000000E+00 0.  1.
         -2   -1    0    0    0  501 -0.00000000000E+00 -0.00000000000E+00 -0.60338785158E+02  0.60338785158E+02  0.00000000000E+00 0. -1.
         25    2    1    2    0    0 -0.17868809925E+02 -0.31045572879E+02  0.23397182406E+03  0.26771720592E+03  0.12508623397E+03 0.  0.
          5    1    3    3  502    0 -0.36557980057E+02 -0.70999320329E+02  0.10947603111E+03  0.13557235404E+03  0.41800000000E+01 0. -1.
         -5    1    3    3    0  502  0.18689170132E+02  0.39953747450E+02  0.12449579295E+03  0.13214485188E+03  0.41800000000E+01 0. -1.
        -11    1    1    2    0    0 -0.44995930799E+02 -0.12242986244E+02 -0.57141809435E+01  0.46980595617E+02  0.00000000000E+00 0. -1.
         11    1    1    2    0    0  0.62864740724E+02  0.43288559123E+02  0.67961833944E+02  0.10219924584E+03  0.00000000000E+00 0.  1.
</event>
<event>
 8    1  0.7232317E-009  0.1149162E+03  0.7561462E-02  0.1251727E+00
          1   -1    0    0  501    0  0.00000000000E+00  0.00000000000E+00  0.12151802531E+03  0.12151802531E+03  0.00000000000E+00 0. -1.
         -1   -1    0    0    0  501 -0.00000000000E+00 -0.00000000000E+00 -0.11307829843E+03  0.11307829843E+03  0.00000000000E+00 0.  1.
         25    2    1    2    0    0 -0.24376596121E+02 -0.38876542613E+02  0.29599164266E+01  0.13327377073E+03  0.12509009895E+03 0.  0.
         23    2    1    2    0    0  0.24376596121E+02  0.38876542613E+02  0.54798104543E+01  0.10132255301E+03  0.90169991804E+02 0.  0.
          5    1    3    3  502    0 -0.71173422611E+02 -0.40160837664E+02 -0.14558922088E+02  0.83114280243E+02  0.41800000000E+01 0.  1.
         -5    1    3    3    0  502  0.46796826490E+02  0.12842950518E+01  0.17518838515E+02  0.50159490490E+02  0.41800000000E+01 0.  1.
        -11    1    4    4    0    0  0.15526277339E+02 -0.28816677675E+02  0.45413172786E+01  0.33046781430E+02  0.00000000000E+00 0.  1.
         11    1    4    4    0    0  0.88503187822E+01  0.67693220288E+02  0.93849317572E+00  0.68275771581E+02  0.00000000000E+00 0. -1.
</event>
<event>
 8    1  0.7232317E-009  0.8592271E+02  0.7561462E-02  0.1313037E+00
          2   -1    0    0  501    0  0.00000000000E+00  0.00000000000E+00  0.10662304282E+03  0.10662304282E+03  0.00000000000E+00 0.  1.
         -2   -1    0    0    0  501 -0.00000000000E+00 -0.00000000000E+00 -0.17921548561E+03  0.17921548561E+03  0.00000000000E+00 0. -1.
         25    2    1    2    0    0  0.15533968862E+02  0.57442074063E+02  0.24361494054E+02  0.14064894080E+03  0.12509095129E+03 0.  0.
         23    2    1    2    0    0 -0.15533968862E+02 -0.57442074063E+02 -0.96953936839E+02  0.14518958763E+03  0.90216708133E+02 0.  0.
          5    1    3    3  502    0  0.17663081980E+02  0.22951523435E+02  0.74255505320E+02  0.79812964883E+02  0.41800000000E+01 0. -1.
         -5    1    3    3    0  502 -0.21291131177E+01  0.34490550629E+02 -0.49894011266E+02  0.60835975915E+02  0.41800000000E+01 0. -1.
        -11    1    4    4    0    0 -0.12791569564E+02 -0.82037154548E+02 -0.79083082149E+02  0.11466408706E+03  0.00000000000E+00 0. -1.
         11    1    4    4    0    0 -0.27423992985E+01  0.24595080484E+02 -0.17870854690E+02  0.30525500574E+02  0.00000000000E+00 0.  1.
</event>
<event>
 8    1  0.7232317E-009  0.9730600E+02  0.7561462E-02  0.1286065E+00
         -1   -1    0    0    0  501 -0.00000000000E+00  0.00000000000E+00  0.32019253813E+03  0.32019253813E+03  0.00000000000E+00 0.  1.
          1   -1    0    0  501    0  0.00000000000E+00 -0.00000000000E+00 -0.45147783466E+02  0.45147783466E+02  0.00000000000E+00 0. -1.
         25    2    1    2    0    0  0.10632390781E+02  0.43400536533E+02  0.11311161247E+03  0.17446517370E+03  0.12508879108E+03 0.  0.
         23    2    1    2    0    0 -0.10632390781E+02 -0.43400536533E+02  0.16193314219E+03  0.19087514789E+03  0.90632914758E+02 0.  0.
          5    1    3    3  502    0  0.19732407796E+02 -0.41672136067E+02  0.49443544168E+02  0.67735303216E+02  0.41800000000E+01 0. -1.
         -5    1    3    3    0  502 -0.91000170153E+01  0.85072672600E+02  0.63668068305E+02  0.10672987049E+03  0.41800000000E+01 0. -1.
        -11    1    4    4    0    0  0.98883052768E+01 -0.40787014403E+02  0.16473754557E+03  0.16999946484E+03  0.00000000000E+00 0.  1.
         11    1    4    4    0    0 -0.20520696058E+02 -0.26135221297E+01 -0.28044033778E+01  0.20875683053E+02  0.00000000000E+00 0. -1.
</event>
<event>
 8    1  0.7232317E-009  0.1466283E+03  0.7561462E-02  0.1204678E+00
         -2   -1    0    0    0  501 -0.00000000000E+00  0.00000000000E+00  0.43488357000E+02  0.43488357000E+02  0.00000000000E+00 0. -1.
          2   -1    0    0  501    0  0.00000000000E+00 -0.00000000000E+00 -0.73791834347E+03  0.73791834347E+03  0.00000000000E+00 0.  1.
         25    2    1    2    0    0  0.92290477259E+02 -0.49443066319E+02 -0.57865848247E+03  0.60121145819E+03  0.12508968432E+03 0.  0.
         23    2    1    2    0    0 -0.92290477259E+02  0.49443066319E+02 -0.11577150400E+03  0.18019524229E+03  0.90028524385E+02 0.  0.
          5    1    3    3  502    0  0.98502258860E+02  0.69632333748E+01 -0.44677047941E+03  0.45757241535E+03  0.41800000000E+01 0. -1.
         -5    1    3    3    0  502 -0.62117816006E+01 -0.56406299694E+02 -0.13188800306E+03  0.14363904284E+03  0.41800000000E+01 0. -1.
        -11    1    4    4    0    0 -0.15381605368E+02  0.58121197694E+02 -0.58753984246E+02  0.84063654868E+02  0.00000000000E+00 0.  1.
         11    1    4    4    0    0 -0.76908871891E+02 -0.86781313752E+01 -0.57017519759E+02  0.96131587417E+02  0.00000000000E+00 0. -1.
</event>
<event>
 8    1  0.7232317E-009  0.2292700E+03  0.7561462E-02  0.1127155E+00
         -1   -1    0    0    0  501 -0.00000000000E+00  0.00000000000E+00  0.37556456870E+02  0.37556456870E+02  0.00000000000E+00 0.  1.
          1   -1    0    0  501    0  0.00000000000E+00 -0.00000000000E+00 -0.18092160096E+04  0.18092160096E+04  0.00000000000E+00 0. -1.
         25    2    1    2    0    0  0.20775477052E+03  0.41431164097E+02 -0.12819074146E+04  0.13053024339E+04  0.12509691664E+03 0.  0.
         23    2    1    2    0    0 -0.20775477052E+03 -0.41431164097E+02 -0.48975213820E+03  0.54147003254E+03  0.91945925645E+02 0.  0.
          5    1    3    3  502    0  0.92156759192E+02 -0.44014178638E+02 -0.53103466022E+03  0.54078221027E+03  0.41800000000E+01 0. -1.
         -5    1    3    3    0  502  0.11559801132E+03  0.85445342735E+02 -0.75087275433E+03  0.76452022368E+03  0.41800000000E+01 0. -1.
        -11    1    4    4    0    0 -0.71827758802E+02 -0.61808899363E+01 -0.27941713016E+03  0.28856777880E+03  0.00000000000E+00 0. -1.
         11    1    4    4    0    0 -0.13592701171E+03 -0.35250274161E+02 -0.21033500803E+03  0.25290225374E+03  0.00000000000E+00 0.  1.
</event>
<event>
 8    1  0.7232317E-009  0.8779768E+02  0.7561462E-02  0.1308274E+00
         -1   -1    0    0    0  501 -0.00000000000E+00  0.00000000000E+00  0.87510829634E+02  0.87510829634E+02  0.00000000000E+00 0. -1.
          1   -1    0    0  501    0  0.00000000000E+00 -0.00000000000E+00 -0.24159740228E+03  0.24159740228E+03  0.00000000000E+00 0.  1.
         25    2    1    2    0    0  0.55309297477E+02  0.42475273865E+02 -0.15786028576E+03  0.21314585507E+03  0.12509203985E+03 0.  0.
         23    2    1    2    0    0 -0.55309297477E+02 -0.42475273865E+02  0.37737131109E+01  0.11596237685E+03  0.92573023376E+02 0.  0.
          5    1    3    3  502    0 -0.87968016708E+01  0.30069723559E+02  0.98642849050E+01  0.33111153880E+02  0.41800000000E+01 0.  1.
         -5    1    3    3    0  502  0.64106099148E+02  0.12405550306E+02 -0.16772457067E+03  0.18003470119E+03  0.41800000000E+01 0.  1.
        -11    1    4    4    0    0 -0.34836089791E+02 -0.41168439038E+01  0.44312006685E+02  0.56515975548E+02  0.00000000000E+00 0. -1.
         11    1    4    4    0    0 -0.20473207687E+02 -0.38358429961E+02 -0.40538293574E+02  0.59446401304E+02  0.00000000000E+00 0.  1.
</event>
<event>
 8    1  0.7232317E-009  0.1240146E+03  0.7561462E-02  0.1236617E+00
          3   -1    0    0  501    0  0.00000000000E+00  0.00000000000E+00  0.39853947487E+03  0.39853947487E+03  0.00000000000E+00 0. -1.
         -3   -1    0    0    0  501 -0.00000000000E+00 -0.00000000000E+00 -0.48271912207E+02  0.48271912207E+02  0.00000000000E+00 0.  1.
         25    2    1    2    0    0  0.55632028749E+02 -0.30964736118E+02  0.98515535635E+02  0.17148418365E+03  0.12509107472E+03 0.  0.
         23    2    1    2    0    0 -0.55632028749E+02  0.30964736118E+02  0.25175202702E+03  0.27532720342E+03  0.91499990865E+02 0.  0.
          5    1    3    3  502    0  0.95683537185E+02 -0.21187870659E+02  0.77553279493E+02  0.12504498675E+03  0.41800000000E+01 0.  1.
         -5    1    3    3    0  502 -0.40051508436E+02 -0.97768654590E+01  0.20962256142E+02  0.46439196900E+02  0.41800000000E+01 0.  1.
        -11    1    4    4    0    0  0.22835200005E+02 -0.29349074418E+01  0.31077165250E+02  0.38676223199E+02  0.00000000000E+00 0.  1.
         11    1    4    4    0    0 -0.78467228755E+02  0.33899643560E+02  0.22067486177E+03  0.23665098022E+03  0.00000000000E+00 0. -1.
</event>
<event>
 8    1  0.7232317E-009  0.1097810E+03  0.7561462E-02  0.1260976E+00
         -2   -1    0    0    0  501 -0.00000000000E+00  0.00000000000E+00  0.50071529273E+02  0.50071529273E+02  0.00000000000E+00 0.  1.
          2   -1    0    0  501    0  0.00000000000E+00 -0.00000000000E+00 -0.91998222757E+03  0.91998222757E+03  0.00000000000E+00 0. -1.
         25    2    1    2    0    0  0.49345733442E+02  0.33262305205E+02 -0.84690836583E+03  0.85816126065E+03  0.12508232019E+03 0.  0.
         23    2    1    2    0    0 -0.49345733442E+02 -0.33262305205E+02 -0.23002332465E+02  0.11189249618E+03  0.91920841201E+02 0.  0.
          5    1    3    3  502    0  0.88358852304E+02  0.39074278603E+02 -0.66372998965E+03  0.67073769656E+03  0.41800000000E+01 0. -1.
         -5    1    3    3    0  502 -0.39013118862E+02 -0.58119733979E+01 -0.18317837618E+03  0.18742356410E+03  0.41800000000E+01 0. -1.
        -11    1    4    4    0    0 -0.31323182396E+02  0.12718844581E+02 -0.46265317966E+02  0.57300876166E+02  0.00000000000E+00 0. -1.
         11    1    4    4    0    0 -0.18022551046E+02 -0.45981149786E+02  0.23262985501E+02  0.54591620019E+02  0.00000000000E+00 0.  1.
</event>
<event>
 8    1  0.7232317E-009  0.1093088E+03  0.7561462E-02  0.1261855E+00
         -3   -1    0    0    0  501 -0.00000000000E+00  0.00000000000E+00  0.27434345699E+03  0.27434345699E+03  0.00000000000E+00 0.  1.
          3   -1    0    0  501    0  0.00000000000E+00 -0.00000000000E+00 -0.63982859068E+02  0.63982859068E+02  0.00000000000E+00 0. -1.
         25    2    1    2    0    0 -0.21134594170E+02  0.72272683231E+02  0.97151982071E+02  0.17537577806E+03  0.12509254214E+03 0.  0.
         23    2    1    2    0    0  0.21134594170E+02 -0.72272683231E+02  0.11320861585E+03  0.16295053799E+03  0.89814672062E+02 0.  0.
          5    1    3    3  502    0 -0.15478763873E+02 -0.22760870195E+02  0.71441777503E+02  0.76674958858E+02  0.41800000000E+01 0. -1.
         -5    1    3    3    0  502 -0.56558302974E+01  0.95033553425E+02  0.25710204568E+02  0.98700819206E+02  0.41800000000E+01 0. -1.
        -11    1    4    4    0    0  0.37531546919E+02 -0.69311976724E+02  0.12111739498E+03  0.14450671437E+03  0.00000000000E+00 0.  1.
         11    1    4    4    0    0 -0.16396952749E+02 -0.29607065061E+01 -0.79087791300E+01  0.18443823622E+02  0.00000000000E+00 0. -1.
</event>
<event>
 8    1  0.7232317E-009  0.1479893E+03  0.7561462E-02  0.1202966E+00
          2   -1    0    0  501    0  0.00000000000E+00  0.00000000000E+00  0.29194736342E+03  0.29194736342E+03  0.00000000000E+00 0. -1.
         -2   -1    0    0    0  501 -0.00000000000E+00 -0.00000000000E+00 -0.11124988968E+03  0.11124988968E+03  0.00000000000E+00 0.  1.
         25    2    1    2    0    0 -0.11752721794E+03  0.63878810253E+02  0.15083456284E+03  0.23723587216E+03  0.12504656867E+03 0.  0.
         23    2    1    2    0    0  0.11752721794E+03 -0.63878810253E+02  0.29862910899E+02  0.16596138095E+03  0.93585453799E+02 0.  0.
          5    1    3    3  502    0 -0.10829411026E+03  0.72645315901E+02  0.56878801405E+02  0.14232928964E+03  0.41800000000E+01 0.  1.
         -5    1    3    3    0  502 -0.92331076751E+01 -0.87665056479E+01  0.93955761431E+02  0.94906582515E+02  0.41800000000E+01 0. -1.
        -11    1    4    4    0    0  0.26675309062E+02 -0.54619616503E+02  0.41930904087E+02  0.73844941181E+02  0.00000000000E+00 0. -1.
         11    1    4    4    0    0  0.90851908878E+02 -0.92591937495E+01 -0.12067993188E+02  0.92116439766E+02  0.00000000000E+00 0.  1.
</event>
<event>
 8    1  0.7232317E-009  0.1795794E+03  0.7561462E-02  0.1168211E+00
          1   -1    0    0  501    0  0.00000000000E+00  0.00000000000E+00  0.74125222556E+03  0.74125222556E+03  0.00000000000E+00 0. -1.
         -1   -1    0    0    0  501 -0.00000000000E+00 -0.00000000000E+00 -0.44972296809E+02  0.44972296809E+02  0.00000000000E+00 0.  1.
         25    2    1    2    0    0 -0.14042131627E+03 -0.34893371859E+02  0.31653194338E+03  0.36983135260E+03  0.12508822775E+03 0.  0.
         23    2    1    2    0    0  0.14042131627E+03  0.34893371859E+02  0.37974798537E+03  0.41639316977E+03  0.90769190670E+02 0.  0.
          5    1    3    3  502    0 -0.47086515703E+02  0.45527736428E+02  0.13878018838E+03  0.15351653927E+03  0.41800000000E+01 0. -1.
         -5    1    3    3    0  502 -0.93334800571E+02 -0.80421108287E+02  0.17775175500E+03  0.21631481332E+03  0.41800000000E+01 0. -1.
        -11    1    4    4    0    0  0.14914397186E+03  0.16697287221E+02  0.32294885070E+03  0.35611611015E+03  0.00000000000E+00 0.  1.
         11    1    4    4    0    0 -0.87226555871E+01  0.18196084638E+02  0.56799134677E+02  0.60277059622E+02  0.00000000000E+00 0. -1.
</event>
<event>
 8    1  0.7232317E-009  0.1066853E+03  0.7561462E-02  0.1266834E+00
         -1   -1    0    0    0  501 -0.00000000000E+00  0.00000000000E+00  0.12071104542E+02  0.12071104542E+02  0.00000000000E+00 0.  1.
          1   -1    0    0  501    0  0.00000000000E+00 -0.00000000000E+00 -0.14708892812E+04  0.14708892812E+04  0.00000000000E+00 0. -1.
         25    2    1    2    0    0 -0.39372431049E+02  0.57476309375E+02 -0.10130347893E+04  0.10231036137E+04  0.12509118909E+03 0.  0.
         23    2    1    2    0    0  0.39372431049E+02 -0.57476309375E+02 -0.44578338730E+03  0.45985677197E+03  0.88835285064E+02 0.  0.
          5    1    3    3  502    0  0.21904529650E+02  0.24928445858E+02 -0.70741843453E+02  0.78250345988E+02  0.41800000000E+01 0. -1.
         -5    1    3    3    0  502 -0.61276960698E+02  0.32547863517E+02 -0.94229294587E+03  0.94485326774E+03  0.41800000000E+01 0. -1.
        -11    1    4    4    0    0  0.69181575144E+01 -0.73773186393E+02 -0.34103064962E+03  0.34898746097E+03  0.00000000000E+00 0. -1.
         11    1    4    4    0    0  0.32454273534E+02  0.16296877019E+02 -0.10475273767E+03  0.11086931100E+03  0.00000000000E+00 0.  1.
</event>
<event>
 8    1  0.7232317E-009  0.3049989E+03  0.7561462E-02  0.1082768E+00
          1   -1    0    0  501    0  0.00000000000E+00  0.00000000000E+00  0.27177251121E+03  0.27177251121E+03  0.00000000000E+00 0. -1.
         -1   -1    0    0    0  501 -0.00000000000E+00 -0.00000000000E+00 -0.38224356200E+03  0.38224356200E+03  0.00000000000E+00 0.  1.
         25    2    1    2    0    0  0.59862655534E+02 -0.28410139762E+03  0.31705377453E+02  0.31772323262E+03  0.12508269238E+03 0.  0.
         23    2    1    2    0    0 -0.59862655534E+02  0.28410139762E+03 -0.14217642824E+03  0.33629284059E+03  0.92636905322E+02 0.  0.
          5    1    3    3  502    0 -0.29256938343E+02 -0.10337852047E+03  0.43144779511E+02  0.11585349082E+03  0.41800000000E+01 0.  1.
         -5    1    3    3    0  502  0.89119593877E+02 -0.18072287714E+03 -0.11439402058E+02  0.20186974180E+03  0.41800000000E+01 0.  1.
        -11    1    4    4    0    0  0.19641298238E+02  0.51452903923E+02 -0.47861471809E+02  0.72965076594E+02  0.00000000000E+00 0.  1.
         11    1    4    4    0    0 -0.79503953771E+02  0.23264849369E+03 -0.94314956431E+02  0.26332776399E+03  0.00000000000E+00 0. -1.
</event>
<event>
 8    1  0.7232317E-009  0.1393513E+03  0.7561462E-02  0.1214205E+00
          2   -1    0    0  501    0  0.00000000000E+00  0.00000000000E+00  0.25237767288E+03  0.25237767288E+03  0.00000000000E+00 0. -1.
         -2   -1    0    0    0  501 -0.00000000000E+00 -0.00000000000E+00 -0.10502771581E+03  0.10502771581E+03  0.00000000000E+00 0.  1.
         25    2    1    2    0    0  0.71759752312E+02 -0.10006701048E+03  0.76796029009E+02  0.19159168500E+03  0.12508746960E+03 0.  0.
         23    2    1    2    0    0 -0.71759752312E+02  0.10006701048E+03  0.70553928060E+02  0.16581370370E+03  0.85752311521E+02 0.  0.
          5    1    3    3  502    0  0.71892938112E+02 -0.65202199123E+02  0.10753898943E+03  0.14492076445E+03  0.41800000000E+01 0. -1.
         -5    1    3    3    0  502 -0.13318579979E+00 -0.34864811357E+02 -0.30742960422E+02  0.46670920549E+02  0.41800000000E+01 0. -1.
        -11    1    4    4    0    0 -0.46720742309E+02  0.10999499335E+03  0.42283873933E+02  0.12676613238E+03  0.00000000000E+00 0.  1.
         11    1    4    4    0    0 -0.25039010003E+02 -0.99279828661E+01  0.28270054127E+02  0.39047571321E+02  0.00000000000E+00 0. -1.
</event>
<event>
 8    1  0.7232317E-009  0.1061741E+03  0.7561462E-02  0.1267824E+00
         -2   -1    0    0    0  501 -0.00000000000E+00  0.00000000000E+00  0.26696985768E+03  0.26696985768E+03  0.00000000000E+00 0. -1.
          2   -1    0    0  501    0  0.00000000000E+00 -0.00000000000E+00 -0.64727207269E+02  0.64727207269E+02  0.00000000000E+00 0.  1.
         25    2    1    2    0    0  0.80264044607E+01 -0.45689314130E+01  0.20203036755E+03  0.23780273360E+03  0.12509425405E+03 0.  0.
         23    2    1    2    0    0 -0.80264044607E+01  0.45689314130E+01  0.21228286826E+00  0.93894331347E+02  0.93438761187E+02 0.  0.
          5    1    3    3  502    0  0.63307425497E+02 -0.16570647422E+02  0.13432836043E+03  0.14947908648E+03  0.41800000000E+01 0.  1.
         -5    1    3    3    0  502 -0.55281021036E+02  0.12001716009E+02  0.67702007117E+02  0.88323647126E+02  0.41800000000E+01 0.  1.
        -11    1    4    4    0    0 -0.27758893226E+01  0.47107982640E+02  0.13389762215E+02  0.49052556734E+02  0.00000000000E+00 0. -1.
         11    1    4    4    0    0 -0.52505151382E+01 -0.42539051227E+02 -0.13177479347E+02  0.44841774613E+02  0.00000000000E+00 0.  1.
</event>
<event>
 8    1  0.7232317E-009  0.1037189E+03  0.7561462E-02  0.1272664E+00
         -2   -1    0    0    0  501 -0.00000000000E+00  0.00000000000E+00  0.25457397035E+03  0.25457397035E+03  0.00000000000E+00 0.  1.
          2   -1    0    0  501    0  0.00000000000E+00 -0.00000000000E+00 -0.53623403332E+02  0.53623403332E+02  0.00000000000E+00 0. -1.
         25    2    1    2    0    0  0.40434165410E+02  0.17039987278E+02  0.12596440922E+03  0.18286373241E+03  0.12508728689E+03 0.  0.
         23    2    1    2    0    0 -0.40434165410E+02 -0.17039987278E+02  0.74986157796E+02  0.12533364127E+03  0.90334461164E+02 0.  0.
          5    1    3    3  502    0  0.48596323058E+01 -0.48835003370E+02  0.20245006584E+02  0.53252288888E+02  0.41800000000E+01 0. -1.
         -5    1    3    3    0  502  0.35574533104E+02  0.65874990648E+02  0.10571940264E+03  0.12961144352E+03  0.41800000000E+01 0. -1.
        -11    1    4    4    0    0  0.18601533805E+02  0.64140302694E+01  0.55505190928E+02  0.58889583664E+02  0.00000000000E+00 0.  1.
         11    1    4    4    0    0 -0.59035699215E+02 -0.23454017548E+02  0.19480966869E+02  0.66444057605E+02  0.00000000000E+00 0. -1.
</event>
<event>
 8    1  0.7232317E-009  0.1222111E+03  0.7561462E-02  0.1239493E+00
          3   -1    0    0  501    0  0.00000000000E+00  0.00000000000E+00  0.60958866703E+02  0.60958866703E+02  0.00000000000E+00 0. -1.
         -3   -1    0    0    0  501 -0.00000000000E+00 -0.00000000000E+00 -0.24748437839E+03  0.24748437839E+03  0.00000000000E+00 0.  1.
         25    2    1    2    0    0  0.56541858221E+02 -0.12916531647E+02 -0.11207112389E+03  0.17768409092E+03  0.12509148987E+03 0.  0.
         23    2    1    2    0    0 -0.56541858221E+02  0.12916531647E+02 -0.74454387802E+02  0.13075915417E+03  0.90502386798E+02 0.  0.
          5    1    3    3  502    0  0.24094369920E+02  0.56085145569E+02 -0.43740942401E+02  0.75211865137E+02  0.41800000000E+01 0.  1.
         -5    1    3    3    0  502  0.32447488301E+02 -0.69001677216E+02 -0.68330181486E+02  0.10247222579E+03  0.41800000000E+01 0.  1.
        -11    1    4    4    0    0 -0.77582995481E+02 -0.70032279473E+01 -0.47835462271E+02  0.91413335133E+02  0.00000000000E+00 0. -1.
         11    1    4    4    0    0  0.21041137260E+02  0.19919759594E+02 -0.26618925530E+02  0.39345819039E+02  0.00000000000E+00 0.  1.
</event>
<event>
 8    1  0.7232317E-009  0.1308534E+03  0.7561462E-02  0.1226195E+00
          1   -1    0    0  501    0  0.00000000000E+00  0.00000000000E+00  0.34416544834E+02  0.34416544834E+02  0.00000000000E+00 0. -1.
         -1   -1    0    0    0  501 -0.00000000000E+00 -0.00000000000E+00 -0.53754152921E+03  0.53754152921E+03  0.00000000000E+00 0.  1.
         25    2    1    2    0    0  0.82502941887E+02 -0.45726309586E+01 -0.26652632971E+03  0.30579534724E+03  0.12508743178E+03 0.  0.
         23    2    1    2    0    0 -0.82502941887E+02  0.45726309586E+01 -0.23659865466E+03  0.26616272680E+03  0.89643903180E+02 0.  0.
          5    1    3    3  502    0 -0.30912684135E+02 -0.17308651781E+02 -0.60629623945E+02  0.70346337266E+02  0.41800000000E+01 0.  1.
         -5    1    3    3    0  502  0.11341562602E+03  0.12736020823E+02 -0.20589670577E+03  0.23544900998E+03  0.41800000000E+01 0.  1.
        -11    1    4    4    0    0 -0.18615203466E+02 -0.32870776931E+02 -0.13662106209E+03  0.14174741050E+03  0.00000000000E+00 0.  1.
         11    1    4    4    0    0 -0.63887738420E+02  0.37443407889E+02 -0.99977592573E+02  0.12441531631E+03  0.00000000000E+00 0. -1.
</event>
<event>
 8    1  0.7232317E-009  0.2232535E+03  0.7561462E-02  0.1131480E+00
         -2   -1    0    0    0  501 -0.00000000000E+00  0.00000000000E+00  0.24918587492E+03  0.24918587492E+03  0.00000000000E+00 0.  1.
          2   -1    0    0  501    0  0.00000000000E+00 -0.00000000000E+00 -0.25430438800E+03  0.25430438800E+03  0.00000000000E+00 0. -1.
         25    2    1    2    0    0 -0.19797301256E+03  0.42172666244E+02 -0.10434829593E+03  0.25982263561E+03  0.12508951848E+03 0.  0.
         23    2    1    2    0    0  0.19797301256E+03 -0.42172666244E+02  0.99229782849E+02  0.24366762731E+03  0.92496028642E+02 0.  0.
          5    1    3    3  502    0 -0.46742804821E+02 -0.39717189378E+02 -0.50502988496E+02  0.79563617198E+02  0.41800000000E+01 0.  1.
         -5    1    3    3    0  502 -0.15123020774E+03  0.81889855623E+02 -0.53845307433E+02  0.18025901841E+03  0.41800000000E+01 0.  1.
        -11    1    4    4    0    0  0.15294317041E+03 -0.60374218784E+02  0.10448111083E+03  0.19481520010E+03  0.00000000000E+00 0.  1.
         11    1    4    4    0    0  0.45029842152E+02  0.18201552540E+02 -0.52513279817E+01  0.48852427213E+02  0.00000000000E+00 0. -1.
</event>
<event>
 8    1  0.7232317E-009  0.1330564E+03  0.7561462E-02  0.1222990E+00
          1   -1    0    0  501    0  0.00000000000E+00  0.00000000000E+00  0.56739819353E+03  0.56739819353E+03  0.00000000000E+00 0. -1.
         -1   -1    0    0    0  501 -0.00000000000E+00 -0.00000000000E+00 -0.44751207319E+02  0.44751207319E+02  0.00000000000E+00 0.  1.
         25    2    1    2    0    0  0.61908124491E+02 -0.23702770577E+02  0.43556536167E+03  0.45799404913E+03  0.12508767941E+03 0.  0.
         23    2    1    2    0    0 -0.61908124491E+02  0.23702770577E+02  0.87081624540E+02  0.15415535172E+03  0.10856438606E+03 0.  0.
          5    1    3    3  502    0  0.79887346454E+02  0.28280238887E+02  0.29605587187E+03  0.30797453093E+03  0.41800000000E+01 0.  1.
         -5    1    3    3    0  502 -0.17979221964E+02 -0.51983009464E+02  0.13950948981E+03  0.15001951820E+03  0.41800000000E+01 0.  1.
        -11    1    4    4    0    0 -0.82974758966E+02  0.46454868345E+02  0.56542859832E+02  0.11063435459E+03  0.00000000000E+00 0.  1.
         11    1    4    4    0    0  0.21066634475E+02 -0.22752097768E+02  0.30538764707E+02  0.43520997126E+02  0.00000000000E+00 0. -1.
</event>
<event>
 8    1  0.7232317E-009  0.8454995E+02  0.7561462E-02  0.1316614E+00
         -2   -1    0    0    0  501 -0.00000000000E+00  0.00000000000E+00  0.28226408827E+02  0.28226408827E+02  0.00000000000E+00 0. -1.
          2   -1    0    0  501    0  0.00000000000E+00 -0.00000000000E+00 -0.51293667143E+03  0.51293667143E+03  0.00000000000E+00 0.  1.
         25    2    1    2    0    0 -0.18397720421E+02 -0.50939142532E+02 -0.27758348481E+03  0.30924608569E+03  0.12508908073E+03 0.  0.
         23    2    1    2    0    0  0.18397720421E+02  0.50939142532E+02 -0.20712677779E+03  0.23191699456E+03  0.89166798369E+02 0.  0.
          5    1    3    3  502    0 -0.26025212149E+02  0.25534583651E+01 -0.61785231879E-01  0.26482221101E+02  0.41800000000E+01 0.  1.
         -5    1    3    3    0  502  0.76274917286E+01 -0.53492600897E+02 -0.27752169958E+03  0.28276386459E+03  0.41800000000E+01 0.  1.
        -11    1    4    4    0    0  0.42822624270E+02  0.47170050738E+02 -0.19345096347E+03  0.20367146610E+03  0.00000000000E+00 0.  1.
         11    1    4    4    0    0 -0.24424903849E+02  0.37690917937E+01 -0.13675814323E+02  0.28245528467E+02  0.00000000000E+00 0. -1.
</event>
<event>
 8    1  0.7232317E-009  0.1201733E+03  0.7561462E-02  0.1242811E+00
         -1   -1    0    0    0  501 -0.00000000000E+00  0.00000000000E+00  0.10457239837E+04  0.10457239837E+04  0.00000000000E+00 0.  1.
          1   -1    0    0  501    0  0.00000000000E+00 -0.00000000000E+00 -0.26173725306E+02  0.26173725306E+02  0.00000000000E+00 0. -1.
         25    2    1    2    0    0  0.35490509135E+01 -0.78382482206E+02  0.85649572864E+03  0.86913143158E+03  0.12509237744E+03 0.  0.
         23    2    1    2    0    0 -0.35490509135E+01  0.78382482206E+02  0.16305452976E+03  0.20276627743E+03  0.91493028754E+02 0.  0.
          5    1    3    3  502    0  0.34684053121E+02 -0.89249740595E+02  0.39583839988E+03  0.40727633243E+03  0.41800000000E+01 0.  1.
         -5    1    3    3    0  502 -0.31135002207E+02  0.10867258389E+02  0.46065732877E+03  0.46185509916E+03  0.41800000000E+01 0.  1.
        -11    1    4    4    0    0 -0.17156827401E+02  0.91061113511E+02  0.15852946176E+03  0.18362481685E+03  0.00000000000E+00 0.  1.
         11    1    4    4    0    0  0.13607776487E+02 -0.12678631305E+02  0.45250680024E+01  0.19141460579E+02  0.00000000000E+00 0. -1.
</event>
<event>
 8    1  0.7232317E-009  0.1583760E+03  0.7561462E-02  0.1190543E+00
          1   -1    0    0  501    0  0.00000000000E+00  0.00000000000E+00  0.59793452628E+03  0.59793452628E+03  0.00000000000E+00 0. -1.
         -1   -1    0    0    0  501 -0.00000000000E+00 -0.00000000000E+00 -0.93200854002E+02  0.93200854002E+02  0.00000000000E+00 0.  1.
         25    2    1    2    0    0 -0.15226402154E+02  0.12554290167E+03  0.50624108181E+03  0.53658177733E+03  0.12508839823E+03 0.  0.
         23    2    1    2    0    0  0.15226402154E+02 -0.12554290167E+03 -0.15074095271E+01  0.15455360295E+03  0.88835130550E+02 0.  0.
          5    1    3    3  502    0 -0.37222647545E+02  0.13419657432E+03  0.48470812609E+03  0.50433489464E+03  0.41800000000E+01 0. -1.
         -5    1    3    3    0  502  0.21996245391E+02 -0.86536726493E+01  0.21532955718E+02  0.32246882695E+02  0.41800000000E+01 0. -1.
        -11    1    4    4    0    0 -0.34418630558E+02 -0.29601033396E+02 -0.89561860923E+01  0.46271768681E+02  0.00000000000E+00 0.  1.
         11    1    4    4    0    0  0.49645032712E+02 -0.95941868275E+02  0.74487765652E+01  0.10828183427E+03  0.00000000000E+00 0. -1.
</event>
<event>
 8    1  0.7232317E-009  0.1293539E+03  0.7561462E-02  0.1228418E+00
          1   -1    0    0  501    0  0.00000000000E+00  0.00000000000E+00  0.56200259554E+02  0.56200259554E+02  0.00000000000E+00 0. -1.
         -1   -1    0    0    0  501 -0.00000000000E+00 -0.00000000000E+00 -0.41846546652E+03  0.41846546652E+03  0.00000000000E+00 0.  1.
         25    2    1    2    0    0 -0.40906623446E+02  0.65226726528E+02 -0.31313324383E+03  0.34587325080E+03  0.12509196431E+03 0.  0.
         23    2    1    2    0    0  0.40906623446E+02 -0.65226726528E+02 -0.49131963136E+02  0.12879247527E+03  0.90805694696E+02 0.  0.
          5    1    3    3  502    0 -0.47926749987E+02  0.99820649853E+02 -0.24913553604E+03  0.27266668887E+03  0.41800000000E+01 0. -1.
         -5    1    3    3    0  502  0.70201265410E+01 -0.34593923326E+02 -0.63997707793E+02  0.73206561936E+02  0.41800000000E+01 0. -1.
        -11    1    4    4    0    0  0.17700415316E+02 -0.81891988455E+02 -0.54186369944E+02  0.99778580683E+02  0.00000000000E+00 0.  1.
         11    1    4    4    0    0  0.23206208131E+02  0.16665261927E+02  0.50544068077E+01  0.29013894587E+02  0.00000000000E+00 0. -1.
</event>
<event>
 8    1  0.7232317E-009  0.1004043E+03  0.7561462E-02  0.1279448E+00
          4   -1    0    0  501    0  0.00000000000E+00  0.00000000000E+00  0.36742979317E+02  0.36742979317E+02  0.00000000000E+00 0. -1.
         -4   -1    0    0    0  501 -0.00000000000E+00 -0.00000000000E+00 -0.65904216905E+03  0.65904216905E+03  0.00000000000E+00 0.  1.
         25    2    1    2    0    0  0.13773492125E+02 -0.65759036878E+02 -0.53787319259E+03  0.55629958704E+03  0.12509076394E+03 0.  0.
         23    2    1    2    0    0 -0.13773492125E+02  0.65759036878E+02 -0.84425997146E+02  0.13948556132E+03  0.88399733073E+02 0.  0.
          5    1    3    3  502    0  0.25162140106E+02  0.22478392896E+02 -0.50651734186E+02  0.61003950839E+02  0.41800000000E+01 0. -1.
         -5    1    3    3    0  502 -0.11388647982E+02 -0.88237429773E+02 -0.48722145840E+03  0.49529563620E+03  0.41800000000E+01 0. -1.
        -11    1    4    4    0    0 -0.25465581539E+02  0.26386129443E+02 -0.90796625639E+02  0.97922167549E+02  0.00000000000E+00 0.  1.
         11    1    4    4    0    0  0.11692089414E+02  0.39372907435E+02  0.63706284926E+01  0.41563393775E+02  0.00000000000E+00 0. -1.
</event>
<event>
 8    1  0.7232317E-009  0.6511587E+02  0.7561462E-02  0.1377536E+00
         -2   -1    0    0    0  501 -0.00000000000E+00  0.00000000000E+00  0.58688232048E+02  0.58688232048E+02  0.00000000000E+00 0.  1.
          2   -1    0    0  501    0  0.00000000000E+00 -0.00000000000E+00 -0.22754051875E+03  0.22754051875E+03  0.00000000000E+00 0. -1.
         25    2    1    2    0    0 -0.44697805584E+02  0.18355894923E+02 -0.10893695927E+03  0.17277044493E+03  0.12509009890E+03 0.  0.
         23    2    1    2    0    0  0.44697805584E+02 -0.18355894923E+02 -0.59915327432E+02  0.11345830587E+03  0.83355311810E+02 0.  0.
          5    1    3    3  502    0 -0.14307028763E+02  0.38380308833E+01 -0.13125287042E+03  0.13215222263E+03  0.41800000000E+01 0.  1.
         -5    1    3    3    0  502 -0.30390776821E+02  0.14517864040E+02  0.22315911150E+02  0.40618222296E+02  0.41800000000E+01 0.  1.
        -11    1    4    4    0    0  0.26395760601E+02 -0.42848506219E+02 -0.49601128703E+01  0.50570083870E+02  0.00000000000E+00 0.  1.
         11    1    4    4    0    0  0.18302044983E+02  0.24492611296E+02 -0.54955214561E+02  0.62888221999E+02  0.00000000000E+00 0. -1.
</event>
<event>
 8    1  0.7232317E-009  0.2249434E+03  0.7561462E-02  0.1130250E+00
         -2   -1    0    0    0  501 -0.00000000000E+00  0.00000000000E+00  0.62306903832E+03  0.62306903832E+03  0.00000000000E+00 0. -1.
          2   -1    0    0  501    0  0.00000000000E+00 -0.00000000000E+00 -0.87657676152E+02  0.87657676152E+02  0.00000000000E+00 0.  1.
         25    2    1    2    0    0 -0.13084964245E+03  0.14886779341E+03  0.37291419314E+03  0.44044969530E+03  0.12509072626E+03 0.  0.
         23    2    1    2    0    0  0.13084964245E+03 -0.14886779341E+03  0.16249716902E+03  0.27027701917E+03  0.85796784940E+02 0.  0.
          5    1    3    3  502    0 -0.39478584832E+02  0.13603500164E+03  0.21474550706E+03  0.25728813718E+03  0.41800000000E+01 0. -1.
         -5    1    3    3    0  502 -0.91371057621E+02  0.12832791776E+02  0.15816868608E+03  0.18316155811E+03  0.41800000000E+01 0. -1.
        -11    1    4    4    0    0  0.49676003096E+01 -0.63551321796E+02  0.52763807003E+02  0.82749422260E+02  0.00000000000E+00 0. -1.
         11    1    4    4    0    0  0.12588204214E+03 -0.85316471618E+02  0.10973336202E+03  0.18752759691E+03  0.00000000000E+00 0.  1.
</event>
<event>
 8    1  0.7232317E-009  0.1299152E+03  0.7561462E-02  0.1227582E+00
         -2   -1    0    0    0  501 -0.00000000000E+00  0.00000000000E+00  0.14834326955E+02  0.14834326955E+02  0.00000000000E+00 0.  1.
          2   -1    0    0  501    0  0.00000000000E+00 -0.00000000000E+00 -0.15696766554E+04  0.15696766554E+04  0.00000000000E+00 0. -1.
         25    2    1    2    0    0 -0.84651359553E+02 -0.53099454832E+02 -0.10506407522E+04  0.10627695610E+04  0.12509094695E+03 0.  0.
         23    2    1    2    0    0  0.84651359553E+02  0.53099454832E+02 -0.50420157627E+03  0.52174142130E+03  0.89495678130E+02 0.  0.
          5    1    3    3  502    0 -0.13816466959E+02 -0.53449871109E+02 -0.80986748440E+03  0.81175772135E+03  0.41800000000E+01 0. -1.
         -5    1    3    3    0  502 -0.70834892594E+02  0.35041627750E+00 -0.24077326775E+03  0.25101183969E+03  0.41800000000E+01 0. -1.
        -11    1    4    4    0    0  0.76150732932E+01  0.55903163733E+02 -0.23855854789E+03  0.24513941712E+03  0.00000000000E+00 0.  1.
         11    1    4    4    0    0  0.77036286260E+02 -0.28037089008E+01 -0.26564302838E+03  0.27660200417E+03  0.00000000000E+00 0. -1.
</event>
<event>
 8    1  0.7232317E-009  0.1229169E+03  0.7561462E-02  0.1238361E+00
          2   -1    0    0  501    0  0.00000000000E+00  0.00000000000E+00  0.27171279843E+03  0.27171279843E+03  0.00000000000E+00 0. -1.
         -2   -1    0    0    0  501 -0.00000000000E+00 -0.00000000000E+00 -0.67897608925E+02  0.67897608925E+02  0.00000000000E+00 0.  1.
         25    2    1    2    0    0  0.51619387061E+02  0.59753423825E+02  0.83316012668E+02  0.16977776798E+03  0.12509156548E+03 0.  0.
         23    2    1    2    0    0 -0.51619387061E+02 -0.59753423825E+02  0.12049917684E+03  0.16983263938E+03  0.89933536571E+02 0.  0.
          5    1    3    3  502    0  0.55151551259E+01 -0.28910115097E+02  0.60170615790E+02  0.67113240836E+02  0.41800000000E+01 0.  1.
         -5    1    3    3    0  502  0.46104231935E+02  0.88663538922E+02  0.23145396878E+02  0.10266452714E+03  0.41800000000E+01 0.  1.
        -11    1    4    4    0    0 -0.46069004972E+02 -0.81512099937E+02  0.78401283635E+02  0.12212017413E+03  0.00000000000E+00 0.  1.
         11    1    4    4    0    0 -0.55503820894E+01  0.21758676111E+02  0.42097893204E+02  0.47712465244E+02  0.00000000000E+00 0. -1.
</event>
<event>
 8    1  0.7232317E-009  0.1154953E+03  0.7561462E-02  0.1250719E+00
         -1   -1    0    0    0  501 -0.00000000000E+00  0.00000000000E+00  0.25193436639E+03  0.25193436639E+03  0.00000000000E+00 0.  1.
          1   -1    0    0  501    0  0.00000000000E+00 -0.00000000000E+00 -0.11829854166E+03  0.11829854166E+03  0.00000000000E+00 0. -1.
         25    2    1    2    0    0 -0.39293668929E+02  0.79328165194E+02  0.17852711926E+03  0.23528076593E+03  0.12509259088E+03 0.  0.
         23    2    1    2    0    0  0.39293668929E+02 -0.79328165194E+02 -0.44891294531E+02  0.13495214212E+03  0.91432500391E+02 0.  0.
          5    1    3    3  502    0 -0.13815751233E+02  0.87817069993E+02  0.18676213481E+03  0.20688228576E+03  0.41800000000E+01 0. -1.
         -5    1    3    3    0  502 -0.25477917697E+02 -0.84889047988E+01 -0.82350155464E+01  0.28398480169E+02  0.41800000000E+01 0. -1.
        -11    1    4    4    0    0 -0.21107720357E+02 -0.30785546952E+02  0.11564761314E+02  0.39077224364E+02  0.00000000000E+00 0.  1.
         11    1    4    4    0    0  0.60401389286E+02 -0.48542618243E+02 -0.56456055846E+02  0.95874917759E+02  0.00000000000E+00 0. -1.
</event>
<event>
 8    1  0.7232317E-009  0.8689725E+02  0.7561462E-02  0.1310544E+00
         -2   -1    0    0    0  501 -0.00000000000E+00  0.00000000000E+00  0.37555447561E+02  0.37555447561E+02  0.00000000000E+00 0.  1.
          2   -1    0    0  501    0  0.00000000000E+00 -0.00000000000E+00 -0.42011054796E+03  0.42011054796E+03  0.00000000000E+00 0. -1.
         25    2    1    2    0    0 -0.35886694580E+02 -0.64980101912E+01 -0.29752857959E+03  0.32480904550E+03  0.12509029291E+03 0.  0.
         23    2    1    2    0    0  0.35886694580E+02  0.64980101912E+01 -0.85026520805E+02  0.13285695002E+03  0.95348733308E+02 0.  0.
          5    1    3    3  502    0 -0.75729076233E+02  0.40532256728E+01 -0.25225769604E+03  0.26344399640E+03  0.41800000000E+01 0. -1.
         -5    1    3    3    0  502  0.39842381653E+02 -0.10551235864E+02 -0.45270883551E+02  0.61365049104E+02  0.41800000000E+01 0. -1.
        -11    1    4    4    0    0  0.20563203356E+02 -0.18126298616E+02 -0.97504011948E+02  0.10128395914E+03  0.00000000000E+00 0. -1.
         11    1    4    4    0    0  0.15323491224E+02  0.24624308807E+02  0.12477491143E+02  0.31572990874E+02  0.00000000000E+00 0.  1.
</event>
<event>
 8    1  0.7232317E-009  0.1166130E+03  0.7561462E-02  0.1248791E+00
          2   -1    0    0  501    0  0.00000000000E+00  0.00000000000E+00  0.30600023618E+03  0.30600023618E+03  0.00000000000E+00 0.  1.
         -2   -1    0    0    0  501 -0.00000000000E+00 -0.00000000000E+00 -0.89148325763E+02  0.89148325763E+02  0.00000000000E+00 0. -1.
         25    2    1    2    0    0 -0.16752708816E+02  0.69793642140E+02 -0.57424286328E+01  0.14432858644E+03  0.12508381047E+03 0.  0.
         23    2    1    2    0    0  0.16752708816E+02 -0.69793642140E+02  0.22259433905E+03  0.25081997550E+03  0.90612441731E+02 0.  0.
          5    1    3    3  502    0 -0.55669205952E+02  0.39024146995E+02 -0.44390586162E+02  0.81301544142E+02  0.41800000000E+01 0. -1.
         -5    1    3    3    0  502  0.38916497136E+02  0.30769495145E+02  0.38648157529E+02  0.63027042301E+02  0.41800000000E+01 0. -1.
        -11    1    4    4    0    0 -0.33038089268E+02 -0.46967416614E+01  0.56854580845E+02  0.65924336081E+02  0.00000000000E+00 0.  1.
         11    1    4    4    0    0  0.49790798084E+02 -0.65096900479E+02  0.16573975820E+03  0.18489563942E+03  0.00000000000E+00 0. -1.
</event>
<event>
 8    1  0.7232317E-009  0.8230123E+02  0.7561462E-02  0.1322645E+00
          2   -1    0    0  501    0  0.00000000000E+00  0.00000000000E+00  0.10969151894E+04  0.10969151894E+04  0.00000000000E+00 0. -1.
         -2   -1    0    0    0  501 -0.00000000000E+00 -0.00000000000E+00 -0.11466369812E+02  0.11466369812E+02  0.00000000000E+00 0.  1.
         25    2    1    2    0    0 -0.11904345708E+01 -0.87590582429E+01  0.77594086275E+03  0.78600951972E+03  0.12509438182E+03 0.  0.
         23    2    1    2    0    0  0.11904345708E+01  0.87590582429E+01  0.30950795688E+03  0.32237203954E+03  0.89724123110E+02 0.  0.
          5    1    3    3  502    0 -0.36685916044E+02  0.63242603944E+01  0.69745084213E+03  0.69845615632E+03  0.41800000000E+01 0.  1.
         -5    1    3    3    0  502  0.35495481473E+02 -0.15083318637E+02  0.78490020620E+02  0.87553363402E+02  0.41800000000E+01 0.  1.
        -11    1    4    4    0    0  0.28893531427E-01  0.48545216185E+02  0.20144401722E+03  0.20721083689E+03  0.00000000000E+00 0. -1.
         11    1    4    4    0    0  0.11615410394E+01 -0.39786157942E+02  0.10806393966E+03  0.11516120265E+03  0.00000000000E+00 0.  1.
</event>
<event>
 8    1  0.7232317E-009  0.7594521E+02  0.7561462E-02  0.1340969E+00
          1   -1    0    0  501    0  0.00000000000E+00  0.00000000000E+00  0.13837621568E+03  0.13837621568E+03  0.00000000000E+00 0. -1.
         -1   -1    0    0    0  501 -0.00000000000E+00 -0.00000000000E+00 -0.16861909649E+03  0.16861909649E+03  0.00000000000E+00 0.  1.
         25    2    1    2    0    0  0.18139830826E+02 -0.64649184224E+01  0.89894811851E+02  0.15523775480E+03  0.12508730825E+03 0.  0.
         23    2    1    2    0    0 -0.18139830826E+02  0.64649184224E+01 -0.12013769266E+03  0.15175755737E+03  0.90699737528E+02 0.  0.
          5    1    3    3  502    0  0.44724053149E+02 -0.20165311384E+02 -0.10547044286E+02  0.50354674623E+02  0.41800000000E+01 0. -1.
         -5    1    3    3    0  502 -0.26584222323E+02  0.13700392961E+02  0.10044185614E+03  0.10488308018E+03  0.41800000000E+01 0. -1.
        -11    1    4    4    0    0 -0.41785635184E+02  0.18760122300E+02 -0.11609158802E+03  0.12480079449E+03  0.00000000000E+00 0.  1.
         11    1    4    4    0    0  0.23645804358E+02 -0.12295203878E+02 -0.40461046434E+01  0.26956762879E+02  0.00000000000E+00 0. -1.
</event>
<event>
 8    1  0.7232317E-009  0.9007395E+02  0.7561462E-02  0.1302673E+00
         -1   -1    0    0    0  501 -0.00000000000E+00  0.00000000000E+00  0.44945527693E+02  0.44945527693E+02  0.00000000000E+00 0.  1.
          1   -1    0    0  501    0  0.00000000000E+00 -0.00000000000E+00 -0.47718599146E+03  0.47718599146E+03  0.00000000000E+00 0. -1.
         25    2    1    2    0    0 -0.10325623009E+02  0.85204974990E+02 -0.31894968418E+03  0.35319246813E+03  0.12509801058E+03 0.  0.
         23    2    1    2    0    0  0.10325623009E+02 -0.85204974990E+02 -0.11329077959E+03  0.16893905103E+03  0.91318650713E+02 0.  0.
          5    1    3    3  502    0  0.13633619703E+02  0.18803311548E+02 -0.26016782235E+03  0.26123592459E+03  0.41800000000E+01 0. -1.
         -5    1    3    3    0  502 -0.23959242712E+02  0.66401663442E+02 -0.58781861829E+02  0.91956543537E+02  0.41800000000E+01 0. -1.
        -11    1    4    4    0    0  0.46724177402E+01 -0.42384449816E+02 -0.11802172081E+03  0.12548864354E+03  0.00000000000E+00 0. -1.
         11    1    4    4    0    0  0.56532052686E+01 -0.42820525174E+02  0.47309412219E+01  0.43450407488E+02  0.00000000000E+00 0.  1.
</event>
<event>
 8    1  0.7232317E-009  0.1210193E+03  0.7561462E-02  0.1241425E+00
          3   -1    0    0  501    0  0.00000000000E+00  0.00000000000E+00  0.10655247884E+04  0.10655247884E+04  0.00000000000E+00 0. -1.
         -3   -1    0    0    0  501 -0.00000000000E+00 -0.00000000000E+00 -0.14608055117E+02  0.14608055117E+02  0.00000000000E+00 0.  1.
         25    2    1    2    0    0 -0.41331416317E+02  0.45645132099E+02  0.56208778076E+03  0.57912280652E+03  0.12509511458E+03 0.  0.
         23    2    1    2    0    0  0.41331416317E+02 -0.45645132099E+02  0.48882895252E+03  0.50101003699E+03  0.90915060845E+02 0.  0.
          5    1    3    3  502    0  0.35400843817E+02 -0.10534948469E+02  0.87260663971E+02  0.94847776774E+02  0.41800000000E+01 0. -1.
         -5    1    3    3    0  502 -0.76732260135E+02  0.56180080568E+02  0.47482711679E+03  0.48427502975E+03  0.41800000000E+01 0. -1.
        -11    1    4    4    0    0  0.66398227478E+02 -0.11609426346E+02  0.31215994978E+03  0.31935456414E+03  0.00000000000E+00 0.  1.
         11    1    4    4    0    0 -0.25066811160E+02 -0.34035705752E+02  0.17666900274E+03  0.18165547285E+03  0.00000000000E+00 0. -1.
</event>
<event>
 8    1  0.7232317E-009  0.9450155E+02  0.7561462E-02  0.1292303E+00
          2   -1    0    0  501    0  0.00000000000E+00  0.00000000000E+00  0.12540458994E+04  0.12540458994E+04  0.00000000000E+00 0. -1.
         -2   -1    0    0    0  501 -0.00000000000E+00 -0.00000000000E+00 -0.16970026291E+02  0.16970026291E+02  0.00000000000E+00 0.  1.
         25    2    1    2    0    0 -0.74485190362E+02  0.25112147524E+02  0.96190751698E+03  0.97318688695E+03  0.12509189486E+03 0.  0.
         23    2    1    2    0    0  0.74485190362E+02 -0.25112147524E+02  0.27516835612E+03  0.29782903874E+03  0.82497567055E+02 0.  0.
          5    1    3    3  502    0 -0.83081409892E+02  0.27024444075E+01  0.92636180752E+03  0.93009327204E+03  0.41800000000E+01 0. -1.
         -5    1    3    3    0  502  0.85962195301E+01  0.22409703116E+02  0.35545709467E+02  0.43093614904E+02  0.41800000000E+01 0. -1.
        -11    1    4    4    0    0  0.65124119791E+02 -0.28979815204E+02  0.27825543378E+03  0.28724043430E+03  0.00000000000E+00 0. -1.
         11    1    4    4    0    0  0.93610705708E+01  0.38676676800E+01 -0.30870776603E+01  0.10588604440E+02  0.00000000000E+00 0.  1.
</event>
<event>
 8    1  0.7232317E-009  0.9501134E+02  0.7561462E-02  0.1291151E+00
         -2   -1    0    0    0  501 -0.00000000000E+00  0.00000000000E+00  0.14622573024E+02  0.14622573024E+02  0.00000000000E+00 0.  1.
          2   -1    0    0  501    0  0.00000000000E+00 -0.00000000000E+00 -0.15715816535E+04  0.15715816535E+04  0.00000000000E+00 0. -1.
         25    2    1    2    0    0 -0.77065329080E+02  0.18484410024E+02 -0.12236094130E+04  0.12325376972E+04  0.12509372892E+03 0.  0.
         23    2    1    2    0    0  0.77065329080E+02 -0.18484410024E+02 -0.33334966751E+03  0.35366652938E+03  0.87620059440E+02 0.  0.
          5    1    3    3  502    0  0.20957464439E+01  0.78528343358E+01 -0.86786577507E+03  0.86791389843E+03  0.41800000000E+01 0.  1.
         -5    1    3    3    0  502 -0.79161075524E+02  0.10631575689E+02 -0.35574363794E+03  0.36462379875E+03  0.41800000000E+01 0.  1.
        -11    1    4    4    0    0  0.34811965923E+02 -0.40378475948E+02 -0.26544836389E+03  0.27074919794E+03  0.00000000000E+00 0. -1.
         11    1    4    4    0    0  0.42253363157E+02  0.21894065924E+02 -0.67901303617E+02  0.82917331443E+02  0.00000000000E+00 0.  1.
</event>
<event>
 8    1  0.7232317E-009  0.1106875E+03  0.7561462E-02  0.1259302E+00
          2   -1    0    0  501    0  0.00000000000E+00  0.00000000000E+00  0.40979578474E+03  0.40979578474E+03  0.00000000000E+00 0. -1.
         -2   -1    0    0    0  501 -0.00000000000E+00 -0.00000000000E+00 -0.51266335889E+02  0.51266335889E+02  0.00000000000E+00 0.  1.
         25    2    1    2    0    0  0.45706830567E+02 -0.62099752061E+02  0.10385499006E+03  0.17993541383E+03  0.12508157588E+03 0.  0.
         23    2    1    2    0    0 -0.45706830567E+02  0.62099752061E+02  0.25467445879E+03  0.28112670679E+03  0.90706404111E+02 0.  0.
          5    1    3    3  502    0 -0.14419472482E+02 -0.32722043880E+02 -0.18452292413E+02  0.40455071841E+02  0.41800000000E+01 0. -1.
         -5    1    3    3    0  502  0.60126303049E+02 -0.29377708181E+02  0.12230728247E+03  0.13948034199E+03  0.41800000000E+01 0. -1.
        -11    1    4    4    0    0  0.26757482166E+02  0.26220542931E+02  0.95652599630E+02  0.10272730669E+03  0.00000000000E+00 0.  1.
         11    1    4    4    0    0 -0.72464312733E+02  0.35879209130E+02  0.15902185916E+03  0.17839940010E+03  0.00000000000E+00 0. -1.
</event>
<event>
 8    1  0.7232317E-009  0.7815743E+02  0.7561462E-02  0.1334363E+00
         -1   -1    0    0    0  501 -0.00000000000E+00  0.00000000000E+00  0.47521958247E+02  0.47521958247E+02  0.00000000000E+00 0.  1.
          1   -1    0    0  501    0  0.00000000000E+00 -0.00000000000E+00 -0.24627710865E+03  0.24627710865E+03  0.00000000000E+00 0. -1.
         25    2    1    2    0    0 -0.46557124384E+01  0.57162997419E+01 -0.11014685828E+03  0.16683647452E+03  0.12509087536E+03 0.  0.
         23    2    1    2    0    0  0.46557124384E+01 -0.57162997419E+01 -0.88608292118E+02  0.12696259238E+03  0.90629568522E+02 0.  0.
          5    1    3    3  502    0  0.22778010968E+02  0.32752356988E+02  0.93736903253E+01  0.41193362842E+02  0.41800000000E+01 0.  1.
         -5    1    3    3    0  502 -0.27433723406E+02 -0.27036057246E+02 -0.11952054861E+03  0.12564311167E+03  0.41800000000E+01 0.  1.
        -11    1    4    4    0    0  0.16038438808E+02  0.33222158336E+02 -0.95559242605E+01  0.38108516271E+02  0.00000000000E+00 0.  1.
         11    1    4    4    0    0 -0.11382726370E+02 -0.38938458078E+02 -0.79052367858E+02  0.88854076108E+02  0.00000000000E+00 0. -1.
</event>
<event>
 7    1  0.7232317E-009  0.1046848E+03  0.7561462E-02  0.1270742E+00
          1   -1    0    0  501    0  0.00000000000E+00  0.00000000000E+00  0.17418044725E+03  0.17418044725E+03  0.00000000000E+00 0. -1.
         -1   -1    0    0    0  501 -0.00000000000E+00 -0.00000000000E+00 -0.86283413441E+02  0.86283413441E+02  0.00000000000E+00 0.  1.
         23    2    1    2    0    0 -0.92434116057E+01  0.33611985056E+02  0.86324174702E+02  0.13050058021E+03  0.91451255321E+02 0.  0.
          5    1    1    2  502    0  0.52962334083E+02  0.75546615398E+01 -0.30533993137E+02  0.61740415283E+02  0.41800000000E+01 0.  1.
         -5    1    1    2    0  502 -0.43718922477E+02 -0.41166646596E+02  0.32106852241E+02  0.68222865194E+02  0.41800000000E+01 0.  1.
        -11    1    3    3    0    0  0.34020470152E+02 -0.85753698218E+01  0.46004185807E+02  0.57855980406E+02  0.00000000000E+00 0.  1.
         11    1    3    3    0    0 -0.43263881758E+02  0.42187354878E+02  0.40319988895E+02  0.72644599805E+02  0.00000000000E+00 0. -1.
</event>
<event>
 8    1  0.7232317E-009  0.1020928E+03  0.7561462E-02  0.1275956E+00
          1   -1    0    0  501    0  0.00000000000E+00  0.00000000000E+00  0.25930789770E+03  0.25930789770E+03  0.00000000000E+00 0. -1.
         -1   -1    0    0    0  501 -0.00000000000E+00 -0.00000000000E+00 -0.52931443745E+02  0.52931443745E+02  0.00000000000E+00 0.  1.
         25    2    1    2    0    0 -0.42727152525E+02  0.18825209624E+01  0.13266334879E+03  0.18728487727E+03  0.12508760007E+03 0.  0.
         23    2    1    2    0    0  0.42727152525E+02 -0.18825209624E+01  0.73713105160E+02  0.12495446418E+03  0.91382945878E+02 0.  0.
          5    1    3    3  502    0 -0.83699007154E+02  0.10145653154E+02  0.11261321135E+03  0.14073970956E+03  0.41800000000E+01 0. -1.
         -5    1    3    3    0  502  0.40971854629E+02 -0.82631321913E+01  0.20050137441E+02  0.46545167706E+02  0.41800000000E+01 0. -1.
        -11    1    4    4    0    0  0.58822765961E+02 -0.10115266835E+02  0.12306287483E+02  0.60941620671E+02  0.00000000000E+00 0.  1.
         11    1    4    4    0    0 -0.16095613436E+02  0.82327458728E+01  0.61406817677E+02  0.64012843506E+02  0.00000000000E+00 0. -1.
</event>
<event>
 8    1  0.7232317E-009  0.1110567E+03  0.7561462E-02  0.1258626E+00
         -1   -1    0    0    0  501 -0.00000000000E+00  0.00000000000E+00  0.44456978205E+02  0.44456978205E+02  0.00000000000E+00 0.  1.
          1   -1    0    0  501    0  0.00000000000E+00 -0.00000000000E+00 -0.34917233036E+03  0.34917233036E+03  0.00000000000E+00 0. -1.
         25    2    1    2    0    0  0.30726818864E+02 -0.46102547359E+02 -0.13538362131E+03  0.19247315492E+03  0.12509040001E+03 0.  0.
         23    2    1    2    0    0 -0.30726818864E+02  0.46102547359E+02 -0.16933173085E+03  0.20115615365E+03  0.93386191750E+02 0.  0.
          5    1    3    3  502    0  0.38543703183E+02 -0.83376677045E+02 -0.65899872504E+02  0.11312626983E+03  0.41800000000E+01 0. -1.
         -5    1    3    3    0  502 -0.78168843187E+01  0.37274129686E+02 -0.69483748807E+02  0.79346885084E+02  0.41800000000E+01 0. -1.
        -11    1    4    4    0    0  0.22989091330E+02  0.34226295619E+01 -0.10348394817E+03  0.10606196416E+03  0.00000000000E+00 0. -1.
         11    1    4    4    0    0 -0.53715910194E+02  0.42679917797E+02 -0.65847782681E+02  0.95094189492E+02  0.00000000000E+00 0.  1.
</event>
<event>
 8    1  0.7232317E-009  0.1385163E+03  0.7561462E-02  0.1215339E+00
         -1   -1    0    0    0  501 -0.00000000000E+00  0.00000000000E+00  0.41741260954E+03  0.41741260954E+03  0.00000000000E+00 0.  1.
          1   -1    0    0  501    0  0.00000000000E+00 -0.00000000000E+00 -0.10582968660E+03  0.10582968660E+03  0.00000000000E+00 0. -1.
         25    2    1    2    0    0  0.91627134724E+02 -0.32197132527E+02  0.35000821346E+03  0.38416828838E+03  0.12508931668E+03 0.  0.
         23    2    1    2    0    0 -0.91627134724E+02  0.32197132527E+02 -0.38425290524E+02  0.13907400776E+03  0.91830765662E+02 0.  0.
          5    1    3    3  502    0 -0.27282740519E+02  0.13722005144E+01  0.28445343733E+02  0.39659057535E+02  0.41800000000E+01 0. -1.
         -5    1    3    3    0  502  0.11890987524E+03 -0.33569333042E+02  0.32156286973E+03  0.34450923085E+03  0.41800000000E+01 0. -1.
        -11    1    4    4    0    0 -0.88070264119E+02  0.54245512075E+02 -0.48892900855E+02  0.11440919000E+03  0.00000000000E+00 0. -1.
         11    1    4    4    0    0 -0.35568706052E+01 -0.22048379548E+02  0.10467610331E+02  0.24664817762E+02  0.00000000000E+00 0.  1.
</event>
<event>
 8    1  0.7232317E-009  0.9979262E+02  0.7561462E-02  0.1280733E+00
         -1   -1    0    0    0  501 -0.00000000000E+00  0.00000000000E+00  0.42798457172E+02  0.42798457172E+02  0.00000000000E+00 0.  1.
          1   -1    0    0  501    0  0.00000000000E+00 -0.00000000000E+00 -0.35320899542E+03  0.35320899542E+03  0.00000000000E+00 0. -1.
         25    2    1    2    0    0 -0.28933783805E+02 -0.98477662595E+01 -0.10101113903E+03  0.16366160828E+03  0.12509088485E+03 0.  0.
         23    2    1    2    0    0  0.28933783805E+02  0.98477662595E+01 -0.20939939922E+03  0.23234584431E+03  0.95928831063E+02 0.  0.
          5    1    3    3  502    0 -0.66989384662E+02  0.15528773353E+02 -0.22089510094E+02  0.72347351821E+02  0.41800000000E+01 0. -1.
         -5    1    3    3    0  502  0.38055600858E+02 -0.25376539613E+02 -0.78921628932E+02  0.91314256459E+02  0.41800000000E+01 0. -1.
        -11    1    4    4    0    0  0.71620003143E+01  0.43825492405E+02 -0.17088940235E+03  0.17656487723E+03  0.00000000000E+00 0. -1.
         11    1    4    4    0    0  0.21771783490E+02 -0.33977726146E+02 -0.38509996871E+02  0.55780967089E+02  0.00000000000E+00 0.  1.
</event>
<event>
 8    1  0.7232317E-009  0.1068712E+03  0.7561462E-02  0.1266476E+00
         -1   -1    0    0    0  501 -0.00000000000E+00  0.00000000000E+00  0.10252152906E+03  0.10252152906E+03  0.00000000000E+00 0.  1.
          1   -1    0    0  501    0  0.00000000000E+00 -0.00000000000E+00 -0.18649984399E+03  0.18649984399E+03  0.00000000000E+00 0. -1.
         25    2    1    2    0    0 -0.72577805911E+02 -0.25282012300E+00 -0.31557419580E+01  0.14465257195E+03  0.12508719373E+03 0.  0.
         23    2    1    2    0    0  0.72577805911E+02  0.25282012300E+00 -0.80822572970E+02  0.14436880110E+03  0.95091853497E+02 0.  0.
          5    1    3    3  502    0 -0.90248929994E+02  0.35460652581E+02  0.18958236341E+02  0.98889910364E+02  0.41800000000E+01 0. -1.
         -5    1    3    3    0  502  0.17671124083E+02 -0.35713472704E+02 -0.22113978299E+02  0.45762661583E+02  0.41800000000E+01 0. -1.
        -11    1    4    4    0    0  0.32150052168E+02 -0.12095800399E+02 -0.94009069074E+02  0.10008815769E+03  0.00000000000E+00 0. -1.
         11    1    4    4    0    0  0.40427753743E+02  0.12348620522E+02  0.13186496104E+02  0.44280643412E+02  0.00000000000E+00 0.  1.
</event>
<event>
 8    1  0.7232317E-009  0.1126681E+03  0.7561462E-02  0.1255707E+00
         -2   -1    0    0    0  501 -0.00000000000E+00  0.00000000000E+00  0.77971702812E+02  0.77971702812E+02  0.00000000000E+00 0.  1.
          2   -1    0    0  501    0  0.00000000000E+00 -0.00000000000E+00 -0.29850106801E+03  0.29850106801E+03  0.00000000000E+00 0. -1.
         25    2    1    2    0    0  0.82810007578E+02 -0.52512506107E+02 -0.17394271862E+03  0.23562375130E+03  0.12508965650E+03 0.  0.
         23    2    1    2    0    0 -0.82810007578E+02  0.52512506107E+02 -0.46586646584E+02  0.14084901953E+03  0.89738899088E+02 0.  0.
          5    1    3    3  502    0  0.56617854576E+02 -0.10617215178E+02 -0.32199906093E+01  0.57845894016E+02  0.41800000000E+01 0.  1.
         -5    1    3    3    0  502  0.26192153002E+02 -0.41895290929E+02 -0.17072272801E+03  0.17777785728E+03  0.41800000000E+01 0.  1.
        -11    1    4    4    0    0 -0.79418050226E+02  0.15611440521E+02  0.48746784404E+00  0.80939368676E+02  0.00000000000E+00 0.  1.
         11    1    4    4    0    0 -0.33919573522E+01  0.36901065587E+02 -0.47074114428E+02  0.59909650853E+02  0.00000000000E+00 0. -1.
</event>
<event>
 8    1  0.7232317E-009  0.1507454E+03  0.7561462E-02  0.1199560E+00
         -1   -1    0    0    0  501 -0.00000000000E+00  0.00000000000E+00  0.28111487402E+03  0.28111487402E+03  0.00000000000E+00 0.  1.
          1   -1    0    0  501    0  0.00000000000E+00 -0.00000000000E+00 -0.12887103321E+03  0.12887103321E+03  0.00000000000E+00 0. -1.
         25    2    1    2    0    0  0.13457573443E+03 -0.50834616211E+02  0.14374867797E+03  0.23875923431E+03  0.12508997980E+03 0.  0.
         23    2    1    2    0    0 -0.13457573443E+03  0.50834616211E+02  0.84951628363E+01  0.17122667292E+03  0.92474965395E+02 0.  0.
          5    1    3    3  502    0  0.11958687207E+03 -0.19791799862E+02  0.15970916481E+03  0.20054232729E+03  0.41800000000E+01 0. -1.
         -5    1    3    3    0  502  0.14988862362E+02 -0.31042816349E+02 -0.15960486835E+02  0.38216907015E+02  0.41800000000E+01 0. -1.
        -11    1    4    4    0    0 -0.35402977069E+02  0.34550068136E+01 -0.37853714442E+02  0.51944312052E+02  0.00000000000E+00 0. -1.
         11    1    4    4    0    0 -0.99172757361E+02  0.47379609398E+02  0.46348877279E+02  0.11928236087E+03  0.00000000000E+00 0.  1.
</event>
<event>
 8    1  0.7232317E-009  0.8285491E+02  0.7561462E-02  0.1321139E+00
          1   -1    0    0  501    0  0.00000000000E+00  0.00000000000E+00  0.46984673482E+02  0.46984673482E+02  0.00000000000E+00 0. -1.
         -1   -1    0    0    0  501 -0.00000000000E+00 -0.00000000000E+00 -0.29975038628E+03  0.29975038628E+03  0.00000000000E+00 0.  1.
         25    2    1    2    0    0 -0.29101452288E+02  0.92678795196E+00 -0.91328135379E+02  0.15759580389E+03  0.12509138911E+03 0.  0.
         23    2    1    2    0    0  0.29101452288E+02 -0.92678795196E+00 -0.16143757742E+03  0.18913925588E+03  0.94147826579E+02 0.  0.
          5    1    3    3  502    0  0.20001620640E+02 -0.33231015036E+01 -0.10440105852E+03  0.10643383509E+03  0.41800000000E+01 0. -1.
         -5    1    3    3    0  502 -0.49103072927E+02  0.42498894555E+01  0.13072923144E+02  0.51161968793E+02  0.41800000000E+01 0. -1.
        -11    1    4    4    0    0 -0.27496810040E+02 -0.21933480790E+02 -0.38310013851E+02  0.52007781179E+02  0.00000000000E+00 0. -1.
         11    1    4    4    0    0  0.56598262327E+02  0.21006692838E+02 -0.12312756357E+03  0.13713147470E+03  0.00000000000E+00 0.  1.
</event>
<event>
 8    1  0.7232317E-009  0.1208218E+03  0.7561462E-02  0.1241747E+00
         -2   -1    0    0    0  501 -0.00000000000E+00  0.00000000000E+00  0.25162555461E+03  0.25162555461E+03  0.00000000000E+00 0.  1.
          2   -1    0    0  501    0  0.00000000000E+00 -0.00000000000E+00 -0.69381219609E+02  0.69381219609E+02  0.00000000000E+00 0. -1.
         25    2    1    2    0    0 -0.12137912246E+02  0.55597398615E+02  0.15854078439E+03  0.20981364203E+03  0.12509270330E+03 0.  0.
         23    2    1    2    0    0  0.12137912246E+02 -0.55597398615E+02  0.23703550609E+02  0.11119313219E+03  0.92540016690E+02 0.  0.
          5    1    3    3  502    0  0.18858773976E+02 -0.35469465126E+02  0.37191488578E+02  0.54903693271E+02  0.41800000000E+01 0.  1.
         -5    1    3    3    0  502 -0.30996686222E+02  0.91066863741E+02  0.12134929581E+03  0.15490994875E+03  0.41800000000E+01 0.  1.
        -11    1    4    4    0    0 -0.34744287465E+02 -0.45087315474E+02 -0.14937756089E+01  0.56940871909E+02  0.00000000000E+00 0.  1.
         11    1    4    4    0    0  0.46882199712E+02 -0.10510083141E+02  0.25197326217E+02  0.54252260284E+02  0.00000000000E+00 0. -1.
</event>
<event>
 8    1  0.7232317E-009  0.1188750E+03  0.7561462E-02  0.1244964E+00
          1   -1    0    0  501    0  0.00000000000E+00  0.00000000000E+00  0.44010104772E+02  0.44010104772E+02  0.00000000000E+00 0. -1.
         -1   -1    0    0    0  501 -0.00000000000E+00 -0.00000000000E+00 -0.47164080890E+03  0.47164080890E+03  0.00000000000E+00 0.  1.
         25    2    1    2    0    0  0.40824705949E+02  0.31202378263E+02 -0.37450390179E+03  0.39817230435E+03  0.12509103274E+03 0.  0.
         23    2    1    2    0    0 -0.40824705949E+02 -0.31202378263E+02 -0.53126802331E+02  0.11747860931E+03  0.91315505230E+02 0.  0.
          5    1    3    3  502    0  0.80013941349E+02 -0.38700944153E+01 -0.26012236816E+03  0.27221007927E+03  0.41800000000E+01 0.  1.
         -5    1    3    3    0  502 -0.39189235400E+02  0.35072472678E+02 -0.11438153364E+03  0.12596222508E+03  0.41800000000E+01 0.  1.
        -11    1    4    4    0    0 -0.62994090319E+02 -0.46104882381E+02 -0.39168022731E+02  0.87338706191E+02  0.00000000000E+00 0. -1.
         11    1    4    4    0    0  0.22169384370E+02  0.14902504119E+02 -0.13958779599E+02  0.30139903123E+02  0.00000000000E+00 0.  1.
</event>
<event>
 8    1  0.7232317E-009  0.2299913E+03  0.7561462E-02  0.1126646E+00
         -2   -1    0    0    0  501 -0.00000000000E+00  0.00000000000E+00  0.20190646450E+03  0.20190646450E+03  0.00000000000E+00 0.  1.
          2   -1    0    0  501    0  0.00000000000E+00 -0.00000000000E+00 -0.35794381082E+03  0.35794381082E+03  0.00000000000E+00 0. -1.
         25    2    1    2    0    0 -0.21071010496E+03 -0.69515208534E+02  0.24465137546E+02  0.25588873937E+03  0.12509752767E+03 0.  0.
         23    2    1    2    0    0  0.21071010496E+03  0.69515208534E+02 -0.18050248387E+03  0.30396153596E+03  0.10286085799E+03 0.  0.
          5    1    3    3  502    0 -0.60760498594E+02 -0.82807928000E+01  0.64390956663E+02  0.89017287191E+02  0.41800000000E+01 0.  1.
         -5    1    3    3    0  502 -0.14994960637E+03 -0.61234415734E+02 -0.39925819116E+02  0.16687145218E+03  0.41800000000E+01 0.  1.
        -11    1    4    4    0    0  0.54717209954E+02  0.58516149516E+02 -0.99825182763E+02  0.12799679657E+03  0.00000000000E+00 0.  1.
         11    1    4    4    0    0  0.15599289501E+03  0.10999059018E+02 -0.80677301107E+02  0.17596473938E+03  0.00000000000E+00 0. -1.
</event>
<event>
 8    1  0.7232317E-009  0.1029751E+03  0.7561462E-02  0.1274161E+00
         -2   -1    0    0    0  501 -0.00000000000E+00  0.00000000000E+00  0.16650505205E+02  0.16650505205E+02  0.00000000000E+00 0.  1.
          2   -1    0    0  501    0  0.00000000000E+00 -0.00000000000E+00 -0.80966577105E+03  0.80966577105E+03  0.00000000000E+00 0. -1.
         25    2    1    2    0    0 -0.33197897493E+01  0.23016589286E+02 -0.57855257321E+03  0.59237776188E+03  0.12509016114E+03 0.  0.
         23    2    1    2    0    0  0.33197897493E+01 -0.23016589286E+02 -0.21446269264E+03  0.23393851438E+03  0.90510759524E+02 0.  0.
          5    1    3    3  502    0 -0.36681300129E+02  0.61843188982E+02 -0.26350880275E+03  0.27317477798E+03  0.41800000000E+01 0. -1.
         -5    1    3    3    0  502  0.33361510380E+02 -0.38826599696E+02 -0.31504377046E+03  0.31920298389E+03  0.41800000000E+01 0. -1.
        -11    1    4    4    0    0 -0.37917215193E+02 -0.86034892283E+01 -0.47645226108E+02  0.61496364167E+02  0.00000000000E+00 0.  1.
         11    1    4    4    0    0  0.41237004942E+02 -0.14413100057E+02 -0.16681746653E+03  0.17244215021E+03  0.00000000000E+00 0. -1.
</event>
<event>
 8    1  0.7232317E-009  0.1498247E+03  0.7561462E-02  0.1200689E+00
          1   -1    0    0  501    0  0.00000000000E+00  0.00000000000E+00  0.24797549012E+02  0.24797549012E+02  0.00000000000E+00 0. -1.
         -1   -1    0    0    0  501 -0.00000000000E+00 -0.00000000000E+00 -0.94160247424E+03  0.94160247424E+03  0.00000000000E+00 0.  1.
         25    2    1    2    0    0  0.39516509664E+02 -0.94426768862E+02 -0.40078639445E+03  0.43215691423E+03  0.12510753506E+03 0.  0.
         23    2    1    2    0    0 -0.39516509664E+02  0.94426768862E+02 -0.51601853078E+03  0.53424310902E+03  0.93073122951E+02 0.  0.
          5    1    3    3  502    0 -0.44956346532E+02 -0.44450212559E+02 -0.15192622190E+03  0.16460845601E+03  0.41800000000E+01 0. -1.
         -5    1    3    3    0  502  0.84472856196E+02 -0.49976556303E+02 -0.24886017255E+03  0.26754845822E+03  0.41800000000E+01 0. -1.
        -11    1    4    4    0    0 -0.64892351076E+02  0.35670233585E+02 -0.25924390934E+03  0.26961229075E+03  0.00000000000E+00 0.  1.
         11    1    4    4    0    0  0.25375841413E+02  0.58756535277E+02 -0.25677462144E+03  0.26463081827E+03  0.00000000000E+00 0. -1.
</event>
<event>
 8    1  0.7232317E-009  0.1252393E+03  0.7561462E-02  0.1234696E+00
         -3   -1    0    0    0  501 -0.00000000000E+00  0.00000000000E+00  0.11704791861E+03  0.11704791861E+03  0.00000000000E+00 0.  1.
          3   -1    0    0  501    0  0.00000000000E+00 -0.00000000000E+00 -0.18019818835E+03  0.18019818835E+03  0.00000000000E+00 0. -1.
         25    2    1    2    0    0 -0.88581671315E+02  0.46549409865E+01  0.38674369080E+01  0.15340139214E+03  0.12509456053E+03 0.  0.
         23    2    1    2    0    0  0.88581671315E+02 -0.46549409865E+01 -0.67017706652E+02  0.14384471482E+03  0.91277313765E+02 0.  0.
          5    1    3    3  502    0  0.16150393680E+02 -0.77501006950E+01  0.38210456390E+02  0.42407672116E+02  0.41800000000E+01 0.  1.
         -5    1    3    3    0  502 -0.10473206499E+03  0.12405041682E+02 -0.34343019482E+02  0.11099372002E+03  0.41800000000E+01 0.  1.
        -11    1    4    4    0    0 -0.16931955790E+02 -0.12022570627E+02 -0.54874563669E+01  0.21478955019E+02  0.00000000000E+00 0.  1.
         11    1    4    4    0    0  0.10551362710E+03  0.73676296402E+01 -0.61530250285E+02  0.12236575980E+03  0.00000000000E+00 0. -1.
</event>
<event>
 8    1  0.7232317E-009  0.3348656E+03  0.7561462E-02  0.1069004E+00
         -1   -1    0    0    0  501 -0.00000000000E+00  0.00000000000E+00  0.13039354705E+03  0.13039354705E+03  0.00000000000E+00 0.  1.
          1   -1    0    0  501    0  0.00000000000E+00 -0.00000000000E+00 -0.96760450378E+03  0.96760450378E+03  0.00000000000E+00 0. -1.
         25    2    1    2    0    0  0.29581234127E+03 -0.12321161457E+03 -0.59193430944E+03  0.68462899249E+03  0.12507832530E+03 0.  0.
         23    2    1    2    0    0 -0.29581234127E+03  0.12321161457E+03 -0.24527664729E+03  0.41336905833E+03  0.89595208965E+02 0.  0.
          5    1    3    3  502    0  0.69830587677E+02  0.23011949222E+02 -0.10524300632E+03  0.12845008198E+03  0.41800000000E+01 0.  1.
         -5    1    3    3    0  502  0.22598175359E+03 -0.14622356379E+03 -0.48669130312E+03  0.55617891051E+03  0.41800000000E+01 0.  1.
        -11    1    4    4    0    0 -0.10481258454E+03  0.11047869901E+02 -0.44452729879E+02  0.11438434553E+03  0.00000000000E+00 0. -1.
         11    1    4    4    0    0 -0.19099975672E+03  0.11216374467E+03 -0.20082391741E+03  0.29898471281E+03  0.00000000000E+00 0.  1.
</event>
<event>
 8    1  0.7232317E-009  0.2501473E+03  0.7561462E-02  0.1113212E+00
          2   -1    0    0  501    0  0.00000000000E+00  0.00000000000E+00  0.60915358032E+03  0.60915358032E+03  0.00000000000E+00 0. -1.
         -2   -1    0    0    0  501 -0.00000000000E+00 -0.00000000000E+00 -0.12394378935E+03  0.12394378935E+03  0.00000000000E+00 0.  1.
         25    2    1    2    0    0  0.94814409295E+02 -0.21923541025E+03  0.35678683990E+03  0.44721196009E+03  0.12509097012E+03 0.  0.
         23    2    1    2    0    0 -0.94814409295E+02  0.21923541025E+03  0.12842295106E+03  0.28588540958E+03  0.90465881612E+02 0.  0.
          5    1    3    3  502    0 -0.11530182865E+02 -0.10278658947E+03  0.89498094357E+02  0.13684081769E+03  0.41800000000E+01 0.  1.
         -5    1    3    3    0  502  0.10634459216E+03 -0.11644882078E+03  0.26728874554E+03  0.31037114240E+03  0.41800000000E+01 0.  1.
        -11    1    4    4    0    0 -0.50974202744E+02  0.12884524960E+03  0.23352142100E+02  0.14051615648E+03  0.00000000000E+00 0.  1.
         11    1    4    4    0    0 -0.43840206550E+02  0.90390160644E+02  0.10507080896E+03  0.14536925310E+03  0.00000000000E+00 0. -1.
</event>
<event>
 8    1  0.7232317E-009  0.1056105E+03  0.7561462E-02  0.1268921E+00
          2   -1    0    0  501    0  0.00000000000E+00  0.00000000000E+00  0.10285945113E+04  0.10285945113E+04  0.00000000000E+00 0. -1.
         -2   -1    0    0    0  501 -0.00000000000E+00 -0.00000000000E+00 -0.22770204675E+02  0.22770204675E+02  0.00000000000E+00 0.  1.
         25    2    1    2    0    0  0.73481353347E+02  0.28158696457E+02  0.80184043739E+03  0.81534312194E+03  0.12507556913E+03 0.  0.
         23    2    1    2    0    0 -0.73481353347E+02 -0.28158696457E+02  0.20398386928E+03  0.23602159407E+03  0.88906425344E+02 0.  0.
          5    1    3    3  502    0  0.32204181897E+02  0.39468024706E+02  0.72875689489E+03  0.73054699955E+03  0.41800000000E+01 0.  1.
         -5    1    3    3    0  502  0.41277171450E+02 -0.11309328249E+02  0.73083542500E+02  0.84796122392E+02  0.41800000000E+01 0.  1.
        -11    1    4    4    0    0  0.18775789151E+02  0.43819879702E+01  0.20862935497E+02  0.28407642535E+02  0.00000000000E+00 0.  1.
         11    1    4    4    0    0 -0.92257142497E+02 -0.32540684427E+02  0.18312093378E+03  0.20761395154E+03  0.00000000000E+00 0. -1.
</event>
<event>
 8    1  0.7232317E-009  0.1028491E+03  0.7561462E-02  0.1274416E+00
          2   -1    0    0  501    0  0.00000000000E+00  0.00000000000E+00  0.43558224941E+02  0.43558224941E+02  0.00000000000E+00 0. -1.
         -2   -1    0    0    0  501 -0.00000000000E+00 -0.00000000000E+00 -0.33033607215E+03  0.33033607215E+03  0.00000000000E+00 0.  1.
         25    2    1    2    0    0  0.12261645906E+02  0.48633363957E+02 -0.16412339047E+03  0.21236599030E+03  0.12508906621E+03 0.  0.
         23    2    1    2    0    0 -0.12261645906E+02 -0.48633363957E+02 -0.12265445674E+03  0.16152830679E+03  0.92367343183E+02 0.  0.
          5    1    3    3  502    0  0.96422273654E+01  0.81023858740E+02 -0.55150665266E+02  0.98574370467E+02  0.41800000000E+01 0. -1.
         -5    1    3    3    0  502  0.26194185411E+01 -0.32390494783E+02 -0.10897272520E+03  0.11379161983E+03  0.41800000000E+01 0. -1.
        -11    1    4    4    0    0  0.15137829740E+02  0.15392719504E+02 -0.72658613156E+02  0.75798177872E+02  0.00000000000E+00 0.  1.
         11    1    4    4    0    0 -0.27399475646E+02 -0.64026083460E+02 -0.49995843585E+02  0.85730128920E+02  0.00000000000E+00 0. -1.
</event>
<event>
 8    1  0.7232317E-009  0.1356713E+03  0.7561462E-02  0.1219275E+00
          1   -1    0    0  501    0  0.00000000000E+00  0.00000000000E+00  0.96151210390E+03  0.96151210390E+03  0.00000000000E+00 0. -1.
         -1   -1    0    0    0  501 -0.00000000000E+00 -0.00000000000E+00 -0.20978364270E+02  0.20978364270E+02  0.00000000000E+00 0.  1.
         25    2    1    2    0    0  0.49388307729E+02  0.72502689381E+02  0.61891976543E+03  0.63749896503E+03  0.12508960578E+03 0.  0.
         23    2    1    2    0    0 -0.49388307729E+02 -0.72502689381E+02  0.32161397421E+03  0.34499150314E+03  0.88812971614E+02 0.  0.
          5    1    3    3  502    0  0.39551682339E+02  0.10811708622E+03  0.44721871489E+03  0.46181781176E+03  0.41800000000E+01 0.  1.
         -5    1    3    3    0  502  0.98366253896E+01 -0.35614396835E+02  0.17170105054E+03  0.17568115327E+03  0.41800000000E+01 0.  1.
        -11    1    4    4    0    0 -0.24655542953E+02 -0.86907290302E+02  0.19110535904E+03  0.21138124600E+03  0.00000000000E+00 0.  1.
         11    1    4    4    0    0 -0.24732764776E+02  0.14404600921E+02  0.13050861516E+03  0.13361025714E+03  0.00000000000E+00 0. -1.
</event>
<event>
 8    1  0.7232317E-009  0.1018814E+03  0.7561462E-02  0.1276389E+00
         -2   -1    0    0    0  501 -0.00000000000E+00  0.00000000000E+00  0.89782397225E+02  0.89782397225E+02  0.00000000000E+00 0.  1.
          2   -1    0    0  501    0  0.00000000000E+00 -0.00000000000E+00 -0.14655775019E+03  0.14655775019E+03  0.00000000000E+00 0. -1.
         25    2    1    2    0    0 -0.22082745702E+02 -0.31551755427E+02 -0.38400994930E+02  0.13640032471E+03  0.12508897330E+03 0.  0.
         23    2    1    2    0    0  0.22082745702E+02  0.31551755427E+02 -0.18374358035E+02  0.99939822700E+02  0.90372507987E+02 0.  0.
          5    1    3    3  502    0  0.31520288127E+02  0.31565714044E+02 -0.28009363303E+02  0.52838619393E+02  0.41800000000E+01 0.  1.
         -5    1    3    3    0  502 -0.53603033829E+02 -0.63117469471E+02 -0.10391631627E+02  0.83561705320E+02  0.41800000000E+01 0.  1.
        -11    1    4    4    0    0  0.23927393540E+02 -0.15790199861E+02  0.23221692033E+02  0.36893055635E+02  0.00000000000E+00 0. -1.
         11    1    4    4    0    0 -0.18446478376E+01  0.47341955288E+02 -0.41596050067E+02  0.63046767065E+02  0.00000000000E+00 0.  1.
</event>
<event>
 8    1  0.7232317E-009  0.1082648E+03  0.7561462E-02  0.1263817E+00
          1   -1    0    0  501    0  0.00000000000E+00  0.00000000000E+00  0.24049398200E+03  0.24049398200E+03  0.00000000000E+00 0. -1.
         -1   -1    0    0    0  501 -0.00000000000E+00 -0.00000000000E+00 -0.52455470036E+02  0.52455470036E+02  0.00000000000E+00 0.  1.
         25    2    1    2    0    0 -0.26666103225E+02 -0.10919650310E+01  0.74072891913E+02  0.14780468977E+03  0.12508860681E+03 0.  0.
         23    2    1    2    0    0  0.26666103225E+02  0.10919650310E+01  0.11396562005E+03  0.14514476227E+03  0.85828701559E+02 0.  0.
          5    1    3    3  502    0  0.34031091480E+02  0.41153096695E+02  0.26373609392E+02  0.59705378545E+02  0.41800000000E+01 0.  1.
         -5    1    3    3    0  502 -0.60697194704E+02 -0.42245061726E+02  0.47699282521E+02  0.88099311224E+02  0.41800000000E+01 0.  1.
        -11    1    4    4    0    0 -0.62905341846E+01 -0.37570101163E+02  0.38397518962E+02  0.54087454961E+02  0.00000000000E+00 0. -1.
         11    1    4    4    0    0  0.32956637409E+02  0.38662066194E+02  0.75568101089E+02  0.91057307307E+02  0.00000000000E+00 0.  1.
</event>
<event>
 8    1  0.7232317E-009  0.1158574E+03  0.7561462E-02  0.1250092E+00
         -1   -1    0    0    0  501 -0.00000000000E+00  0.00000000000E+00  0.12267185372E+03  0.12267185372E+03  0.00000000000E+00 0.  1.
          1   -1    0    0  501    0  0.00000000000E+00 -0.00000000000E+00 -0.15290586340E+03  0.15290586340E+03  0.00000000000E+00 0. -1.
         25    2    1    2    0    0  0.57002605803E+02  0.79048885973E+01 -0.63972386695E+02  0.15182930029E+03  0.12509150984E+03 0.  0.
         23    2    1    2    0    0 -0.57002605803E+02 -0.79048885973E+01  0.33738377022E+02  0.12374841683E+03  0.10422863451E+03 0.  0.
          5    1    3    3  502    0 -0.28729915611E+02  0.37028616504E+02 -0.21708331880E+02  0.51819403357E+02  0.41800000000E+01 0.  1.
         -5    1    3    3    0  502  0.85732521414E+02 -0.29123727907E+02 -0.42264054815E+02  0.10000989693E+03  0.41800000000E+01 0.  1.
        -11    1    4    4    0    0 -0.72013671726E+02 -0.20004516886E+02  0.56664773565E+02  0.93792569932E+02  0.00000000000E+00 0.  1.
         11    1    4    4    0    0  0.15011065923E+02  0.12099628289E+02 -0.22926396544E+02  0.29955846897E+02  0.00000000000E+00 0. -1.
</event>
<event>
 8    1  0.7232317E-009  0.1626311E+03  0.7561462E-02  0.1185758E+00
         -2   -1    0    0    0  501 -0.00000000000E+00  0.00000000000E+00  0.99305323010E+02  0.99305323010E+02  0.00000000000E+00 0.  1.
          2   -1    0    0  501    0  0.00000000000E+00 -0.00000000000E+00 -0.55478656813E+03  0.55478656813E+03  0.00000000000E+00 0. -1.
         25    2    1    2    0    0  0.11310521314E+03  0.11458161366E+03 -0.41776378883E+03  0.46486059655E+03  0.12508819106E+03 0.  0.
         23    2    1    2    0    0 -0.11310521314E+03 -0.11458161366E+03 -0.37717456286E+02  0.18923129458E+03  0.92000765811E+02 0.  0.
          5    1    3    3  502    0  0.13870741082E+01  0.32933668546E+01 -0.17661455527E+03  0.17670015216E+03  0.41800000000E+01 0. -1.
         -5    1    3    3    0  502  0.11171813904E+03  0.11128824681E+03 -0.24114923355E+03  0.28816044439E+03  0.41800000000E+01 0. -1.
        -11    1    4    4    0    0 -0.79264982829E+02 -0.67965742901E+02 -0.67551306683E+02  0.12436019759E+03  0.00000000000E+00 0.  1.
         11    1    4    4    0    0 -0.33840230315E+02 -0.46615870763E+02  0.29833850397E+02  0.64871096987E+02  0.00000000000E+00 0. -1.
</event>
<event>
 8    1  0.7232317E-009  0.1255105E+03  0.7561462E-02  0.1234274E+00
         -1   -1    0    0    0  501 -0.00000000000E+00  0.00000000000E+00  0.18808935572E+03  0.18808935572E+03  0.00000000000E+00 0.  1.
          1   -1    0    0  501    0  0.00000000000E+00 -0.00000000000E+00 -0.12329194795E+03  0.12329194795E+03  0.00000000000E+00 0. -1.
         25    2    1    2    0    0  0.10176385808E+03 -0.84449877338E+01  0.65010104313E+02  0.17407189094E+03  0.12509000329E+03 0.  0.
         23    2    1    2    0    0 -0.10176385808E+03  0.84449877338E+01 -0.21269654452E+00  0.13730941274E+03  0.91796671814E+02 0.  0.
          5    1    3    3  502    0  0.89575792806E+00 -0.29671779060E+02  0.64258213390E+02  0.70907032394E+02  0.41800000000E+01 0. -1.
         -5    1    3    3    0  502  0.10086810015E+03  0.21226791326E+02  0.75189092288E+00  0.10316485855E+03  0.41800000000E+01 0. -1.
        -11    1    4    4    0    0 -0.35275970784E+02 -0.25211968663E+02  0.34202171870E+02  0.55225230097E+02  0.00000000000E+00 0.  1.
         11    1    4    4    0    0 -0.66487887299E+02  0.33656956397E+02 -0.34414868415E+02  0.82084182638E+02  0.00000000000E+00 0. -1.
</event>
<event>
 8    1  0.7232317E-009  0.1186345E+03  0.7561462E-02  0.1245367E+00
         -1   -1    0    0    0  501 -0.00000000000E+00  0.00000000000E+00  0.39155040146E+02  0.39155040146E+02  0.00000000000E+00 0.  1.
          1   -1    0    0  501    0  0.00000000000E+00 -0.00000000000E+00 -0.62826567687E+03  0.62826567687E+03  0.00000000000E+00 0. -1.
         25    2    1    2    0    0  0.63017389494E+02  0.10653311346E+02 -0.11812439577E+03  0.18354329992E+03  0.12510030235E+03 0.  0.
         23    2    1    2    0    0 -0.63017389494E+02 -0.10653311346E+02 -0.47098624096E+03  0.48387741710E+03  0.90689752383E+02 0.  0.
          5    1    3    3  502    0 -0.10733134312E+02 -0.36775905311E+02 -0.78046767548E+02  0.87042734954E+02  0.41800000000E+01 0.  1.
         -5    1    3    3    0  502  0.73750523806E+02  0.47429216657E+02 -0.40077628221E+02  0.96500564963E+02  0.41800000000E+01 0.  1.
        -11    1    4    4    0    0 -0.41184738444E+02 -0.50709478042E+02 -0.27802394023E+03  0.28559577235E+03  0.00000000000E+00 0.  1.
         11    1    4    4    0    0 -0.21832651050E+02  0.40056166696E+02 -0.19296230073E+03  0.19828164475E+03  0.00000000000E+00 0. -1.
</event>
<event>
 8    1  0.7232317E-009  0.1373987E+03  0.7561462E-02  0.1216873E+00
         -1   -1    0    0    0  501 -0.00000000000E+00  0.00000000000E+00  0.24108913033E+03  0.24108913033E+03  0.00000000000E+00 0.  1.
          1   -1    0    0  501    0  0.00000000000E+00 -0.00000000000E+00 -0.12045049284E+03  0.12045049284E+03  0.00000000000E+00 0. -1.
         25    2    1    2    0    0  0.92275459749E+02  0.68480337453E+02  0.13232582434E+03  0.21532489970E+03  0.12510144505E+03 0.  0.
         23    2    1    2    0    0 -0.92275459749E+02 -0.68480337453E+02 -0.11687186858E+02  0.14621472347E+03  0.89653990057E+02 0.  0.
          5    1    3    3  502    0  0.69755083445E+02  0.87439339742E+02  0.14485241445E+03  0.18306038395E+03  0.41800000000E+01 0. -1.
         -5    1    3    3    0  502  0.22520376305E+02 -0.18959002289E+02 -0.12526590108E+02  0.32264515748E+02  0.41800000000E+01 0. -1.
        -11    1    4    4    0    0 -0.10024855796E+03 -0.47987318441E+02  0.14428142442E+02  0.11207465101E+03  0.00000000000E+00 0.  1.
         11    1    4    4    0    0  0.79730982106E+01 -0.20493019012E+02 -0.26115329300E+02  0.34140072462E+02  0.00000000000E+00 0. -1.
</event>
<event>
 8    1  0.7232317E-009  0.1260588E+03  0.7561462E-02  0.1233424E+00
          2   -1    0    0  501    0  0.00000000000E+00  0.00000000000E+00  0.27231528289E+03  0.27231528289E+03  0.00000000000E+00 0. -1.
         -2   -1    0    0    0  501 -0.00000000000E+00 -0.00000000000E+00 -0.14363230063E+03  0.14363230063E+03  0.00000000000E+00 0.  1.
         25    2    1    2    0    0  0.33699617066E+02 -0.57300771123E+02  0.22660612059E+03  0.26723764462E+03  0.12508629921E+03 0.  0.
         23    2    1    2    0    0 -0.33699617066E+02  0.57300771123E+02 -0.97923138331E+02  0.14870993890E+03  0.90037005419E+02 0.  0.
          5    1    3    3  502    0 -0.51518501858E+01 -0.90170206195E+02  0.15116255136E+03  0.17613857323E+03  0.41800000000E+01 0. -1.
         -5    1    3    3    0  502  0.38851467252E+02  0.32869435073E+02  0.75443569230E+02  0.91099071388E+02  0.41800000000E+01 0. -1.
        -11    1    4    4    0    0 -0.43237335205E+02  0.77251660768E+02 -0.86697908885E+02  0.12391050663E+03  0.00000000000E+00 0.  1.
         11    1    4    4    0    0  0.95377181385E+01 -0.19950889646E+02 -0.11225229446E+02  0.24799432273E+02  0.00000000000E+00 0. -1.
</event>
<event>
 8    1  0.7232317E-009  0.1134080E+03  0.7561462E-02  0.1254386E+00
         -1   -1    0    0    0  501 -0.00000000000E+00  0.00000000000E+00  0.87574789419E+02  0.87574789419E+02  0.00000000000E+00 0.  1.
          1   -1    0    0  501    0  0.00000000000E+00 -0.00000000000E+00 -0.18496787516E+03  0.18496787516E+03  0.00000000000E+00 0. -1.
         25    2    1    2    0    0 -0.62645748071E+02 -0.48434801705E+02 -0.62540714810E+02  0.16071654179E+03  0.12509215015E+03 0.  0.
         23    2    1    2    0    0  0.62645748071E+02  0.48434801705E+02 -0.34852370936E+02  0.11182612279E+03  0.70851776349E+02 0.  0.
          5    1    3    3  502    0  0.26642915770E+01 -0.75538763278E+02 -0.20833669512E+02  0.78515714303E+02  0.41800000000E+01 0.  1.
         -5    1    3    3    0  502 -0.65310039648E+02  0.27103961573E+02 -0.41707045298E+02  0.82200827485E+02  0.41800000000E+01 0.  1.
        -11    1    4    4    0    0  0.29043811177E+02  0.14268816149E+02  0.20736129939E+02  0.38433438134E+02  0.00000000000E+00 0.  1.
         11    1    4    4    0    0  0.33601936894E+02  0.34165985556E+02 -0.55588500875E+02  0.73392684660E+02  0.00000000000E+00 0. -1.
</event>
<event>
 8    1  0.7232317E-009  0.1026271E+03  0.7561462E-02  0.1274867E+00
          3   -1    0    0  501    0  0.00000000000E+00  0.00000000000E+00  0.19262140761E+02  0.19262140761E+02  0.00000000000E+00 0. -1.
         -3   -1    0    0    0  501 -0.00000000000E+00 -0.00000000000E+00 -0.65340022830E+03  0.65340022830E+03  0.00000000000E+00 0.  1.
         25    2    1    2    0    0 -0.20673741418E+02  0.14844794472E+02 -0.31033940809E+03  0.33556791066E+03  0.12508997939E+03 0.  0.
         23    2    1    2    0    0  0.20673741418E+02 -0.14844794472E+02 -0.32379867945E+03  0.33709445840E+03  0.90218166493E+02 0.  0.
          5    1    3    3  502    0 -0.40869805710E+02  0.61123980423E+02 -0.14487388819E+03  0.16251891546E+03  0.41800000000E+01 0.  1.
         -5    1    3    3    0  502  0.20196064291E+02 -0.46279185951E+02 -0.16546551990E+03  0.17304899520E+03  0.41800000000E+01 0.  1.
        -11    1    4    4    0    0 -0.29019640541E+02 -0.11224731891E+02 -0.50688439751E+02  0.59476483315E+02  0.00000000000E+00 0. -1.
         11    1    4    4    0    0  0.49693381959E+02 -0.36200625815E+01 -0.27311023970E+03  0.27761797509E+03  0.00000000000E+00 0.  1.
</event>
<event>
 8    1  0.7232317E-009  0.2097023E+03  0.7561462E-02  0.1141802E+00
          2   -1    0    0  501    0  0.00000000000E+00  0.00000000000E+00  0.36118401757E+03  0.36118401757E+03  0.00000000000E+00 0. -1.
         -2   -1    0    0    0  501 -0.00000000000E+00 -0.00000000000E+00 -0.14405655717E+03  0.14405655717E+03  0.00000000000E+00 0.  1.
         25    2    1    2    0    0 -0.14275790363E+03  0.13590952227E+03  0.72906523164E+02  0.24457119802E+03  0.12509393467E+03 0.  0.
         23    2    1    2    0    0  0.14275790363E+03 -0.13590952227E+03  0.14422093724E+03  0.26066937672E+03  0.91091316448E+02 0.  0.
          5    1    3    3  502    0 -0.64620411951E+01  0.45015051822E+02  0.66369172882E+02  0.80563343873E+02  0.41800000000E+01 0. -1.
         -5    1    3    3    0  502 -0.13629586243E+03  0.90894470449E+02  0.65373502819E+01  0.16400785415E+03  0.41800000000E+01 0. -1.
        -11    1    4    4    0    0  0.10328335286E+03 -0.48818960925E+02  0.11142722640E+03  0.15958310909E+03  0.00000000000E+00 0. -1.
         11    1    4    4    0    0  0.39474550771E+02 -0.87090561346E+02  0.32793710837E+02  0.10108626764E+03  0.00000000000E+00 0.  1.
</event>
<event>
 8    1  0.7232317E-009  0.1716775E+03  0.7561462E-02  0.1176110E+00
          1   -1    0    0  501    0  0.00000000000E+00  0.00000000000E+00  0.47881758801E+02  0.47881758801E+02  0.00000000000E+00 0. -1.
         -1   -1    0    0    0  501 -0.00000000000E+00 -0.00000000000E+00 -0.80748605500E+03  0.80748605500E+03  0.00000000000E+00 0.  1.
         25    2    1    2    0    0 -0.40554217515E+02 -0.14816381387E+03 -0.26194063798E+03  0.32841622008E+03  0.12508859055E+03 0.  0.
         23    2    1    2    0    0  0.40554217515E+02  0.14816381387E+03 -0.49766365822E+03  0.52695159373E+03  0.80073123558E+02 0.  0.
          5    1    3    3  502    0  0.70080108348E+01 -0.10750703191E+03 -0.75263584108E+02  0.13148746563E+03  0.41800000000E+01 0. -1.
         -5    1    3    3    0  502 -0.47562228350E+02 -0.40656781959E+02 -0.18667705387E+03  0.19692875444E+03  0.41800000000E+01 0. -1.
        -11    1    4    4    0    0  0.56246717384E+02  0.56116850269E+02 -0.21098738958E+03  0.22545170805E+03  0.00000000000E+00 0. -1.
         11    1    4    4    0    0 -0.15692499869E+02  0.92046963599E+02 -0.28667626864E+03  0.30149988568E+03  0.00000000000E+00 0.  1.
</event>
<event>
 8    1  0.7232317E-009  0.1479894E+03  0.7561462E-02  0.1202966E+00
         -2   -1    0    0    0  501 -0.00000000000E+00  0.00000000000E+00  0.55683038640E+02  0.55683038640E+02  0.00000000000E+00 0.  1.
          2   -1    0    0  501    0  0.00000000000E+00 -0.00000000000E+00 -0.47119184655E+03  0.47119184655E+03  0.00000000000E+00 0. -1.
         25    2    1    2    0    0  0.69892771882E+02 -0.95539093446E+02 -0.19040010103E+03  0.25673201832E+03  0.12508562195E+03 0.  0.
         23    2    1    2    0    0 -0.69892771882E+02  0.95539093446E+02 -0.22510870688E+03  0.27014286688E+03  0.91052296358E+02 0.  0.
          5    1    3    3  502    0  0.75753415778E+02 -0.10857120658E+03 -0.10223663679E+03  0.16732031915E+03  0.41800000000E+01 0. -1.
         -5    1    3    3    0  502 -0.58606438958E+01  0.13032113134E+02 -0.88163464246E+02  0.89411699164E+02  0.41800000000E+01 0. -1.
        -11    1    4    4    0    0  0.20384270972E+02  0.33095116786E+02 -0.70907617111E+02  0.80862200208E+02  0.00000000000E+00 0. -1.
         11    1    4    4    0    0 -0.90277042854E+02  0.62443976660E+02 -0.15420108977E+03  0.18928066667E+03  0.00000000000E+00 0.  1.
</event>
<event>
 8    1  0.7232317E-009  0.2387200E+03  0.7561462E-02  0.1120648E+00
          2   -1    0    0  501    0  0.00000000000E+00  0.00000000000E+00  0.16047867156E+03  0.16047867156E+03  0.00000000000E+00 0. -1.
         -2   -1    0    0    0  501 -0.00000000000E+00 -0.00000000000E+00 -0.39494215786E+03  0.39494215786E+03  0.00000000000E+00 0.  1.
         25    2    1    2    0    0  0.22236369549E+03  0.15949623662E+02 -0.12237188472E+03  0.28341169839E+03  0.12508920435E+03 0.  0.
         23    2    1    2    0    0 -0.22236369549E+03 -0.15949623662E+02 -0.11209160158E+03  0.27200913104E+03  0.10827943782E+03 0.  0.
          5    1    3    3  502    0  0.40192633127E+02  0.52994362715E+02 -0.52245484143E+02  0.84681244975E+02  0.41800000000E+01 0. -1.
         -5    1    3    3    0  502  0.18217106236E+03 -0.37044739053E+02 -0.70126400580E+02  0.19873045341E+03  0.41800000000E+01 0. -1.
        -11    1    4    4    0    0 -0.89861870873E+02 -0.20883425973E+02 -0.10421247905E+03  0.13918158681E+03  0.00000000000E+00 0.  1.
         11    1    4    4    0    0 -0.13250182462E+03  0.49338023115E+01 -0.78791225264E+01  0.13282754422E+03  0.00000000000E+00 0. -1.
</event>
<event>
 8    1  0.7232317E-009  0.1300533E+03  0.7561462E-02  0.1227377E+00
         -1   -1    0    0    0  501 -0.00000000000E+00  0.00000000000E+00  0.65683702527E+02  0.65683702527E+02  0.00000000000E+00 0.  1.
          1   -1    0    0  501    0  0.00000000000E+00 -0.00000000000E+00 -0.37621882491E+03  0.37621882491E+03  0.00000000000E+00 0. -1.
         25    2    1    2    0    0 -0.60884969993E+02 -0.82601542863E+02 -0.10300695575E+03  0.19180276517E+03  0.12509145990E+03 0.  0.
         23    2    1    2    0    0  0.60884969993E+02  0.82601542863E+02 -0.20752816663E+03  0.25009976227E+03  0.94614780480E+02 0.  0.
          5    1    3    3  502    0  0.34226626474E+02 -0.13439689489E+02 -0.51335743455E+02  0.63284422802E+02  0.41800000000E+01 0.  1.
         -5    1    3    3    0  502 -0.95111596467E+02 -0.69161853374E+02 -0.51671212295E+02  0.12851834237E+03  0.41800000000E+01 0.  1.
        -11    1    4    4    0    0  0.25834253711E+02  0.55161829728E+02 -0.31586732712E+02  0.68614559731E+02  0.00000000000E+00 0.  1.
         11    1    4    4    0    0  0.35050716283E+02  0.27439713135E+02 -0.17594143392E+03  0.18148520254E+03  0.00000000000E+00 0. -1.
</event>
<event>
 8    1  0.7232317E-009  0.1042170E+03  0.7561462E-02  0.1271670E+00
         -1   -1    0    0    0  501 -0.00000000000E+00  0.00000000000E+00  0.10585811672E+03  0.10585811672E+03  0.00000000000E+00 0.  1.
          1   -1    0    0  501    0  0.00000000000E+00 -0.00000000000E+00 -0.17068289674E+03  0.17068289674E+03  0.00000000000E+00 0. -1.
         25    2    1    2    0    0 -0.76492224552E+02 -0.12400193705E+02 -0.20315116366E+02  0.14854519361E+03  0.12509254722E+03 0.  0.
         23    2    1    2    0    0  0.76492224552E+02  0.12400193705E+02 -0.44509663660E+02  0.12799581985E+03  0.91635116190E+02 0.  0.
          5    1    3    3  502    0  0.12968385203E+02 -0.28260527059E+01  0.38524486452E+02  0.40960640194E+02  0.41800000000E+01 0.  1.
         -5    1    3    3    0  502 -0.89460609755E+02 -0.95741409995E+01 -0.58839602819E+02  0.10758455341E+03  0.41800000000E+01 0.  1.
        -11    1    4    4    0    0 -0.63085653507E+01  0.20314880048E+02  0.14733875557E+02  0.25876233054E+02  0.00000000000E+00 0. -1.
         11    1    4    4    0    0  0.82800789902E+02 -0.79146863426E+01 -0.59243539217E+02  0.10211958680E+03  0.00000000000E+00 0.  1.
</event>
<event>
 8    1  0.7232317E-009  0.6773669E+02  0.7561462E-02  0.1367963E+00
          1   -1    0    0  501    0  0.00000000000E+00  0.00000000000E+00  0.11152498341E+03  0.11152498341E+03  0.00000000000E+00 0. -1.
         -1   -1    0    0    0  501 -0.00000000000E+00 -0.00000000000E+00 -0.23489535628E+03  0.23489535628E+03  0.00000000000E+00 0.  1.
         25    2    1    2    0    0 -0.14027041443E+02 -0.51894105706E+02  0.48661004620E+02  0.14459233921E+03  0.12509714261E+03 0.  0.
         23    2    1    2    0    0  0.14027041443E+02  0.51894105706E+02 -0.17203137748E+03  0.20182800048E+03  0.90829460206E+02 0.  0.
          5    1    3    3  502    0 -0.70485949413E+01 -0.21344430227E+02 -0.42415361150E+02  0.48185087463E+02  0.41800000000E+01 0.  1.
         -5    1    3    3    0  502 -0.69784465018E+01 -0.30549675478E+02  0.91076365770E+02  0.96407251746E+02  0.41800000000E+01 0.  1.
        -11    1    4    4    0    0 -0.19589256924E+02  0.51442855460E+00 -0.46039919196E+00  0.19601418086E+02  0.00000000000E+00 0. -1.
         11    1    4    4    0    0  0.33616298367E+02  0.51379677151E+02 -0.17157097829E+03  0.18222658239E+03  0.00000000000E+00 0.  1.
</event>
<event>
 8    1  0.7232317E-009  0.7821475E+02  0.7561462E-02  0.1334195E+00
         -1   -1    0    0    0  501 -0.00000000000E+00  0.00000000000E+00  0.53418775065E+02  0.53418775065E+02  0.00000000000E+00 0.  1.
          1   -1    0    0  501    0  0.00000000000E+00 -0.00000000000E+00 -0.28784150150E+03  0.28784150150E+03  0.00000000000E+00 0. -1.
         25    2    1    2    0    0 -0.19568415152E+02 -0.60535596433E+02 -0.14702963737E+03  0.20325752796E+03  0.12509367330E+03 0.  0.
         23    2    1    2    0    0  0.19568415152E+02  0.60535596433E+02 -0.87393089066E+02  0.13800274861E+03  0.85788841349E+02 0.  0.
          5    1    3    3  502    0 -0.37412058176E+02 -0.62209126378E+02 -0.16325978396E+03  0.17872007990E+03  0.41800000000E+01 0.  1.
         -5    1    3    3    0  502  0.17843643024E+02  0.16735299456E+01  0.16230146589E+02  0.24537448057E+02  0.41800000000E+01 0.  1.
        -11    1    4    4    0    0  0.11031070598E+02  0.13143641357E+02  0.16304135059E+02  0.23669910154E+02  0.00000000000E+00 0.  1.
         11    1    4    4    0    0  0.85373445537E+01  0.47391955076E+02 -0.10369722412E+03  0.11433283845E+03  0.00000000000E+00 0. -1.
</event>
<event>
 8    1  0.7232317E-009  0.1485028E+03  0.7561462E-02  0.1202325E+00
          1   -1    0    0  501    0  0.00000000000E+00  0.00000000000E+00  0.11613271597E+04  0.11613271597E+04  0.00000000000E+00 0. -1.
         -1   -1    0    0    0  501 -0.00000000000E+00 -0.00000000000E+00 -0.23136105834E+02  0.23136105834E+02  0.00000000000E+00 0.  1.
         25    2    1    2    0    0 -0.11483721381E+03 -0.24394667051E+02  0.47552091241E+03  0.50550635181E+03  0.12503538746E+03 0.  0.
         23    2    1    2    0    0  0.11483721381E+03  0.24394667051E+02  0.66267014146E+03  0.67895691374E+03  0.89822540978E+02 0.  0.
          5    1    3    3  502    0 -0.10953331945E+03 -0.53904057898E+02  0.44880675698E+03  0.46513242527E+03  0.41800000000E+01 0. -1.
         -5    1    3    3    0  502 -0.53038943680E+01  0.29509390847E+02  0.26714155439E+02  0.40373926542E+02  0.41800000000E+01 0. -1.
        -11    1    4    4    0    0  0.71545510376E+02 -0.27812891896E+02  0.42145757945E+03  0.42839095262E+03  0.00000000000E+00 0. -1.
         11    1    4    4    0    0  0.43291703437E+02  0.52207558948E+02  0.24121256202E+03  0.25056596112E+03  0.00000000000E+00 0.  1.
</event>
<event>
 8    1  0.7232317E-009  0.8381474E+02  0.7561462E-02  0.1318562E+00
         -2   -1    0    0    0  501 -0.00000000000E+00  0.00000000000E+00  0.84216199211E+01  0.84216199211E+01  0.00000000000E+00 0.  1.
          2   -1    0    0  501    0  0.00000000000E+00 -0.00000000000E+00 -0.20874012781E+04  0.20874012781E+04  0.00000000000E+00 0. -1.
         25    2    1    2    0    0  0.36575028953E+02  0.27128312524E+02 -0.16564878849E+04  0.16618282138E+04  0.12508885327E+03 0.  0.
         23    2    1    2    0    0 -0.36575028953E+02 -0.27128312524E+02 -0.42249177324E+03  0.43399468420E+03  0.88195291127E+02 0.  0.
          5    1    3    3  502    0  0.90587462039E+00  0.32995358845E+02 -0.11022116201E+03  0.11513336297E+03  0.41800000000E+01 0. -1.
         -5    1    3    3    0  502  0.35669154333E+02 -0.58670463203E+01 -0.15462667229E+04  0.15466948508E+04  0.41800000000E+01 0. -1.
        -11    1    4    4    0    0 -0.57137670288E+02  0.75682179719E+01 -0.21327326579E+03  0.22092414352E+03  0.00000000000E+00 0.  1.
         11    1    4    4    0    0  0.20562641334E+02 -0.34696530496E+02 -0.20921850745E+03  0.21307054068E+03  0.00000000000E+00 0. -1.
</event>
<event>
 8    1  0.7232317E-009  0.1408635E+03  0.7561462E-02  0.1212172E+00
          2   -1    0    0  501    0  0.00000000000E+00  0.00000000000E+00  0.40632728372E+02  0.40632728372E+02  0.00000000000E+00 0. -1.
         -2   -1    0    0    0  501 -0.00000000000E+00 -0.00000000000E+00 -0.59630782885E+03  0.59630782885E+03  0.00000000000E+00 0.  1.
         25    2    1    2    0    0  0.15717623481E+02 -0.82414745509E+02 -0.42508550707E+03  0.45098187596E+03  0.12509088757E+03 0.  0.
         23    2    1    2    0    0 -0.15717623481E+02  0.82414745509E+02 -0.13058959341E+03  0.18595868127E+03  0.10240974205E+03 0.  0.
          5    1    3    3  502    0 -0.39647721812E+02 -0.84947914341E+02 -0.29360925208E+03  0.30824009360E+03  0.41800000000E+01 0.  1.
         -5    1    3    3    0  502  0.55365345293E+02  0.25331688310E+01 -0.13147625499E+03  0.14274178235E+03  0.41800000000E+01 0.  1.
        -11    1    4    4    0    0 -0.25296780535E+02  0.10487915555E+03 -0.10390713663E+03  0.14978737402E+03  0.00000000000E+00 0.  1.
         11    1    4    4    0    0  0.95791570548E+01 -0.22464410037E+02 -0.26682456778E+02  0.36171307246E+02  0.00000000000E+00 0. -1.
</event>
<event>
 7    1  0.7232317E-009  0.1261119E+03  0.7561462E-02  0.1233342E+00
         -1   -1    0    0    0  501 -0.00000000000E+00  0.00000000000E+00  0.80643419875E+02  0.80643419875E+02  0.00000000000E+00 0.  1.
          1   -1    0    0  501    0  0.00000000000E+00 -0.00000000000E+00 -0.23455164997E+03  0.23455164997E+03  0.00000000000E+00 0. -1.
         25    2    1    2    0    0  0.20640129060E+01 -0.96442925324E+02 -0.40085927706E+02  0.16296996589E+03  0.12508729028E+03 0.  0.
          5    1    3    3  502    0 -0.57942063187E+02 -0.47567150591E+02 -0.40819821982E+02  0.85461375886E+02  0.41800000000E+01 0.  1.
         -5    1    3    3    0  502  0.60006076093E+02 -0.48875774733E+02  0.73389427551E+00  0.77508590006E+02  0.41800000000E+01 0.  1.
        -11    1    1    2    0    0  0.94407668494E+01  0.72055308363E+02 -0.70848856621E+02  0.10149214761E+03  0.00000000000E+00 0.  1.
         11    1    1    2    0    0 -0.11504779755E+02  0.24387616961E+02 -0.42973445772E+02  0.50732956348E+02  0.00000000000E+00 0. -1.
</event>
<event>
 8    1  0.7232317E-009  0.1055462E+03  0.7561462E-02  0.1269047E+00
         -1   -1    0    0    0  501 -0.00000000000E+00  0.00000000000E+00  0.13650057423E+02  0.13650057423E+02  0.00000000000E+00 0.  1.
          1   -1    0    0  501    0  0.00000000000E+00 -0.00000000000E+00 -0.10692234637E+04  0.10692234637E+04  0.00000000000E+00 0. -1.
         25    2    1    2    0    0 -0.11030254365E+02 -0.59127969926E+02 -0.56819138134E+03  0.58489860718E+03  0.12508857466E+03 0.  0.
         23    2    1    2    0    0  0.11030254365E+02  0.59127969926E+02 -0.48738202491E+03  0.49797491392E+03  0.82583251017E+02 0.  0.
          5    1    3    3  502    0 -0.19216817419E+02 -0.82023164588E+02 -0.54345578018E+03  0.54996249237E+03  0.41800000000E+01 0. -1.
         -5    1    3    3    0  502  0.81865630533E+01  0.22895194662E+02 -0.24735601163E+02  0.34936114812E+02  0.41800000000E+01 0. -1.
        -11    1    4    4    0    0  0.40033886172E+02  0.61050249995E+02 -0.33884370160E+03  0.34661924237E+03  0.00000000000E+00 0. -1.
         11    1    4    4    0    0 -0.29003631807E+02 -0.19222800691E+01 -0.14853832330E+03  0.15135567155E+03  0.00000000000E+00 0.  1.
</event>
<event>
 8    1  0.7232317E-009  0.1098677E+03  0.7561462E-02  0.1260815E+00
          1   -1    0    0  501    0  0.00000000000E+00  0.00000000000E+00  0.14285801596E+03  0.14285801596E+03  0.00000000000E+00 0. -1.
         -1   -1    0    0    0  501 -0.00000000000E+00 -0.00000000000E+00 -0.10748954916E+03  0.10748954916E+03  0.00000000000E+00 0.  1.
         25    2    1    2    0    0  0.29461194278E+02  0.51907391725E+02  0.24036488227E+02  0.14067008030E+03  0.12509188400E+03 0.  0.
         23    2    1    2    0    0 -0.29461194278E+02 -0.51907391725E+02  0.11331978571E+02  0.10967748482E+03  0.91314827136E+02 0.  0.
          5    1    3    3  502    0 -0.41288023788E+02  0.50086286530E+02  0.25223566678E+02  0.69764157866E+02  0.41800000000E+01 0. -1.
         -5    1    3    3    0  502  0.70749218067E+02  0.18211051946E+01 -0.11870784514E+01  0.70905922435E+02  0.41800000000E+01 0. -1.
        -11    1    4    4    0    0 -0.47620871671E+02 -0.37401136380E+02  0.40150497505E+02  0.72654352045E+02  0.00000000000E+00 0. -1.
         11    1    4    4    0    0  0.18159677393E+02 -0.14506255345E+02 -0.28818518934E+02  0.37023132778E+02  0.00000000000E+00 0.  1.
</event>
<event>
 8    1  0.7232317E-009  0.4441056E+02  0.7561462E-02  0.1478055E+00
          1   -1    0    0  501    0  0.00000000000E+00  0.00000000000E+00  0.15704826365E+03  0.15704826365E+03  0.00000000000E+00 0. -1.
         -1   -1    0    0    0  501 -0.00000000000E+00 -0.00000000000E+00 -0.83958042747E+02  0.83958042747E+02  0.00000000000E+00 0.  1.
         25    2    1    2    0    0  0.39699211003E+02 -0.32491669544E+01  0.38728611348E+02  0.13687045397E+03  0.12508809453E+03 0.  0.
         23    2    1    2    0    0 -0.39699211003E+02  0.32491669544E+01  0.34361609555E+02  0.10413585243E+03  0.89871970653E+02 0.  0.
          5    1    3    3  502    0  0.20081518942E+02 -0.66780507625E+01 -0.45427486767E+02  0.50289091451E+02  0.41800000000E+01 0. -1.
         -5    1    3    3    0  502  0.19617692061E+02  0.34288838081E+01  0.84156098114E+02  0.86581362520E+02  0.41800000000E+01 0. -1.
        -11    1    4    4    0    0 -0.29114966839E+02  0.13565608554E+02 -0.26415679202E+02  0.41587199199E+02  0.00000000000E+00 0.  1.
         11    1    4    4    0    0 -0.10584244164E+02 -0.10316441600E+02  0.60777288757E+02  0.62548653227E+02  0.00000000000E+00 0. -1.
</event>
<event>
 8    1  0.7232317E-009  0.2674046E+03  0.7561462E-02  0.1102774E+00
         -3   -1    0    0    0  501 -0.00000000000E+00  0.00000000000E+00  0.12569325209E+04  0.12569325209E+04  0.00000000000E+00 0.  1.
          3   -1    0    0  501    0  0.00000000000E+00 -0.00000000000E+00 -0.60144520486E+02  0.60144520486E+02  0.00000000000E+00 0. -1.
         25    2    1    2    0    0  0.22698743259E+03  0.10881772071E+03  0.65605731952E+03  0.71373903790E+03  0.12509043459E+03 0.  0.
         23    2    1    2    0    0 -0.22698743259E+03 -0.10881772071E+03  0.54073068090E+03  0.60333800350E+03  0.90898219485E+02 0.  0.
          5    1    3    3  502    0  0.84829269052E+01 -0.13817132025E+02  0.12962809490E+03  0.13070496767E+03  0.41800000000E+01 0. -1.
         -5    1    3    3    0  502  0.21850450568E+03  0.12263485274E+03  0.52642922463E+03  0.58303407023E+03  0.41800000000E+01 0. -1.
        -11    1    4    4    0    0 -0.18738646588E+03 -0.45579693816E+02  0.38014818952E+03  0.42626733639E+03  0.00000000000E+00 0. -1.
         11    1    4    4    0    0 -0.39600966703E+02 -0.63238026895E+02  0.16058249138E+03  0.17707066710E+03  0.00000000000E+00 0.  1.
</event>
<event>
 8    1  0.7232317E-009  0.8807585E+02  0.7561462E-02  0.1307579E+00
         -2   -1    0    0    0  501 -0.00000000000E+00  0.00000000000E+00  0.20223491685E+03  0.20223491685E+03  0.00000000000E+00 0.  1.
          2   -1    0    0  501    0  0.00000000000E+00 -0.00000000000E+00 -0.60890373978E+02  0.60890373978E+02  0.00000000000E+00 0. -1.
         25    2    1    2    0    0  0.45671110714E+01 -0.11821701656E+02  0.10532221275E+03  0.16401842485E+03  0.12509462042E+03 0.  0.
         23    2    1    2    0    0 -0.45671110714E+01  0.11821701656E+02  0.36022330123E+02  0.99106865979E+02  0.91454641670E+02 0.  0.
          5    1    3    3  502    0 -0.41850645525E+02 -0.46338616068E+02  0.77738510576E+02  0.99797255957E+02  0.41800000000E+01 0.  1.
         -5    1    3    3    0  502  0.46417756597E+02  0.34516914412E+02  0.27583702169E+02  0.64221168888E+02  0.41800000000E+01 0.  1.
        -11    1    4    4    0    0 -0.26484602425E+02 -0.62004870297E+01 -0.21694012176E+02  0.34792389532E+02  0.00000000000E+00 0. -1.
         11    1    4    4    0    0  0.21917491354E+02  0.18022188685E+02  0.57716342299E+02  0.64314476447E+02  0.00000000000E+00 0.  1.
</event>
<event>
 8    1  0.7232317E-009  0.1150040E+03  0.7561462E-02  0.1251574E+00
          1   -1    0    0  501    0  0.00000000000E+00  0.00000000000E+00  0.14076688592E+04  0.14076688592E+04  0.00000000000E+00 0. -1.
         -1   -1    0    0    0  501 -0.00000000000E+00 -0.00000000000E+00 -0.55764432932E+02  0.55764432932E+02  0.00000000000E+00 0.  1.
         25    2    1    2    0    0 -0.12808222515E+02 -0.38106362863E+02  0.13562650948E+04  0.13626146420E+04  0.12509000666E+03 0.  0.
         23    2    1    2    0    0  0.12808222515E+02  0.38106362863E+02 -0.43606685674E+01  0.10081865010E+03  0.92353880927E+02 0.  0.
          5    1    3    3  502    0 -0.67766568053E+02 -0.89146861393E+01  0.64772311495E+03  0.65133285302E+03  0.41800000000E+01 0.  1.
         -5    1    3    3    0  502  0.54958345538E+02 -0.29191676724E+02  0.70854197987E+03  0.71128178900E+03  0.41800000000E+01 0.  1.
        -11    1    4    4    0    0 -0.38066687435E+02  0.48383244494E+01 -0.10331544905E+02  0.39739437539E+02  0.00000000000E+00 0. -1.
         11    1    4    4    0    0  0.50874909951E+02  0.33268038413E+02  0.59708763376E+01  0.61079212557E+02  0.00000000000E+00 0.  1.
</event>
<event>
 8    1  0.7232317E-009  0.1094327E+03  0.7561462E-02  0.1261624E+00
          1   -1    0    0  501    0  0.00000000000E+00  0.00000000000E+00  0.41664237386E+02  0.41664237386E+02  0.00000000000E+00 0. -1.
         -1   -1    0    0    0  501 -0.00000000000E+00 -0.00000000000E+00 -0.44256279298E+03  0.44256279298E+03  0.00000000000E+00 0.  1.
         25    2    1    2    0    0 -0.54032765883E+02  0.52929974257E+02 -0.27710617826E+03  0.31329877834E+03  0.12508864262E+03 0.  0.
         23    2    1    2    0    0  0.54032765883E+02 -0.52929974257E+02 -0.12379237733E+03  0.17092825203E+03  0.90392437140E+02 0.  0.
          5    1    3    3  502    0 -0.93039090333E+02  0.32308944300E+02 -0.15817764588E+03  0.18638074006E+03  0.41800000000E+01 0. -1.
         -5    1    3    3    0  502  0.39006324449E+02  0.20621029957E+02 -0.11892853238E+03  0.12691803827E+03  0.41800000000E+01 0. -1.
        -11    1    4    4    0    0  0.34489062986E+02 -0.28919762134E+02 -0.17747646692E+01  0.45044399176E+02  0.00000000000E+00 0.  1.
         11    1    4    4    0    0  0.19543702897E+02 -0.24010212124E+02 -0.12201761266E+03  0.12588385285E+03  0.00000000000E+00 0. -1.
</event>
<event>
 8    1  0.7232317E-009  0.1644616E+03  0.7561462E-02  0.1183750E+00
          2   -1    0    0  501    0  0.00000000000E+00  0.00000000000E+00  0.30587309916E+03  0.30587309916E+03  0.00000000000E+00 0. -1.
         -2   -1    0    0    0  501 -0.00000000000E+00 -0.00000000000E+00 -0.10654236336E+03  0.10654236336E+03  0.00000000000E+00 0.  1.
         25    2    1    2    0    0 -0.78972216824E+01 -0.12651349872E+03  0.18301154617E+03  0.25536380210E+03  0.12509761757E+03 0.  0.
         23    2    1    2    0    0  0.78972216824E+01  0.12651349872E+03  0.16319189631E+02  0.15705166043E+03  0.91273635970E+02 0.  0.
          5    1    3    3  502    0 -0.59180922837E+02 -0.36924754135E+02  0.10401663915E+03  0.12531062492E+03  0.41800000000E+01 0.  1.
         -5    1    3    3    0  502  0.51283701154E+02 -0.89588744586E+02  0.78994907015E+02  0.13005317718E+03  0.41800000000E+01 0.  1.
        -11    1    4    4    0    0 -0.25767316768E+02  0.11830502413E+03  0.17742079597E+02  0.12237162553E+03  0.00000000000E+00 0.  1.
         11    1    4    4    0    0  0.33664538450E+02  0.82084745929E+01 -0.14228899655E+01  0.34680034891E+02  0.00000000000E+00 0. -1.
</event>
<event>
 8    1  0.7232317E-009  0.1230069E+03  0.7561462E-02  0.1238217E+00
          1   -1    0    0  501    0  0.00000000000E+00  0.00000000000E+00  0.81969570657E+03  0.81969570657E+03  0.00000000000E+00 0. -1.
         -1   -1    0    0    0  501 -0.00000000000E+00 -0.00000000000E+00 -0.24238614033E+02  0.24238614033E+02  0.00000000000E+00 0.  1.
         25    2    1    2    0    0  0.30787338254E+02 -0.81976091891E+02  0.59121347851E+03  0.61061380398E+03  0.12509156887E+03 0.  0.
         23    2    1    2    0    0 -0.30787338254E+02  0.81976091891E+02  0.20424361403E+03  0.23332051663E+03  0.71099013829E+02 0.  0.
          5    1    3    3  502    0 -0.35740559486E+02 -0.17796668707E+01  0.66446250974E+02  0.75585259641E+02  0.41800000000E+01 0. -1.
         -5    1    3    3    0  502  0.66527897740E+02 -0.80196425020E+02  0.52476722753E+03  0.53502854434E+03  0.41800000000E+01 0. -1.
        -11    1    4    4    0    0 -0.48609729275E+02  0.55381984618E+02  0.99643665018E+02  0.12393115015E+03  0.00000000000E+00 0.  1.
         11    1    4    4    0    0  0.17822391021E+02  0.26594107273E+02  0.10459994901E+03  0.10938936647E+03  0.00000000000E+00 0. -1.
</event>
<event>
 8    1  0.7232317E-009  0.1205479E+03  0.7561462E-02  0.1242196E+00
          1   -1    0    0  501    0  0.00000000000E+00  0.00000000000E+00  0.78711608058E+02  0.78711608058E+02  0.00000000000E+00 0. -1.
         -1   -1    0    0    0  501 -0.00000000000E+00 -0.00000000000E+00 -0.22318966871E+03  0.22318966871E+03  0.00000000000E+00 0.  1.
         25    2    1    2    0    0  0.59672061560E+02 -0.49777282340E+01 -0.13300063314E+03  0.19214809089E+03  0.12508472213E+03 0.  0.
         23    2    1    2    0    0 -0.59672061560E+02  0.49777282340E+01 -0.11477427514E+02  0.10975318588E+03  0.91260603540E+02 0.  0.
          5    1    3    3  502    0  0.92717064869E+02  0.22462596533E+02 -0.93500410199E+02  0.13364438435E+03  0.41800000000E+01 0.  1.
         -5    1    3    3    0  502 -0.33045003309E+02 -0.27440324767E+02 -0.39500222940E+02  0.58503706543E+02  0.41800000000E+01 0.  1.
        -11    1    4    4    0    0 -0.80955026261E+02  0.21908674040E+01 -0.24546401213E+02  0.84622940090E+02  0.00000000000E+00 0.  1.
         11    1    4    4    0    0  0.21282964701E+02  0.27868608300E+01  0.13068973700E+02  0.25130245787E+02  0.00000000000E+00 0. -1.
</event>
<event>
 8    1  0.7232317E-009  0.2213195E+03  0.7561462E-02  0.1132903E+00
         -2   -1    0    0    0  501 -0.00000000000E+00  0.00000000000E+00  0.28996698440E+02  0.28996698440E+02  0.00000000000E+00 0.  1.
          2   -1    0    0  501    0  0.00000000000E+00 -0.00000000000E+00 -0.20534520634E+04  0.20534520634E+04  0.00000000000E+00 0. -1.
         25    2    1    2    0    0 -0.19780130205E+03 -0.60980663117E+02 -0.13446375897E+04  0.13662144718E+04  0.12509092193E+03 0.  0.
         23    2    1    2    0    0  0.19780130205E+03  0.60980663117E+02 -0.67981777519E+03  0.71623429004E+03  0.89416745643E+02 0.  0.
          5    1    3    3  502    0 -0.16611594786E+03 -0.92807489265E+02 -0.94031870170E+03  0.95938755014E+03  0.41800000000E+01 0.  1.
         -5    1    3    3    0  502 -0.31685354194E+02  0.31826826148E+02 -0.40431888803E+03  0.40682692162E+03  0.41800000000E+01 0.  1.
        -11    1    4    4    0    0  0.16793898718E+03  0.48164445324E+02 -0.64650959843E+03  0.66969991644E+03  0.00000000000E+00 0. -1.
         11    1    4    4    0    0  0.29862314874E+02  0.12816217793E+02 -0.33308176757E+02  0.46534373607E+02  0.00000000000E+00 0.  1.
</event>
<event>
 8    1  0.7232317E-009  0.8901285E+02  0.7561462E-02  0.1305260E+00
         -1   -1    0    0    0  501 -0.00000000000E+00  0.00000000000E+00  0.56444066542E+02  0.56444066542E+02  0.00000000000E+00 0.  1.
          1   -1    0    0  501    0  0.00000000000E+00 -0.00000000000E+00 -0.24729913093E+03  0.24729913093E+03  0.00000000000E+00 0. -1.
         25    2    1    2    0    0 -0.57019376492E+01  0.52331051678E+02 -0.17614595637E+03  0.22237345178E+03  0.12510596728E+03 0.  0.
         23    2    1    2    0    0  0.57019376492E+01 -0.52331051678E+02 -0.14709108019E+02  0.81369745692E+02  0.60279570275E+02 0.  0.
          5    1    3    3  502    0 -0.57521172064E+02  0.13620430592E+02 -0.12981320664E+03  0.14269948277E+03  0.41800000000E+01 0. -1.
         -5    1    3    3    0  502  0.51819234415E+02  0.38710621086E+02 -0.46332749728E+02  0.79673969008E+02  0.41800000000E+01 0. -1.
        -11    1    4    4    0    0  0.92984699161E+01 -0.41784325651E+02 -0.36914697709E+02  0.56525094603E+02  0.00000000000E+00 0. -1.
         11    1    4    4    0    0 -0.35965322669E+01 -0.10546726027E+02  0.22205589690E+02  0.24844651089E+02  0.00000000000E+00 0.  1.
</event>
<event>
 8    1  0.7232317E-009  0.1025144E+03  0.7561462E-02  0.1275096E+00
         -2   -1    0    0    0  501 -0.00000000000E+00  0.00000000000E+00  0.10174496440E+03  0.10174496440E+03  0.00000000000E+00 0.  1.
          2   -1    0    0  501    0  0.00000000000E+00 -0.00000000000E+00 -0.15589064795E+03  0.15589064795E+03  0.00000000000E+00 0. -1.
         25    2    1    2    0    0  0.43912459322E+02  0.80557317318E+01  0.17326577133E+02  0.13396298661E+03  0.12511064146E+03 0.  0.
         23    2    1    2    0    0 -0.43912459322E+02 -0.80557317318E+01 -0.71472260689E+02  0.12367262575E+03  0.90517597260E+02 0.  0.
          5    1    3    3  502    0  0.28123409183E+02  0.63530866083E+02 -0.94384320420E+01  0.70239970734E+02  0.41800000000E+01 0. -1.
         -5    1    3    3    0  502  0.15789050139E+02 -0.55475134351E+02  0.26765009175E+02  0.63723015871E+02  0.41800000000E+01 0. -1.
        -11    1    4    4    0    0 -0.37984246225E+02 -0.34002991161E+02 -0.39960538740E+01  0.51136824459E+02  0.00000000000E+00 0.  1.
         11    1    4    4    0    0 -0.59282130971E+01  0.25947259429E+02 -0.67476206815E+02  0.72535801288E+02  0.00000000000E+00 0. -1.
</event>
<event>
 8    1  0.7232317E-009  0.1421644E+03  0.7561462E-02  0.1210446E+00
          2   -1    0    0  501    0  0.00000000000E+00  0.00000000000E+00  0.21672785208E+03  0.21672785208E+03  0.00000000000E+00 0.  1.
         -2   -1    0    0    0  501 -0.00000000000E+00 -0.00000000000E+00 -0.12080451937E+03  0.12080451937E+03  0.00000000000E+00 0. -1.
         25    2    1    2    0    0 -0.89635682959E+02  0.27429307186E+02 -0.25791860838E+02  0.15842765815E+03  0.12508868945E+03 0.  0.
         23    2    1    2    0    0  0.89635682959E+02 -0.27429307186E+02  0.12171519355E+03  0.17910471330E+03  0.92070556820E+02 0.  0.
          5    1    3    3  502    0 -0.10485161457E+03  0.58025565684E+02 -0.93398154812E+01  0.12027273965E+03  0.41800000000E+01 0. -1.
         -5    1    3    3    0  502  0.15215931611E+02 -0.30596258498E+02 -0.16452045356E+02  0.38154918494E+02  0.41800000000E+01 0. -1.
        -11    1    4    4    0    0  0.79716939452E+02  0.19467321072E+02  0.89079714685E+02  0.12111549279E+03  0.00000000000E+00 0.  1.
         11    1    4    4    0    0  0.99187435066E+01 -0.46896628258E+02  0.32635478870E+02  0.57989220514E+02  0.00000000000E+00 0. -1.
</event>
<event>
 8    1  0.7232317E-009  0.1138195E+03  0.7561462E-02  0.1253656E+00
         -1   -1    0    0    0  501 -0.00000000000E+00  0.00000000000E+00  0.38323306545E+02  0.38323306545E+02  0.00000000000E+00 0.  1.
          1   -1    0    0  501    0  0.00000000000E+00 -0.00000000000E+00 -0.43548610661E+03  0.43548610661E+03  0.00000000000E+00 0. -1.
         25    2    1    2    0    0 -0.40721481593E+02 -0.29319931589E+02 -0.30628764840E+03  0.33463047496E+03  0.12509010255E+03 0.  0.
         23    2    1    2    0    0  0.40721481593E+02  0.29319931589E+02 -0.90875151661E+02  0.13917893820E+03  0.92706991086E+02 0.  0.
          5    1    3    3  502    0  0.40021718053E+02 -0.19126047462E+02 -0.56909876527E+02  0.72275514898E+02  0.41800000000E+01 0.  1.
         -5    1    3    3    0  502 -0.80743199647E+02 -0.10193884128E+02 -0.24937777187E+03  0.26235496006E+03  0.41800000000E+01 0.  1.
        -11    1    4    4    0    0 -0.49578486141E+01  0.50852845438E+02 -0.64251646694E+02  0.82090597847E+02  0.00000000000E+00 0.  1.
         11    1    4    4    0    0  0.45679330207E+02 -0.21532913848E+02 -0.26623504967E+02  0.57088340348E+02  0.00000000000E+00 0. -1.
</event>
<event>
 8    1  0.7232317E-009  0.1367671E+03  0.7561462E-02  0.1217746E+00
         -2   -1    0    0    0  501 -0.00000000000E+00  0.00000000000E+00  0.12356998350E+03  0.12356998350E+03  0.00000000000E+00 0.  1.
          2   -1    0    0  501    0  0.00000000000E+00 -0.00000000000E+00 -0.23695284104E+03  0.23695284104E+03  0.00000000000E+00 0. -1.
         25    2    1    2    0    0  0.13016707660E+03 -0.14566660479E+02 -0.64070193611E+02  0.19211486922E+03  0.12508987904E+03 0.  0.
         23    2    1    2    0    0 -0.13016707660E+03  0.14566660479E+02 -0.49312663933E+02  0.16840795532E+03  0.93668805708E+02 0.  0.
          5    1    3    3  502    0  0.24302584075E+02 -0.75716803305E+01 -0.80627972324E+02  0.84653932317E+02  0.41800000000E+01 0. -1.
         -5    1    3    3    0  502  0.10586449253E+03 -0.69949801484E+01  0.16557778712E+02  0.10746093691E+03  0.41800000000E+01 0. -1.
        -11    1    4    4    0    0 -0.56579492150E+01 -0.12875227278E+02  0.19097305541E+02  0.23716891569E+02  0.00000000000E+00 0.  1.
         11    1    4    4    0    0 -0.12450912739E+03  0.27441887757E+02 -0.68409969474E+02  0.14469106375E+03  0.00000000000E+00 0. -1.
</event>
<event>
 8    1  0.7232317E-009  0.7877790E+02  0.7561462E-02  0.1332556E+00
          1   -1    0    0  501    0  0.00000000000E+00  0.00000000000E+00  0.23191846513E+03  0.23191846513E+03  0.00000000000E+00 0. -1.
         -1   -1    0    0    0  501 -0.00000000000E+00 -0.00000000000E+00 -0.53384624528E+02  0.53384624528E+02  0.00000000000E+00 0.  1.
         25    2    1    2    0    0  0.21709699182E+02 -0.15190744345E+02  0.10945619354E+03  0.16831804786E+03  0.12509291418E+03 0.  0.
         23    2    1    2    0    0 -0.21709699182E+02  0.15190744345E+02  0.69077647063E+02  0.11698504180E+03  0.90618480067E+02 0.  0.
          5    1    3    3  502    0  0.82452482489E+01  0.49400827771E+02  0.83161507427E+02  0.97168588652E+02  0.41800000000E+01 0. -1.
         -5    1    3    3    0  502  0.13464450933E+02 -0.64591572116E+02  0.26294686114E+02  0.71149459205E+02  0.41800000000E+01 0. -1.
        -11    1    4    4    0    0 -0.17038203637E+02 -0.70646774084E+01 -0.18725958792E+02  0.26284436131E+02  0.00000000000E+00 0.  1.
         11    1    4    4    0    0 -0.46714955452E+01  0.22255421754E+02  0.87803605855E+02  0.90700605672E+02  0.00000000000E+00 0. -1.
</event>
<event>
 8    1  0.7232317E-009  0.1080335E+03  0.7561462E-02  0.1264256E+00
         -2   -1    0    0    0  501 -0.00000000000E+00  0.00000000000E+00  0.30872523494E+02  0.30872523494E+02  0.00000000000E+00 0.  1.
          2   -1    0    0  501    0  0.00000000000E+00 -0.00000000000E+00 -0.56538323910E+03  0.56538323910E+03  0.00000000000E+00 0. -1.
         25    2    1    2    0    0 -0.69479153148E+02 -0.22224318145E+02 -0.25700400629E+03  0.29499192163E+03  0.12509157262E+03 0.  0.
         23    2    1    2    0    0  0.69479153148E+02  0.22224318145E+02 -0.27750670931E+03  0.30126384096E+03  0.91807707275E+02 0.  0.
          5    1    3    3  502    0 -0.71905923922E+02 -0.51308266618E+02 -0.24929841537E+03  0.26451875628E+03  0.41800000000E+01 0.  1.
         -5    1    3    3    0  502  0.24267707744E+01  0.29083948474E+02 -0.77055909197E+01  0.30473165353E+02  0.41800000000E+01 0.  1.
        -11    1    4    4    0    0  0.38874446377E+02 -0.21772400737E+02 -0.21197470531E+03  0.21660686902E+03  0.00000000000E+00 0. -1.
         11    1    4    4    0    0  0.30604706771E+02  0.43996718882E+02 -0.65532004001E+02  0.84656971935E+02  0.00000000000E+00 0.  1.
</event>
<event>
 8    1  0.7232317E-009  0.1533090E+03  0.7561462E-02  0.1196465E+00
         -1   -1    0    0    0  501 -0.00000000000E+00  0.00000000000E+00  0.16712378254E+03  0.16712378254E+03  0.00000000000E+00 0. -1.
          1   -1    0    0  501    0  0.00000000000E+00 -0.00000000000E+00 -0.24997475636E+03  0.24997475636E+03  0.00000000000E+00 0.  1.
         25    2    1    2    0    0  0.12075631717E+02 -0.11121711201E+03 -0.17786962366E+03  0.24454272272E+03  0.12509385807E+03 0.  0.
         23    2    1    2    0    0 -0.12075631717E+02  0.11121711201E+03  0.95018649840E+02  0.17255581618E+03  0.90729813153E+02 0.  0.
          5    1    3    3  502    0 -0.54699118685E+02 -0.32907405917E+02 -0.56406467315E+02  0.85288058390E+02  0.41800000000E+01 0.  1.
         -5    1    3    3    0  502  0.66774750402E+02 -0.78309706093E+02 -0.12146315635E+03  0.15925466432E+03  0.41800000000E+01 0.  1.
        -11    1    4    4    0    0  0.24255720143E+02  0.98047055994E+02  0.48394543959E+02  0.11199820103E+03  0.00000000000E+00 0.  1.
         11    1    4    4    0    0 -0.36331351860E+02  0.13170056015E+02  0.46624105881E+02  0.60557615150E+02  0.00000000000E+00 0. -1.
</event>
<event>
 8    1  0.7232317E-009  0.9752381E+02  0.7561462E-02  0.1285591E+00
          3   -1    0    0  501    0  0.00000000000E+00  0.00000000000E+00  0.15084642866E+03  0.15084642866E+03  0.00000000000E+00 0. -1.
         -3   -1    0    0    0  501 -0.00000000000E+00 -0.00000000000E+00 -0.84315238940E+02  0.84315238940E+02  0.00000000000E+00 0.  1.
         25    2    1    2    0    0  0.11199421559E+02 -0.25304219863E+02  0.22774447554E+02  0.13012082526E+03  0.12508806146E+03 0.  0.
         23    2    1    2    0    0 -0.11199421559E+02  0.25304219863E+02  0.43756742169E+02  0.10504084234E+03  0.91395817673E+02 0.  0.
          5    1    3    3  502    0 -0.42056144217E+01  0.41045732741E+02 -0.23500991668E+02  0.47667686941E+02  0.41800000000E+01 0. -1.
         -5    1    3    3    0  502  0.15405035981E+02 -0.66349952604E+02  0.46275439222E+02  0.82453138323E+02  0.41800000000E+01 0. -1.
        -11    1    4    4    0    0 -0.25889704426E+02  0.50167491462E+02  0.50093933035E+02  0.75474870796E+02  0.00000000000E+00 0.  1.
         11    1    4    4    0    0  0.14690282866E+02 -0.24863271598E+02 -0.63371908663E+01  0.29565971544E+02  0.00000000000E+00 0. -1.
</event>
<event>
 8    1  0.7232317E-009  0.1771441E+03  0.7561462E-02  0.1170596E+00
          2   -1    0    0  501    0  0.00000000000E+00  0.00000000000E+00  0.20454420738E+03  0.20454420738E+03  0.00000000000E+00 0. -1.
         -2   -1    0    0    0  501 -0.00000000000E+00 -0.00000000000E+00 -0.18788323146E+03  0.18788323146E+03  0.00000000000E+00 0.  1.
         25    2    1    2    0    0 -0.15409634874E+02 -0.14766561060E+03 -0.56950046542E+02  0.20232011001E+03  0.12509008639E+03 0.  0.
         23    2    1    2    0    0  0.15409634874E+02  0.14766561060E+03  0.73611022459E+02  0.19010732882E+03  0.93164502061E+02 0.  0.
          5    1    3    3  502    0 -0.48139770698E+02 -0.75268650027E+01 -0.45697553486E+01  0.49116659939E+02  0.41800000000E+01 0. -1.
         -5    1    3    3    0  502  0.32730135824E+02 -0.14013874560E+03 -0.52380291194E+02  0.15320345007E+03  0.41800000000E+01 0. -1.
        -11    1    4    4    0    0  0.37931971877E+02  0.60685641169E+02  0.70118696968E+02  0.10019088381E+03  0.00000000000E+00 0. -1.
         11    1    4    4    0    0 -0.22522337002E+02  0.86979969430E+02  0.34923254907E+01  0.89916445011E+02  0.00000000000E+00 0.  1.
</event>
<event>
 8    1  0.7232317E-009  0.1260337E+03  0.7561462E-02  0.1233463E+00
         -1   -1    0    0    0  501 -0.00000000000E+00  0.00000000000E+00  0.23074571251E+02  0.23074571251E+02  0.00000000000E+00 0.  1.
          1   -1    0    0  501    0  0.00000000000E+00 -0.00000000000E+00 -0.13336657149E+04  0.13336657149E+04  0.00000000000E+00 0. -1.
         25    2    1    2    0    0  0.92455965415E+02 -0.44776687317E+02 -0.10456970719E+04  0.10581506547E+04  0.12508950576E+03 0.  0.
         23    2    1    2    0    0 -0.92455965415E+02  0.44776687317E+02 -0.26489407168E+03  0.29858963145E+03  0.91835949006E+02 0.  0.
          5    1    3    3  502    0  0.44109808773E+01 -0.59641110298E+02 -0.23443660270E+03  0.24198039565E+03  0.41800000000E+01 0. -1.
         -5    1    3    3    0  502  0.88044984538E+02  0.14864422981E+02 -0.81126046924E+03  0.81617025903E+03  0.41800000000E+01 0. -1.
        -11    1    4    4    0    0 -0.31014536423E+02  0.15218027907E+02 -0.20483507544E+03  0.20772794221E+03  0.00000000000E+00 0. -1.
         11    1    4    4    0    0 -0.61441428992E+02  0.29558659410E+02 -0.60058996240E+02  0.90861689243E+02  0.00000000000E+00 0.  1.
</event>
<event>
 8    1  0.7232317E-009  0.1024946E+03  0.7561462E-02  0.1275136E+00
         -1   -1    0    0    0  501 -0.00000000000E+00  0.00000000000E+00  0.22421207434E+02  0.22421207434E+02  0.00000000000E+00 0.  1.
          1   -1    0    0  501    0  0.00000000000E+00 -0.00000000000E+00 -0.85037850043E+03  0.85037850043E+03  0.00000000000E+00 0. -1.
         25    2    1    2    0    0 -0.19588472869E+02  0.49905356850E+02 -0.66597888558E+03  0.67974180249E+03  0.12508712605E+03 0.  0.
         23    2    1    2    0    0  0.19588472869E+02 -0.49905356850E+02 -0.16197840742E+03  0.19305790537E+03  0.90333257699E+02 0.  0.
          5    1    3    3  502    0  0.50150678229E+02  0.21594589604E+02 -0.18651226781E+03  0.19438548112E+03  0.41800000000E+01 0.  1.
         -5    1    3    3    0  502 -0.69739151098E+02  0.28310767246E+02 -0.47946661776E+03  0.48535632136E+03  0.41800000000E+01 0.  1.
        -11    1    4    4    0    0 -0.16225412158E+02 -0.41648586619E+01  0.39866407436E+01  0.17219272685E+02  0.00000000000E+00 0.  1.
         11    1    4    4    0    0  0.35813885027E+02 -0.45740498188E+02 -0.16596504816E+03  0.17583863269E+03  0.00000000000E+00 0. -1.
</event>
<event>
 8    1  0.7232317E-009  0.1267373E+03  0.7561462E-02  0.1232379E+00
          3   -1    0    0  501    0  0.00000000000E+00  0.00000000000E+00  0.36444003719E+02  0.36444003719E+02  0.00000000000E+00 0. -1.
         -3   -1    0    0    0  501 -0.00000000000E+00 -0.00000000000E+00 -0.58370762348E+03  0.58370762348E+03  0.00000000000E+00 0.  1.
         25    2    1    2    0    0 -0.85313925723E+02  0.45755687053E+02 -0.31700312597E+03  0.35428011572E+03  0.12510543434E+03 0.  0.
         23    2    1    2    0    0  0.85313925723E+02 -0.45755687053E+02 -0.23026049379E+03  0.26587151148E+03  0.91080825613E+02 0.  0.
          5    1    3    3  502    0 -0.70082619513E+02 -0.30929983365E+02 -0.12164687841E+03  0.14381819376E+03  0.41800000000E+01 0. -1.
         -5    1    3    3    0  502 -0.15231306210E+02  0.76685670418E+02 -0.19535624756E+03  0.21046192196E+03  0.41800000000E+01 0. -1.
        -11    1    4    4    0    0  0.30217641081E+02 -0.26208233964E+02 -0.19172307323E+03  0.19585125522E+03  0.00000000000E+00 0.  1.
         11    1    4    4    0    0  0.55096284642E+02 -0.19547453089E+02 -0.38537420560E+02  0.70020256262E+02  0.00000000000E+00 0. -1.
</event>
<event>
 8    1  0.7232317E-009  0.9600319E+02  0.7561462E-02  0.1288932E+00
          2   -1    0    0  501    0  0.00000000000E+00  0.00000000000E+00  0.82063695707E+02  0.82063695707E+02  0.00000000000E+00 0. -1.
         -2   -1    0    0    0  501 -0.00000000000E+00 -0.00000000000E+00 -0.21099813976E+03  0.21099813976E+03  0.00000000000E+00 0.  1.
         25    2    1    2    0    0  0.15335135699E+02 -0.29830919231E+02  0.47633241647E+01  0.12959680284E+03  0.12509033504E+03 0.  0.
         23    2    1    2    0    0 -0.15335135699E+02  0.29830919231E+02 -0.13369776821E+03  0.16346503262E+03  0.87867363311E+02 0.  0.
          5    1    3    3  502    0  0.46292562637E+02  0.17044215650E+02 -0.35013854864E+02  0.60637851834E+02  0.41800000000E+01 0. -1.
         -5    1    3    3    0  502 -0.30957426938E+02 -0.46875134881E+02  0.39777179029E+02  0.68958951009E+02  0.41800000000E+01 0. -1.
        -11    1    4    4    0    0  0.32509709399E+02  0.16733247298E+02 -0.90794723987E+02  0.97880358981E+02  0.00000000000E+00 0.  1.
         11    1    4    4    0    0 -0.47844845098E+02  0.13097671933E+02 -0.42903044228E+02  0.65584673641E+02  0.00000000000E+00 0. -1.
</event>
<event>
 8    1  0.7232317E-009  0.1365102E+03  0.7561462E-02  0.1218103E+00
          1   -1    0    0  501    0  0.00000000000E+00  0.00000000000E+00  0.75716980482E+03  0.75716980482E+03  0.00000000000E+00 0. -1.
         -1   -1    0    0    0  501 -0.00000000000E+00 -0.00000000000E+00 -0.29418869594E+02  0.29418869594E+02  0.00000000000E+00 0.  1.
         25    2    1    2    0    0  0.99126400012E+02 -0.73623337579E+01  0.33981379565E+03  0.37550041443E+03  0.12508756287E+03 0.  0.
         23    2    1    2    0    0 -0.99126400012E+02  0.73623337579E+01  0.38793713957E+03  0.41108825998E+03  0.92833647438E+02 0.  0.
          5    1    3    3  502    0  0.72008663579E+02  0.41039849076E+02  0.10317462291E+03  0.13240842894E+03  0.41800000000E+01 0. -1.
         -5    1    3    3    0  502  0.27117736432E+02 -0.48402182834E+02  0.23663917274E+03  0.24309198549E+03  0.41800000000E+01 0. -1.
        -11    1    4    4    0    0  0.89714564093E+01 -0.20830572492E+02  0.44631282033E+02  0.50063470878E+02  0.00000000000E+00 0.  1.
         11    1    4    4    0    0 -0.10809785642E+03  0.28192906250E+02  0.34330585753E+03  0.36102478910E+03  0.00000000000E+00 0. -1.
</event>
<event>
 8    1  0.7232317E-009  0.1778678E+03  0.7561462E-02  0.1169883E+00
         -4   -1    0    0    0  501 -0.00000000000E+00  0.00000000000E+00  0.10628942072E+03  0.10628942072E+03  0.00000000000E+00 0.  1.
          4   -1    0    0  501    0  0.00000000000E+00 -0.00000000000E+00 -0.64019204771E+03  0.64019204771E+03  0.00000000000E+00 0. -1.
         25    2    1    2    0    0  0.98053516783E+02  0.12026538519E+03 -0.18000576700E+02  0.20012504460E+03  0.12509099763E+03 0.  0.
         23    2    1    2    0    0 -0.98053516783E+02 -0.12026538519E+03 -0.51590205030E+03  0.54635642382E+03  0.90951422894E+02 0.  0.
          5    1    3    3  502    0  0.13425668176E+02  0.10440355366E+03 -0.37360471767E+02  0.11177489805E+03  0.41800000000E+01 0.  1.
         -5    1    3    3    0  502  0.84627848607E+02  0.15861831525E+02  0.19359895067E+02  0.88350146555E+02  0.41800000000E+01 0.  1.
        -11    1    4    4    0    0 -0.62149012591E+01 -0.45054088833E+02 -0.26396478964E+03  0.26785426278E+03  0.00000000000E+00 0. -1.
         11    1    4    4    0    0 -0.91838615524E+02 -0.75211296355E+02 -0.25193726065E+03  0.27850216104E+03  0.00000000000E+00 0.  1.
</event>
<event>
 8    1  0.7232317E-009  0.8988206E+02  0.7561462E-02  0.1303138E+00
         -1   -1    0    0    0  501 -0.00000000000E+00  0.00000000000E+00  0.18695626915E+03  0.18695626915E+03  0.00000000000E+00 0.  1.
          1   -1    0    0  501    0  0.00000000000E+00 -0.00000000000E+00 -0.71033568832E+02  0.71033568832E+02  0.00000000000E+00 0. -1.
         25    2    1    2    0    0 -0.14126253778E+02  0.17382678270E+02  0.30052525799E+02  0.13058206441E+03  0.12508722032E+03 0.  0.
         23    2    1    2    0    0  0.14126253778E+02 -0.17382678270E+02  0.85870174518E+02  0.12740777358E+03  0.91418517523E+02 0.  0.
          5    1    3    3  502    0  0.43352102786E+02 -0.20328336550E+02 -0.12451451553E+02  0.49650348726E+02  0.41800000000E+01 0.  1.
         -5    1    3    3    0  502 -0.57478356564E+02  0.37711014821E+02  0.42503977352E+02  0.80931715679E+02  0.41800000000E+01 0.  1.
        -11    1    4    4    0    0  0.27625892634E+01  0.21829106357E+02  0.83679338565E+02  0.86523831899E+02  0.00000000000E+00 0.  1.
         11    1    4    4    0    0  0.11363664515E+02 -0.39211784627E+02  0.21908359528E+01  0.40883941677E+02  0.00000000000E+00 0. -1.
</event>
<event>
 8    1  0.7232317E-009  0.1813340E+03  0.7561462E-02  0.1166518E+00
         -2   -1    0    0    0  501 -0.00000000000E+00  0.00000000000E+00  0.24290796156E+02  0.24290796156E+02  0.00000000000E+00 0. -1.
          2   -1    0    0  501    0  0.00000000000E+00 -0.00000000000E+00 -0.14693623973E+04  0.14693623973E+04  0.00000000000E+00 0.  1.
         25    2    1    2    0    0 -0.12832912255E+03 -0.80975247516E+02 -0.87746892035E+03  0.89923658933E+03  0.12509749399E+03 0.  0.
         23    2    1    2    0    0  0.12832912255E+03  0.80975247516E+02 -0.56760268082E+03  0.59441660415E+03  0.90182823283E+02 0.  0.
          5    1    3    3  502    0  0.76872788089E+01 -0.54499971398E+02 -0.32408438430E+03  0.32875142841E+03  0.41800000000E+01 0.  1.
         -5    1    3    3    0  502 -0.13601640136E+03 -0.26475276118E+02 -0.55338453606E+03  0.57048516092E+03  0.41800000000E+01 0.  1.
        -11    1    4    4    0    0  0.50544676801E+02 -0.74260530932E+01 -0.26157185455E+03  0.26651406287E+03  0.00000000000E+00 0.  1.
         11    1    4    4    0    0  0.77784445745E+02  0.88401300609E+02 -0.30603082627E+03  0.32790254128E+03  0.00000000000E+00 0. -1.
</event>
<event>
 8    1  0.7232317E-009  0.1289164E+03  0.7561462E-02  0.1229073E+00
         -4   -1    0    0    0  501 -0.00000000000E+00  0.00000000000E+00  0.35632761044E+02  0.35632761044E+02  0.00000000000E+00 0.  1.
          4   -1    0    0  501    0  0.00000000000E+00 -0.00000000000E+00 -0.74813601657E+03  0.74813601657E+03  0.00000000000E+00 0. -1.
         25    2    1    2    0    0  0.98322116516E+02  0.56991083344E+01 -0.55091687510E+03  0.57346024735E+03  0.12509010189E+03 0.  0.
         23    2    1    2    0    0 -0.98322116516E+02 -0.56991083344E+01 -0.16158638042E+03  0.21030853026E+03  0.91759474330E+02 0.  0.
          5    1    3    3  502    0 -0.24191785887E+01  0.47980357999E+02 -0.20885364805E+03  0.21434851500E+03  0.41800000000E+01 0.  1.
         -5    1    3    3    0  502  0.10074129510E+03 -0.42281249665E+02 -0.34206322705E+03  0.35911173235E+03  0.41800000000E+01 0.  1.
        -11    1    4    4    0    0 -0.64914762692E+02  0.52323081867E+01 -0.25805437137E+02  0.70051581353E+02  0.00000000000E+00 0.  1.
         11    1    4    4    0    0 -0.33407353824E+02 -0.10931416521E+02 -0.13578094328E+03  0.14025694890E+03  0.00000000000E+00 0. -1.
</event>
<event>
 8    1  0.7232317E-009  0.9957837E+02  0.7561462E-02  0.1281185E+00
          3   -1    0    0  501    0  0.00000000000E+00  0.00000000000E+00  0.17424045131E+03  0.17424045131E+03  0.00000000000E+00 0. -1.
         -3   -1    0    0    0  501 -0.00000000000E+00 -0.00000000000E+00 -0.77071167593E+02  0.77071167593E+02  0.00000000000E+00 0.  1.
         25    2    1    2    0    0  0.29329338739E+02  0.18595221431E+02  0.77182577097E+02  0.15103097702E+03  0.12508882221E+03 0.  0.
         23    2    1    2    0    0 -0.29329338739E+02 -0.18595221431E+02  0.19986706617E+02  0.10028064188E+03  0.91927940929E+02 0.  0.
          5    1    3    3  502    0  0.56805288373E+02 -0.31451161105E+02  0.15516671849E+02  0.66889878362E+02  0.41800000000E+01 0. -1.
         -5    1    3    3    0  502 -0.27475949634E+02  0.50046382535E+02  0.61665905248E+02  0.84141098657E+02  0.41800000000E+01 0. -1.
        -11    1    4    4    0    0 -0.49045299994E+02 -0.26331279336E+02 -0.16527732980E+02  0.58068439625E+02  0.00000000000E+00 0.  1.
         11    1    4    4    0    0  0.19715961256E+02  0.77360579049E+01  0.36514439597E+02  0.42212202255E+02  0.00000000000E+00 0. -1.
</event>
<event>
 8    1  0.7232317E-009  0.1045677E+03  0.7561462E-02  0.1270974E+00
          4   -1    0    0  501    0  0.00000000000E+00  0.00000000000E+00  0.95296324563E+03  0.95296324563E+03  0.00000000000E+00 0. -1.
         -4   -1    0    0    0  501 -0.00000000000E+00 -0.00000000000E+00 -0.12386712987E+02  0.12386712987E+02  0.00000000000E+00 0.  1.
         25    2    1    2    0    0 -0.13274744576E+02 -0.64702167805E+01  0.60428365077E+03  0.61727276344E+03  0.12509536902E+03 0.  0.
         23    2    1    2    0    0  0.13274744576E+02  0.64702167805E+01  0.33629288188E+03  0.34807719518E+03  0.88581876556E+02 0.  0.
          5    1    3    3  502    0  0.56090943670E+02 -0.48067146077E+01  0.27209953057E+03  0.27789373042E+03  0.41800000000E+01 0.  1.
         -5    1    3    3    0  502 -0.69365688246E+02 -0.16635021729E+01  0.33218412019E+03  0.33937903302E+03  0.41800000000E+01 0.  1.
        -11    1    4    4    0    0 -0.15853809092E+02 -0.31530689239E+02  0.81326207300E+02  0.88653706185E+02  0.00000000000E+00 0.  1.
         11    1    4    4    0    0  0.29128553668E+02  0.38000906019E+02  0.25496667458E+03  0.25942348900E+03  0.00000000000E+00 0. -1.
</event>
<event>
 8    1  0.7232317E-009  0.1043312E+03  0.7561462E-02  0.1271443E+00
          2   -1    0    0  501    0  0.00000000000E+00  0.00000000000E+00  0.23526341076E+03  0.23526341076E+03  0.00000000000E+00 0. -1.
         -2   -1    0    0    0  501 -0.00000000000E+00 -0.00000000000E+00 -0.61549779718E+02  0.61549779718E+02  0.00000000000E+00 0.  1.
         25    2    1    2    0    0 -0.18920560045E+02  0.35177851346E+02  0.56441602768E+02  0.14292767007E+03  0.12508875062E+03 0.  0.
         23    2    1    2    0    0  0.18920560045E+02 -0.35177851346E+02  0.11727202828E+03  0.15388552041E+03  0.91282834955E+02 0.  0.
          5    1    3    3  502    0 -0.63885397598E+02 -0.56763041311E+01  0.73194535599E+01  0.64688571288E+02  0.41800000000E+01 0.  1.
         -5    1    3    3    0  502  0.44964837553E+02  0.40854155477E+02  0.49122149209E+02  0.78239098786E+02  0.41800000000E+01 0.  1.
        -11    1    4    4    0    0  0.40593808245E+02 -0.44203804979E+02  0.37587228500E+02  0.70814076205E+02  0.00000000000E+00 0.  1.
         11    1    4    4    0    0 -0.21673248200E+02  0.90259536328E+01  0.79684799776E+02  0.83071444203E+02  0.00000000000E+00 0. -1.
</event>
<event>
 8    1  0.7232317E-009  0.1246593E+03  0.7561462E-02  0.1235603E+00
         -1   -1    0    0    0  501 -0.00000000000E+00  0.00000000000E+00  0.12715385158E+02  0.12715385158E+02  0.00000000000E+00 0.  1.
          1   -1    0    0  501    0  0.00000000000E+00 -0.00000000000E+00 -0.12271377929E+04  0.12271377929E+04  0.00000000000E+00 0. -1.
         25    2    1    2    0    0  0.30282018509E+02  0.54230095815E+02 -0.67581065940E+03  0.69009103154E+03  0.12509068912E+03 0.  0.
         23    2    1    2    0    0 -0.30282018509E+02 -0.54230095815E+02 -0.53861174836E+03  0.54976214654E+03  0.90982956443E+02 0.  0.
          5    1    3    3  502    0  0.55844091224E+02 -0.20877358942E+02 -0.26307336231E+03  0.26977674659E+03  0.41800000000E+01 0.  1.
         -5    1    3    3    0  502 -0.25562072715E+02  0.75107454757E+02 -0.41273729709E+03  0.42031428495E+03  0.41800000000E+01 0.  1.
        -11    1    4    4    0    0  0.32474045935E+02 -0.24404256353E+02 -0.20737163170E+03  0.21131286052E+03  0.00000000000E+00 0.  1.
         11    1    4    4    0    0 -0.62756064443E+02 -0.29825839462E+02 -0.33124011665E+03  0.33844928602E+03  0.00000000000E+00 0. -1.
</event>
<event>
 8    1  0.7232317E-009  0.1448243E+03  0.7561462E-02  0.1206981E+00
         -3   -1    0    0    0  501 -0.00000000000E+00  0.00000000000E+00  0.91022822208E+03  0.91022822208E+03  0.00000000000E+00 0.  1.
          3   -1    0    0  501    0  0.00000000000E+00 -0.00000000000E+00 -0.30391369991E+02  0.30391369991E+02  0.00000000000E+00 0. -1.
         25    2    1    2    0    0  0.97122218874E+02 -0.78120169462E+02  0.54345843979E+03  0.57142872565E+03  0.12509287128E+03 0.  0.
         23    2    1    2    0    0 -0.97122218874E+02  0.78120169462E+02  0.33637841230E+03  0.36919086642E+03  0.87269544007E+02 0.  0.
          5    1    3    3  502    0  0.40022430641E+02 -0.80411274773E+02  0.15849845481E+03  0.18222788107E+03  0.41800000000E+01 0.  1.
         -5    1    3    3    0  502  0.57099788233E+02  0.22911053111E+01  0.38495998498E+03  0.38920084458E+03  0.41800000000E+01 0.  1.
        -11    1    4    4    0    0 -0.10810490110E+03  0.71436372378E+02  0.33061768123E+03  0.35510262753E+03  0.00000000000E+00 0.  1.
         11    1    4    4    0    0  0.10982682231E+02  0.66837970847E+01  0.57607310731E+01  0.14088238887E+02  0.00000000000E+00 0. -1.
</event>
<event>
 8    1  0.7232317E-009  0.1156911E+03  0.7561462E-02  0.1250380E+00
         -1   -1    0    0    0  501 -0.00000000000E+00  0.00000000000E+00  0.86582633352E+02  0.86582633352E+02  0.00000000000E+00 0.  1.
          1   -1    0    0  501    0  0.00000000000E+00 -0.00000000000E+00 -0.21571035549E+03  0.21571035549E+03  0.00000000000E+00 0. -1.
         25    2    1    2    0    0  0.79697838943E+02  0.10546630374E+02 -0.98101202588E+02  0.17815010271E+03  0.12510250279E+03 0.  0.
         23    2    1    2    0    0 -0.79697838943E+02 -0.10546630374E+02 -0.31026519547E+02  0.12414288612E+03  0.89363495431E+02 0.  0.
          5    1    3    3  502    0 -0.22970949575E+02 -0.30195179106E+02 -0.25481459997E+02  0.45893251892E+02  0.41800000000E+01 0.  1.
         -5    1    3    3    0  502  0.10266878852E+03  0.40741809480E+02 -0.72619742590E+02  0.13225685082E+03  0.41800000000E+01 0.  1.
        -11    1    4    4    0    0 -0.95838051747E+01 -0.80538322960E+01  0.29142335006E+02  0.31717333209E+02  0.00000000000E+00 0.  1.
         11    1    4    4    0    0 -0.70114033768E+02 -0.24927980781E+01 -0.60168854553E+02  0.92425552915E+02  0.00000000000E+00 0. -1.
</event>
<event>
 8    1  0.7232317E-009  0.1006028E+03  0.7561462E-02  0.1279033E+00
         -2   -1    0    0    0  501 -0.00000000000E+00  0.00000000000E+00  0.27852583132E+02  0.27852583132E+02  0.00000000000E+00 0.  1.
          2   -1    0    0  501    0  0.00000000000E+00 -0.00000000000E+00 -0.50161162104E+03  0.50161162104E+03  0.00000000000E+00 0. -1.
         25    2    1    2    0    0  0.28395940216E+02 -0.29748834496E+02 -0.31920383391E+03  0.34529541092E+03  0.12508601298E+03 0.  0.
         23    2    1    2    0    0 -0.28395940216E+02  0.29748834496E+02 -0.15455520400E+03  0.18416879325E+03  0.91320921761E+02 0.  0.
          5    1    3    3  502    0  0.63320967595E+02  0.20714211198E+02 -0.20478020738E+03  0.21538576837E+03  0.41800000000E+01 0. -1.
         -5    1    3    3    0  502 -0.34925027379E+02 -0.50463045694E+02 -0.11442362653E+03  0.12990964255E+03  0.41800000000E+01 0. -1.
        -11    1    4    4    0    0 -0.36531013304E+02  0.43596756624E+02 -0.15784005280E+03  0.16777566686E+03  0.00000000000E+00 0. -1.
         11    1    4    4    0    0  0.81350730878E+01 -0.13847922128E+02  0.32848488037E+01  0.16393126397E+02  0.00000000000E+00 0.  1.
</event>
<event>
 8    1  0.7232317E-009  0.1294896E+03  0.7561462E-02  0.1228215E+00
         -3   -1    0    0    0  501 -0.00000000000E+00  0.00000000000E+00  0.67955354390E+02  0.67955354390E+02  0.00000000000E+00 0.  1.
          3   -1    0    0  501    0  0.00000000000E+00 -0.00000000000E+00 -0.31537192331E+03  0.31537192331E+03  0.00000000000E+00 0. -1.
         25    2    1    2    0    0 -0.82491082132E+01  0.96857524237E+02 -0.15183027211E+03  0.21944463110E+03  0.12511629311E+03 0.  0.
         23    2    1    2    0    0  0.82491082132E+01 -0.96857524237E+02 -0.95586296806E+02  0.16388264660E+03  0.90946984176E+02 0.  0.
          5    1    3    3  502    0  0.91365341446E+01  0.11189867812E+03 -0.15928307601E+03  0.19491885780E+03  0.41800000000E+01 0.  1.
         -5    1    3    3    0  502 -0.17385642358E+02 -0.15041153879E+02  0.74528039025E+01  0.24525773305E+02  0.41800000000E+01 0.  1.
        -11    1    4    4    0    0 -0.28847841367E+02 -0.74645547104E+02 -0.89759281175E+02  0.12025341663E+03  0.00000000000E+00 0.  1.
         11    1    4    4    0    0  0.37096949581E+02 -0.22211977133E+02 -0.58270156313E+01  0.43629229967E+02  0.00000000000E+00 0. -1.
</event>
<event>
 8    1  0.7232317E-009  0.1066389E+03  0.7561462E-02  0.1266924E+00
         -1   -1    0    0    0  501 -0.00000000000E+00  0.00000000000E+00  0.20484768020E+02  0.20484768020E+02  0.00000000000E+00 0.  1.
          1   -1    0    0  501    0  0.00000000000E+00 -0.00000000000E+00 -0.12632136667E+04  0.12632136667E+04  0.00000000000E+00 0. -1.
         25    2    1    2    0    0 -0.14283377581E+02  0.97766236733E+02 -0.93219764187E+03  0.94572833263E+03  0.12508950274E+03 0.  0.
         23    2    1    2    0    0  0.14283377581E+02 -0.97766236733E+02 -0.31053125679E+03  0.33797010208E+03  0.89620737199E+02 0.  0.
          5    1    3    3  502    0 -0.24553349374E+02  0.33192933641E+02 -0.72491355199E+02  0.83529077498E+02  0.41800000000E+01 0. -1.
         -5    1    3    3    0  502  0.10269971793E+02  0.64573303093E+02 -0.85970628668E+03  0.86219925513E+03  0.41800000000E+01 0. -1.
        -11    1    4    4    0    0 -0.13277115095E+02 -0.42131265612E+02 -0.23988537844E+03  0.24391867522E+03  0.00000000000E+00 0. -1.
         11    1    4    4    0    0  0.27560492676E+02 -0.55634971121E+02 -0.70645878351E+02  0.94051426869E+02  0.00000000000E+00 0.  1.
</event>
<event>
 8    1  0.7232317E-009  0.1057867E+03  0.7561462E-02  0.1268577E+00
         -2   -1    0    0    0  501 -0.00000000000E+00  0.00000000000E+00  0.25347794505E+03  0.25347794505E+03  0.00000000000E+00 0. -1.
          2   -1    0    0  501    0  0.00000000000E+00 -0.00000000000E+00 -0.82720373422E+02  0.82720373422E+02  0.00000000000E+00 0.  1.
         25    2    1    2    0    0  0.21215957526E+02  0.85467492064E+02  0.13305664901E+03  0.20274844566E+03  0.12509217129E+03 0.  0.
         23    2    1    2    0    0 -0.21215957526E+02 -0.85467492064E+02  0.37700922616E+02  0.13344987281E+03  0.92912323903E+02 0.  0.
          5    1    3    3  502    0  0.39657466266E+01  0.12529999043E+02  0.12666184233E+03  0.12741044982E+03  0.41800000000E+01 0.  1.
         -5    1    3    3    0  502  0.17250210899E+02  0.72937493022E+02  0.63948066817E+01  0.75337995838E+02  0.41800000000E+01 0.  1.
        -11    1    4    4    0    0  0.19262028670E+02 -0.79500332414E+02  0.42623581180E+02  0.92239353179E+02  0.00000000000E+00 0. -1.
         11    1    4    4    0    0 -0.40477986196E+02 -0.59671596507E+01 -0.49226585642E+01  0.41210519629E+02  0.00000000000E+00 0.  1.
</event>
<event>
 8    1  0.7232317E-009  0.1099996E+03  0.7561462E-02  0.1260571E+00
          2   -1    0    0  501    0  0.00000000000E+00  0.00000000000E+00  0.13044558790E+03  0.13044558790E+03  0.00000000000E+00 0. -1.
         -2   -1    0    0    0  501 -0.00000000000E+00 -0.00000000000E+00 -0.23612628410E+03  0.23612628410E+03  0.00000000000E+00 0.  1.
         25    2    1    2    0    0  0.39771977611E+02  0.35604941150E+02  0.77897566436E+02  0.15673312163E+03  0.12509084108E+03 0.  0.
         23    2    1    2    0    0 -0.39771977611E+02 -0.35604941150E+02 -0.18357826263E+03  0.20983875037E+03  0.86497402325E+02 0.  0.
          5    1    3    3  502    0  0.65628284750E+02  0.55304431528E+02  0.17020279976E+02  0.87594601639E+02  0.41800000000E+01 0.  1.
         -5    1    3    3    0  502 -0.25856307139E+02 -0.19699490378E+02  0.60877286460E+02  0.69138519992E+02  0.41800000000E+01 0.  1.
        -11    1    4    4    0    0 -0.15745292375E+02  0.28655051152E+02 -0.51422338029E+02  0.60936713374E+02  0.00000000000E+00 0. -1.
         11    1    4    4    0    0 -0.24026685235E+02 -0.64259992302E+02 -0.13215592460E+03  0.14890203700E+03  0.00000000000E+00 0.  1.
</event>
<event>
 8    1  0.7232317E-009  0.1412241E+03  0.7561462E-02  0.1211691E+00
          2   -1    0    0  501    0  0.00000000000E+00  0.00000000000E+00  0.46733165538E+02  0.46733165538E+02  0.00000000000E+00 0. -1.
         -2   -1    0    0    0  501 -0.00000000000E+00 -0.00000000000E+00 -0.51862055570E+03  0.51862055570E+03  0.00000000000E+00 0.  1.
         25    2    1    2    0    0  0.33802329740E+02  0.99958684316E+02 -0.36074851369E+03  0.39613471831E+03  0.12509551895E+03 0.  0.
         23    2    1    2    0    0 -0.33802329740E+02 -0.99958684316E+02 -0.11113887648E+03  0.16921900293E+03  0.71755731623E+02 0.  0.
          5    1    3    3  502    0  0.76060937264E+02  0.62674780730E+02 -0.16352003716E+03  0.19097033610E+03  0.41800000000E+01 0. -1.
         -5    1    3    3    0  502 -0.42258607524E+02  0.37283903586E+02 -0.19722847653E+03  0.20516438222E+03  0.41800000000E+01 0. -1.
        -11    1    4    4    0    0 -0.53961647464E+01 -0.98712472497E+02 -0.91097404074E+02  0.13443216821E+03  0.00000000000E+00 0.  1.
         11    1    4    4    0    0 -0.28406164994E+02 -0.12462118187E+01 -0.20041472403E+02  0.34786834717E+02  0.00000000000E+00 0. -1.
</event>
<event>
 8    1  0.7232317E-009  0.1551499E+03  0.7561462E-02  0.1194284E+00
         -2   -1    0    0    0  501 -0.00000000000E+00  0.00000000000E+00  0.15398855336E+03  0.15398855336E+03  0.00000000000E+00 0.  1.
          2   -1    0    0  501    0  0.00000000000E+00 -0.00000000000E+00 -0.17005480160E+03  0.17005480160E+03  0.00000000000E+00 0. -1.
         25    2    1    2    0    0 -0.11323972848E+03 -0.10161417205E+02  0.32790396624E+02  0.17217744682E+03  0.12507346872E+03 0.  0.
         23    2    1    2    0    0  0.11323972848E+03  0.10161417205E+02 -0.48856644861E+02  0.15186590814E+03  0.88032901818E+02 0.  0.
          5    1    3    3  502    0  0.17302263550E+02  0.26942268561E+02 -0.82271665495E+00  0.32301755709E+02  0.41800000000E+01 0.  1.
         -5    1    3    3    0  502 -0.13054199203E+03 -0.37103685766E+02  0.33613113278E+02  0.13987569111E+03  0.41800000000E+01 0.  1.
        -11    1    4    4    0    0  0.41945988275E+02  0.46154402914E+02 -0.32563013008E+02  0.70356553760E+02  0.00000000000E+00 0. -1.
         11    1    4    4    0    0  0.71293740203E+02 -0.35992985710E+02 -0.16293631853E+02  0.81509354380E+02  0.00000000000E+00 0.  1.
</event>
<event>
 8    1  0.7232317E-009  0.9502829E+02  0.7561462E-02  0.1291112E+00
         -1   -1    0    0    0  501 -0.00000000000E+00  0.00000000000E+00  0.28040613001E+02  0.28040613001E+02  0.00000000000E+00 0.  1.
          1   -1    0    0  501    0  0.00000000000E+00 -0.00000000000E+00 -0.57517900359E+03  0.57517900359E+03  0.00000000000E+00 0. -1.
         25    2    1    2    0    0  0.40560155362E+02 -0.15129868100E+02 -0.42472262004E+03  0.44486081344E+03  0.12505119052E+03 0.  0.
         23    2    1    2    0    0 -0.40560155362E+02  0.15129868100E+02 -0.12241577055E+03  0.15835880315E+03  0.90652360939E+02 0.  0.
          5    1    3    3  502    0  0.46958697350E+02 -0.54898158192E+02 -0.36870179598E+03  0.37573582979E+03  0.41800000000E+01 0. -1.
         -5    1    3    3    0  502 -0.63985419874E+01  0.39768290092E+02 -0.56020824055E+02  0.69124983647E+02  0.41800000000E+01 0. -1.
        -11    1    4    4    0    0 -0.38474359465E+02 -0.19065151430E+02 -0.11575000609E+03  0.12345776705E+03  0.00000000000E+00 0. -1.
         11    1    4    4    0    0 -0.20857958976E+01  0.34195019530E+02 -0.66657644658E+01  0.34901036104E+02  0.00000000000E+00 0.  1.
</event>
<event>
 8    1  0.7232317E-009  0.2064436E+03  0.7561462E-02  0.1144414E+00
          2   -1    0    0  501    0  0.00000000000E+00  0.00000000000E+00  0.19449867977E+04  0.19449867977E+04  0.00000000000E+00 0.  1.
         -2   -1    0    0    0  501 -0.00000000000E+00 -0.00000000000E+00 -0.24944184889E+02  0.24944184889E+02  0.00000000000E+00 0. -1.
         25    2    1    2    0    0  0.13574288274E+03  0.13015691975E+03  0.11420148653E+04  0.11641360288E+04  0.12509111484E+03 0.  0.
         23    2    1    2    0    0 -0.13574288274E+03 -0.13015691975E+03  0.77802774755E+03  0.80579495383E+03  0.92797509029E+02 0.  0.
          5    1    3    3  502    0 -0.36129033870E+01  0.72948006087E+02  0.30398091093E+03  0.31266008903E+03  0.41800000000E+01 0. -1.
         -5    1    3    3    0  502  0.13935578612E+03  0.57208913666E+02  0.83803395436E+03  0.85147593976E+03  0.41800000000E+01 0. -1.
        -11    1    4    4    0    0 -0.56090025018E+02 -0.41013736386E+02  0.13589525142E+03  0.15262941013E+03  0.00000000000E+00 0. -1.
         11    1    4    4    0    0 -0.79652857720E+02 -0.89143183367E+02  0.64213249614E+03  0.65316554370E+03  0.00000000000E+00 0.  1.
</event>
<event>
 8    1  0.7232317E-009  0.9978889E+02  0.7561462E-02  0.1280741E+00
          2   -1    0    0  501    0  0.00000000000E+00  0.00000000000E+00  0.36593066998E+03  0.36593066998E+03  0.00000000000E+00 0.  1.
         -2   -1    0    0    0  501 -0.00000000000E+00 -0.00000000000E+00 -0.31382546471E+02  0.31382546471E+02  0.00000000000E+00 0. -1.
         25    2    1    2    0    0 -0.66204689522E+01 -0.12650740320E+02  0.20254595042E+03  0.23848666966E+03  0.12508859955E+03 0.  0.
         23    2    1    2    0    0  0.66204689522E+01  0.12650740320E+02  0.13200217309E+03  0.15882654679E+03  0.87163217152E+02 0.  0.
          5    1    3    3  502    0 -0.50605027608E+02 -0.47574215647E+02  0.11228253493E+03  0.13209471929E+03  0.41800000000E+01 0.  1.
         -5    1    3    3    0  502  0.43984558656E+02  0.34923475327E+02  0.90263415485E+02  0.10639195037E+03  0.41800000000E+01 0.  1.
        -11    1    4    4    0    0 -0.30906643631E+02  0.18007430883E+02  0.10845367290E+03  0.11420020733E+03  0.00000000000E+00 0.  1.
         11    1    4    4    0    0  0.37527112583E+02 -0.53566905633E+01  0.23548500191E+02  0.44626339463E+02  0.00000000000E+00 0. -1.
</event>
<event>
 8    1  0.7232317E-009  0.2884111E+03  0.7561462E-02  0.1091182E+00
         -1   -1    0    0    0  501 -0.00000000000E+00  0.00000000000E+00  0.13152951371E+04  0.13152951371E+04  0.00000000000E+00 0.  1.
          1   -1    0    0  501    0  0.00000000000E+00 -0.00000000000E+00 -0.96526885071E+02  0.96526885071E+02  0.00000000000E+00 0. -1.
         25    2    1    2    0    0  0.27056655312E+03  0.45718055763E+02  0.10128455028E+04  0.10567876184E+04  0.12509059729E+03 0.  0.
         23    2    1    2    0    0 -0.27056655312E+03 -0.45718055763E+02  0.20592274922E+03  0.35503440378E+03  0.91372035825E+02 0.  0.
          5    1    3    3  502    0  0.28317338368E+03  0.47884794745E+02  0.94780865650E+03  0.99037308149E+03  0.41800000000E+01 0.  1.
         -5    1    3    3    0  502 -0.12606830556E+02 -0.21667389816E+01  0.65036846325E+02  0.66414536921E+02  0.41800000000E+01 0.  1.
        -11    1    4    4    0    0 -0.12606249611E+03 -0.56692339489E+01  0.14747582096E+03  0.19409536549E+03  0.00000000000E+00 0.  1.
         11    1    4    4    0    0 -0.14450405701E+03 -0.40048821814E+02  0.58446928262E+02  0.16093903829E+03  0.00000000000E+00 0. -1.
</event>
<event>
 8    1  0.7232317E-009  0.1170663E+03  0.7561462E-02  0.1248017E+00
          1   -1    0    0  501    0  0.00000000000E+00  0.00000000000E+00  0.31476130311E+02  0.31476130311E+02  0.00000000000E+00 0. -1.
         -1   -1    0    0    0  501 -0.00000000000E+00 -0.00000000000E+00 -0.63640102377E+03  0.63640102377E+03  0.00000000000E+00 0.  1.
         25    2    1    2    0    0 -0.15825061265E+02  0.49172763575E+02 -0.50032246620E+03  0.51830190778E+03  0.12508358878E+03 0.  0.
         23    2    1    2    0    0  0.15825061265E+02 -0.49172763575E+02 -0.10460242726E+03  0.14957524630E+03  0.93609258493E+02 0.  0.
          5    1    3    3  502    0 -0.53591660084E+02 -0.12118427756E+02 -0.13292336761E+03  0.14389237776E+03  0.41800000000E+01 0.  1.
         -5    1    3    3    0  502  0.37766598819E+02  0.61291191331E+02 -0.36739909860E+03  0.37440953002E+03  0.41800000000E+01 0.  1.
        -11    1    4    4    0    0 -0.33648720917E+02 -0.46462701179E+02 -0.55819674842E+02  0.80042833031E+02  0.00000000000E+00 0.  1.
         11    1    4    4    0    0  0.49473782182E+02 -0.27100623962E+01 -0.48782752414E+02  0.69532413267E+02  0.00000000000E+00 0. -1.
</event>
<event>
 7    1  0.7232317E-009  0.6576795E+02  0.7561462E-02  0.1375106E+00
          2   -1    0    0  501    0  0.00000000000E+00  0.00000000000E+00  0.26703786904E+03  0.26703786904E+03  0.00000000000E+00 0. -1.
         -2   -1    0    0    0  501 -0.00000000000E+00 -0.00000000000E+00 -0.54521509456E+02  0.54521509456E+02  0.00000000000E+00 0.  1.
         23    2    1    2    0    0 -0.23906851308E+02  0.39121989150E+02  0.57360318757E+02  0.11710137968E+03  0.91216552125E+02 0.  0.
          5    1    1    2  502    0  0.13636436577E+02  0.12670563396E+02 -0.16246518211E+02  0.25058278737E+02  0.41800000000E+01 0.  1.
         -5    1    1    2    0  502  0.10270414731E+02 -0.51792552546E+02  0.17140255904E+03  0.17939972008E+03  0.41800000000E+01 0.  1.
        -11    1    3    3    0    0 -0.93865613506E+01 -0.66292907416E+01  0.67138917884E+02  0.68115264988E+02  0.00000000000E+00 0. -1.
         11    1    3    3    0    0 -0.14520289957E+02  0.45751279892E+02 -0.97785991270E+01  0.48986114696E+02  0.00000000000E+00 0.  1.
</event>
<event>
 8    1  0.7232317E-009  0.6224545E+02  0.7561462E-02  0.1388643E+00
          2   -1    0    0  501    0  0.00000000000E+00  0.00000000000E+00  0.29690988519E+03  0.29690988519E+03  0.00000000000E+00 0. -1.
         -2   -1    0    0    0  501 -0.00000000000E+00 -0.00000000000E+00 -0.44143476631E+02  0.44143476631E+02  0.00000000000E+00 0.  1.
         25    2    1    2    0    0  0.32318711682E+02 -0.92962273116E+01  0.13409352779E+03  0.18643920087E+03  0.12509029722E+03 0.  0.
         23    2    1    2    0    0 -0.32318711682E+02  0.92962273116E+01  0.11867288077E+03  0.15461416094E+03  0.93227502211E+02 0.  0.
          5    1    3    3  502    0  0.32101084020E+02  0.15303341218E+02  0.15172019145E+03  0.15588829572E+03  0.41800000000E+01 0. -1.
         -5    1    3    3    0  502  0.21762766129E+00 -0.24599568530E+02 -0.17626663664E+02  0.30550905152E+02  0.41800000000E+01 0. -1.
        -11    1    4    4    0    0  0.16573358323E+01 -0.19270233214E+02 -0.75887788812E+01  0.20776867307E+02  0.00000000000E+00 0.  1.
         11    1    4    4    0    0 -0.33976047514E+02  0.28566460526E+02  0.12626165965E+03  0.13383729364E+03  0.00000000000E+00 0. -1.
</event>
<event>
 8    1  0.7232317E-009  0.1051804E+03  0.7561462E-02  0.1269765E+00
         -1   -1    0    0    0  501 -0.00000000000E+00  0.00000000000E+00  0.14029486447E+03  0.14029486447E+03  0.00000000000E+00 0.  1.
          1   -1    0    0  501    0  0.00000000000E+00 -0.00000000000E+00 -0.10489815554E+03  0.10489815554E+03  0.00000000000E+00 0. -1.
         25    2    1    2    0    0 -0.27988149969E+02  0.42076108162E+02  0.40062931304E+02  0.14073634200E+03  0.12509174265E+03 0.  0.
         23    2    1    2    0    0  0.27988149969E+02 -0.42076108162E+02 -0.46662223766E+01  0.10445667800E+03  0.91299991954E+02 0.  0.
          5    1    3    3  502    0 -0.72110099482E+02  0.66077351338E+01  0.23211642880E+01  0.72569889173E+02  0.41800000000E+01 0.  1.
         -5    1    3    3    0  502  0.44121949513E+02  0.35468373028E+02  0.37741767016E+02  0.68166452831E+02  0.41800000000E+01 0.  1.
        -11    1    4    4    0    0 -0.56092982459E+01  0.14341588584E+02  0.27362217191E+02  0.31398030504E+02  0.00000000000E+00 0.  1.
         11    1    4    4    0    0  0.33597448215E+02 -0.56417696746E+02 -0.32028439568E+02  0.73058647495E+02  0.00000000000E+00 0. -1.
</event>
<event>
 8    1  0.7232317E-009  0.1040789E+03  0.7561462E-02  0.1271945E+00
          2   -1    0    0  501    0  0.00000000000E+00  0.00000000000E+00  0.30833686029E+03  0.30833686029E+03  0.00000000000E+00 0. -1.
         -2   -1    0    0    0  501 -0.00000000000E+00 -0.00000000000E+00 -0.54359347780E+02  0.54359347780E+02  0.00000000000E+00 0.  1.
         25    2    1    2    0    0 -0.57032405160E+02  0.35960205879E+02  0.11990821700E+03  0.18589664590E+03  0.12503499833E+03 0.  0.
         23    2    1    2    0    0  0.57032405160E+02 -0.35960205879E+02  0.13406929551E+03  0.17679956217E+03  0.93475545148E+02 0.  0.
          5    1    3    3  502    0  0.26000510100E+02  0.44228941463E+02  0.75222677459E+02  0.91149050420E+02  0.41800000000E+01 0.  1.
         -5    1    3    3    0  502 -0.83032915260E+02 -0.82687355838E+01  0.44685539546E+02  0.94747595480E+02  0.41800000000E+01 0.  1.
        -11    1    4    4    0    0  0.25680137062E+02 -0.34097963445E+00 -0.80926440677E+01  0.26927246325E+02  0.00000000000E+00 0.  1.
         11    1    4    4    0    0  0.31352268097E+02 -0.35619226245E+02  0.14216193957E+03  0.14987231584E+03  0.00000000000E+00 0. -1.
</event>
<event>
 8    1  0.7232317E-009  0.1179220E+03  0.7561462E-02  0.1246565E+00
          4   -1    0    0  501    0  0.00000000000E+00  0.00000000000E+00  0.38353076038E+03  0.38353076038E+03  0.00000000000E+00 0. -1.
         -4   -1    0    0    0  501 -0.00000000000E+00 -0.00000000000E+00 -0.47991188346E+02  0.47991188346E+02  0.00000000000E+00 0.  1.
         25    2    1    2    0    0 -0.23859816765E+02 -0.73561634727E+02  0.21695395787E+03  0.26210137704E+03  0.12508999580E+03 0.  0.
         23    2    1    2    0    0  0.23859816765E+02  0.73561634727E+02  0.11858561416E+03  0.16942057169E+03  0.93060073423E+02 0.  0.
          5    1    3    3  502    0  0.32490507640E+02 -0.11318654829E+02  0.62116987672E+01  0.35210831223E+02  0.41800000000E+01 0. -1.
         -5    1    3    3    0  502 -0.56350324405E+02 -0.62242979897E+02  0.21074225911E+03  0.22689054582E+03  0.41800000000E+01 0. -1.
        -11    1    4    4    0    0  0.30287513228E+02  0.92388305321E+02  0.11233773851E+03  0.14856883896E+03  0.00000000000E+00 0. -1.
         11    1    4    4    0    0 -0.64276964632E+01 -0.18826670594E+02  0.62478756536E+01  0.20851732726E+02  0.00000000000E+00 0.  1.
</event>
<event>
 8    1  0.7232317E-009  0.8706297E+02  0.7561462E-02  0.1310124E+00
         -2   -1    0    0    0  501 -0.00000000000E+00  0.00000000000E+00  0.52927564090E+02  0.52927564090E+02  0.00000000000E+00 0.  1.
          2   -1    0    0  501    0  0.00000000000E+00 -0.00000000000E+00 -0.28179072728E+03  0.28179072728E+03  0.00000000000E+00 0. -1.
         25    2    1    2    0    0 -0.57186770451E+02  0.17942491711E+02 -0.11480438591E+03  0.18005449803E+03  0.12508923020E+03 0.  0.
         23    2    1    2    0    0  0.57186770451E+02 -0.17942491711E+02 -0.11405877729E+03  0.15466379335E+03  0.85552466785E+02 0.  0.
          5    1    3    3  502    0 -0.34509314247E+02 -0.82714035790E+01 -0.13504937389E+03  0.13969650917E+03  0.41800000000E+01 0.  1.
         -5    1    3    3    0  502 -0.22677456204E+02  0.26213895290E+02  0.20244987981E+02  0.40357988856E+02  0.41800000000E+01 0.  1.
        -11    1    4    4    0    0  0.38660378729E+01 -0.43975083181E+02 -0.38372991313E+02  0.58491372458E+02  0.00000000000E+00 0.  1.
         11    1    4    4    0    0  0.53320732578E+02  0.26032591471E+02 -0.75685785975E+02  0.96172420891E+02  0.00000000000E+00 0. -1.
</event>
<event>
 8    1  0.7232317E-009  0.1065234E+03  0.7561462E-02  0.1267147E+00
         -1   -1    0    0    0  501 -0.00000000000E+00  0.00000000000E+00  0.21640538939E+03  0.21640538939E+03  0.00000000000E+00 0.  1.
          1   -1    0    0  501    0  0.00000000000E+00 -0.00000000000E+00 -0.64547235385E+02  0.64547235385E+02  0.00000000000E+00 0. -1.
         25    2    1    2    0    0 -0.24463272957E+02 -0.35019454666E+01  0.13154219097E+03  0.18319748817E+03  0.12508899361E+03 0.  0.
         23    2    1    2    0    0  0.24463272957E+02  0.35019454666E+01  0.20315963033E+02  0.97755136600E+02  0.92372144242E+02 0.  0.
          5    1    3    3  502    0  0.50297211329E+02  0.21491680343E+01  0.68743723094E+02  0.85308852152E+02  0.41800000000E+01 0.  1.
         -5    1    3    3    0  502 -0.74760484286E+02 -0.56511135009E+01  0.62798467875E+02  0.97888636020E+02  0.41800000000E+01 0.  1.
        -11    1    4    4    0    0 -0.24489759402E+02 -0.21395515675E+02  0.27212322444E+02  0.42403147281E+02  0.00000000000E+00 0.  1.
         11    1    4    4    0    0  0.48953032359E+02  0.24897461142E+02 -0.68963594110E+01  0.55351989319E+02  0.00000000000E+00 0. -1.
</event>
<event>
 8    1  0.7232317E-009  0.3247920E+03  0.7561462E-02  0.1073465E+00
          2   -1    0    0  501    0  0.00000000000E+00  0.00000000000E+00  0.10124970599E+04  0.10124970599E+04  0.00000000000E+00 0. -1.
         -2   -1    0    0    0  501 -0.00000000000E+00 -0.00000000000E+00 -0.11907191277E+03  0.11907191277E+03  0.00000000000E+00 0.  1.
         25    2    1    2    0    0 -0.30845559775E+03  0.56631320333E+02  0.29066006468E+03  0.44551372844E+03  0.12508895557E+03 0.  0.
         23    2    1    2    0    0  0.30845559775E+03 -0.56631320333E+02  0.60276508242E+03  0.68605524420E+03  0.94837183025E+02 0.  0.
          5    1    3    3  502    0 -0.32040780880E+01  0.28821865673E+02  0.39719128031E+02  0.49356332814E+02  0.41800000000E+01 0. -1.
         -5    1    3    3    0  502 -0.30525151967E+03  0.27809454660E+02  0.25094093665E+03  0.39615739563E+03  0.41800000000E+01 0. -1.
        -11    1    4    4    0    0  0.16025397036E+03 -0.34002021256E+02  0.41238140030E+03  0.44372952547E+03  0.00000000000E+00 0. -1.
         11    1    4    4    0    0  0.14820162739E+03 -0.22629299077E+02  0.19038368212E+03  0.24232571873E+03  0.00000000000E+00 0.  1.
</event>
<event>
 8    1  0.7232317E-009  0.1182480E+03  0.7561462E-02  0.1246016E+00
         -2   -1    0    0    0  501 -0.00000000000E+00  0.00000000000E+00  0.55030833175E+02  0.55030833175E+02  0.00000000000E+00 0.  1.
          2   -1    0    0  501    0  0.00000000000E+00 -0.00000000000E+00 -0.42501419108E+03  0.42501419108E+03  0.00000000000E+00 0. -1.
         25    2    1    2    0    0  0.72993090951E+01  0.52916508268E+02 -0.34669271343E+03  0.37242124924E+03  0.12509321557E+03 0.  0.
         23    2    1    2    0    0 -0.72993090951E+01 -0.52916508268E+02 -0.23290644477E+02  0.10762377502E+03  0.90481965430E+02 0.  0.
          5    1    3    3  502    0  0.63116380884E+02  0.47088053378E+02 -0.22288492066E+03  0.23642360830E+03  0.41800000000E+01 0.  1.
         -5    1    3    3    0  502 -0.55817071788E+02  0.58284548896E+01 -0.12380779277E+03  0.13599764093E+03  0.41800000000E+01 0.  1.
        -11    1    4    4    0    0  0.38500491107E+02 -0.35482102115E+02  0.21630202664E+01  0.52401775186E+02  0.00000000000E+00 0.  1.
         11    1    4    4    0    0 -0.45799800202E+02 -0.17434406153E+02 -0.25453664744E+02  0.55221999831E+02  0.00000000000E+00 0. -1.
</event>
<event>
 8    1  0.7232317E-009  0.1596026E+03  0.7561462E-02  0.1189146E+00
          2   -1    0    0  501    0  0.00000000000E+00  0.00000000000E+00  0.11408987336E+04  0.11408987336E+04  0.00000000000E+00 0.  1.
         -2   -1    0    0    0  501 -0.00000000000E+00 -0.00000000000E+00 -0.35815959533E+02  0.35815959533E+02  0.00000000000E+00 0. -1.
         25    2    1    2    0    0  0.20847971073E+02 -0.14552180399E+03  0.82393693504E+03  0.84624504139E+03  0.12508942330E+03 0.  0.
         23    2    1    2    0    0 -0.20847971073E+02  0.14552180399E+03  0.28114583907E+03  0.33046965179E+03  0.92498511288E+02 0.  0.
          5    1    3    3  502    0  0.12266812761E+02 -0.13036161214E+03  0.81634205645E+03  0.82678682267E+03  0.41800000000E+01 0. -1.
         -5    1    3    3    0  502  0.85811583118E+01 -0.15160191845E+02  0.75948785853E+01  0.19458218713E+02  0.41800000000E+01 0. -1.
        -11    1    4    4    0    0  0.31987635453E+02  0.79714792285E+02  0.17430040872E+03  0.19431492329E+03  0.00000000000E+00 0.  1.
         11    1    4    4    0    0 -0.52835606526E+02  0.65807011704E+02  0.10684543035E+03  0.13615472850E+03  0.00000000000E+00 0. -1.
</event>
<event>
 8    1  0.7232317E-009  0.5785655E+02  0.7561462E-02  0.1407053E+00
         -2   -1    0    0    0  501 -0.00000000000E+00  0.00000000000E+00  0.34749984823E+02  0.34749984823E+02  0.00000000000E+00 0.  1.
          2   -1    0    0  501    0  0.00000000000E+00 -0.00000000000E+00 -0.44609142819E+03  0.44609142819E+03  0.00000000000E+00 0. -1.
         25    2    1    2    0    0  0.44502515765E+02 -0.26727882386E+02 -0.30272285885E+03  0.33163652835E+03  0.12508718583E+03 0.  0.
         23    2    1    2    0    0 -0.44502515765E+02  0.26727882386E+02 -0.10861858452E+03  0.14920488467E+03  0.88143332700E+02 0.  0.
          5    1    3    3  502    0  0.46869545258E+02 -0.13186645636E+02 -0.31116024307E+03  0.31497430239E+03  0.41800000000E+01 0. -1.
         -5    1    3    3    0  502 -0.23670294931E+01 -0.13541236750E+02  0.84373842243E+01  0.16662225958E+02  0.41800000000E+01 0. -1.
        -11    1    4    4    0    0 -0.20374430088E+02  0.78236835061E+01  0.11893886915E+02  0.24855421360E+02  0.00000000000E+00 0.  1.
         11    1    4    4    0    0 -0.24128085677E+02  0.18904198880E+02 -0.12051247143E+03  0.12434946331E+03  0.00000000000E+00 0. -1.
</event>
<event>
 8    1  0.7232317E-009  0.9446654E+02  0.7561462E-02  0.1292382E+00
          2   -1    0    0  501    0  0.00000000000E+00  0.00000000000E+00  0.87627595168E+03  0.87627595168E+03  0.00000000000E+00 0.  1.
         -2   -1    0    0    0  501 -0.00000000000E+00 -0.00000000000E+00 -0.42683420473E+02  0.42683420473E+02  0.00000000000E+00 0. -1.
         25    2    1    2    0    0  0.40421854243E+02 -0.28776972523E+02  0.79676479548E+03  0.80804864729E+03  0.12508571711E+03 0.  0.
         23    2    1    2    0    0 -0.40421854243E+02  0.28776972523E+02  0.36827735724E+02  0.11091072486E+03  0.92102477286E+02 0.  0.
          5    1    3    3  502    0  0.17288405385E+02 -0.53604281473E+02  0.73726181278E+03  0.73942190996E+03  0.41800000000E+01 0.  1.
         -5    1    3    3    0  502  0.23133448858E+02  0.24827308950E+02  0.59502982702E+02  0.68626737327E+02  0.41800000000E+01 0.  1.
        -11    1    4    4    0    0 -0.63537481888E+02  0.37241340891E+02  0.43331959235E+02  0.85449328653E+02  0.00000000000E+00 0.  1.
         11    1    4    4    0    0  0.23115627645E+02 -0.84643683681E+01 -0.65042235109E+01  0.25461396207E+02  0.00000000000E+00 0. -1.
</event>
<event>
 8    1  0.7232317E-009  0.1158820E+03  0.7561462E-02  0.1250049E+00
          1   -1    0    0  501    0  0.00000000000E+00  0.00000000000E+00  0.69179760188E+02  0.69179760188E+02  0.00000000000E+00 0. -1.
         -1   -1    0    0    0  501 -0.00000000000E+00 -0.00000000000E+00 -0.29977824539E+03  0.29977824539E+03  0.00000000000E+00 0.  1.
         25    2    1    2    0    0  0.30810318904E+02 -0.76034503858E+02 -0.18501219617E+03  0.23792150208E+03  0.12508639770E+03 0.  0.
         23    2    1    2    0    0 -0.30810318904E+02  0.76034503858E+02 -0.45586289026E+02  0.13103650350E+03  0.91443610896E+02 0.  0.
          5    1    3    3  502    0  0.55150238383E+02 -0.59391873325E+02 -0.19101614357E+03  0.20754176186E+03  0.41800000000E+01 0. -1.
         -5    1    3    3    0  502 -0.24339919479E+02 -0.16642630533E+02  0.60039473993E+01  0.30379740218E+02  0.41800000000E+01 0. -1.
        -11    1    4    4    0    0 -0.16467564649E+01  0.88925811854E+02 -0.22713795571E+02  0.91795579033E+02  0.00000000000E+00 0.  1.
         11    1    4    4    0    0 -0.29163562439E+02 -0.12891307995E+02 -0.22872493456E+02  0.39240924465E+02  0.00000000000E+00 0. -1.
</event>
<event>
 8    1  0.7232317E-009  0.1448640E+03  0.7561462E-02  0.1206930E+00
         -1   -1    0    0    0  501 -0.00000000000E+00  0.00000000000E+00  0.39994647327E+02  0.39994647327E+02  0.00000000000E+00 0.  1.
          1   -1    0    0  501    0  0.00000000000E+00 -0.00000000000E+00 -0.75560965548E+03  0.75560965548E+03  0.00000000000E+00 0. -1.
         25    2    1    2    0    0  0.92745944915E+02 -0.73338362650E+02 -0.53190484147E+03  0.55906255843E+03  0.12509139911E+03 0.  0.
         23    2    1    2    0    0 -0.92745944915E+02  0.73338362650E+02 -0.18371016669E+03  0.23654174438E+03  0.90676599811E+02 0.  0.
          5    1    3    3  502    0  0.12922810698E+02  0.31195246740E+02 -0.18365105872E+03  0.18677613933E+03  0.41800000000E+01 0.  1.
         -5    1    3    3    0  502  0.79823134217E+02 -0.10453360939E+03 -0.34825378275E+03  0.37228641910E+03  0.41800000000E+01 0.  1.
        -11    1    4    4    0    0 -0.27349641390E+02  0.21325588426E+01  0.16513753930E+01  0.27482316716E+02  0.00000000000E+00 0.  1.
         11    1    4    4    0    0 -0.65396303525E+02  0.71205803807E+02 -0.18536154208E+03  0.20905942766E+03  0.00000000000E+00 0. -1.
</event>
<event>
 8    1  0.7232317E-009  0.1238744E+03  0.7561462E-02  0.1236839E+00
         -1   -1    0    0    0  501 -0.00000000000E+00  0.00000000000E+00  0.27474102030E+02  0.27474102030E+02  0.00000000000E+00 0.  1.
          1   -1    0    0  501    0  0.00000000000E+00 -0.00000000000E+00 -0.74481540389E+03  0.74481540389E+03  0.00000000000E+00 0. -1.
         25    2    1    2    0    0  0.56623210029E+02  0.22276858169E+02 -0.21263729567E+03  0.25407992883E+03  0.12505816406E+03 0.  0.
         23    2    1    2    0    0 -0.56623210029E+02 -0.22276858169E+02 -0.50470400619E+03  0.51820957710E+03  0.10056135244E+03 0.  0.
          5    1    3    3  502    0 -0.33375458859E+02  0.23691541962E+02 -0.11031921362E+03  0.11774129143E+03  0.41800000000E+01 0.  1.
         -5    1    3    3    0  502  0.89998668888E+02 -0.14146837924E+01 -0.10231808205E+03  0.13633863740E+03  0.41800000000E+01 0.  1.
        -11    1    4    4    0    0 -0.81169991532E+02  0.30530202699E+01 -0.31852956024E+03  0.32872324105E+03  0.00000000000E+00 0.  1.
         11    1    4    4    0    0  0.24546781502E+02 -0.25329878439E+02 -0.18617444595E+03  0.18948633604E+03  0.00000000000E+00 0. -1.
</event>
<event>
 8    1  0.7232317E-009  0.1234617E+03  0.7561462E-02  0.1237493E+00
          1   -1    0    0  501    0  0.00000000000E+00  0.00000000000E+00  0.63923334891E+03  0.63923334891E+03  0.00000000000E+00 0. -1.
         -1   -1    0    0    0  501 -0.00000000000E+00 -0.00000000000E+00 -0.39945091440E+02  0.39945091440E+02  0.00000000000E+00 0.  1.
         25    2    1    2    0    0 -0.62945124250E+02  0.75334287502E+02  0.45809710591E+03  0.48491050469E+03  0.12509154876E+03 0.  0.
         23    2    1    2    0    0  0.62945124250E+02 -0.75334287502E+02  0.14119115156E+03  0.19426793566E+03  0.90375583032E+02 0.  0.
          5    1    3    3  502    0 -0.69080134098E+02  0.96728667912E+02  0.26471334998E+03  0.29020532417E+03  0.41800000000E+01 0. -1.
         -5    1    3    3    0  502  0.61350098478E+01 -0.21394380410E+02  0.19338375594E+03  0.19470518051E+03  0.41800000000E+01 0. -1.
        -11    1    4    4    0    0  0.18039731774E+02 -0.51360822272E+02  0.13167244804E+03  0.14248157621E+03  0.00000000000E+00 0. -1.
         11    1    4    4    0    0  0.44905392476E+02 -0.23973465230E+02  0.95187035171E+01  0.51786359451E+02  0.00000000000E+00 0.  1.
</event>
<event>
 8    1  0.7232317E-009  0.8916305E+02  0.7561462E-02  0.1304891E+00
          2   -1    0    0  501    0  0.00000000000E+00  0.00000000000E+00  0.67678291252E+03  0.67678291252E+03  0.00000000000E+00 0. -1.
         -2   -1    0    0    0  501 -0.00000000000E+00 -0.00000000000E+00 -0.87361087024E+02  0.87361087024E+02  0.00000000000E+00 0.  1.
         25    2    1    2    0    0 -0.30763650996E+02  0.18041783705E+02  0.64161858979E+03  0.65467093494E+03  0.12509080747E+03 0.  0.
         23    2    1    2    0    0  0.30763650996E+02 -0.18041783705E+02 -0.52196764290E+02  0.10947306460E+03  0.89375284558E+02 0.  0.
          5    1    3    3  502    0 -0.42167381713E+02  0.51034843635E+02  0.57957373338E+03  0.58335737603E+03  0.41800000000E+01 0.  1.
         -5    1    3    3    0  502  0.11403730717E+02 -0.32993059930E+02  0.62044856404E+02  0.71313558907E+02  0.41800000000E+01 0.  1.
        -11    1    4    4    0    0  0.22454335858E+02 -0.44098200831E+02 -0.62961801568E+02  0.80081439623E+02  0.00000000000E+00 0.  1.
         11    1    4    4    0    0  0.83093151384E+01  0.26056417126E+02  0.10765037278E+02  0.29391624982E+02  0.00000000000E+00 0. -1.
</event>
<event>
 8    1  0.7232317E-009  0.1068655E+03  0.7561462E-02  0.1266487E+00
          3   -1    0    0  501    0  0.00000000000E+00  0.00000000000E+00  0.16645951305E+03  0.16645951305E+03  0.00000000000E+00 0. -1.
         -3   -1    0    0    0  501 -0.00000000000E+00 -0.00000000000E+00 -0.13785288370E+03  0.13785288370E+03  0.00000000000E+00 0.  1.
         25    2    1    2    0    0  0.71270932248E+02  0.57500057498E+02  0.67191106734E+02  0.16899487532E+03  0.12513520953E+03 0.  0.
         23    2    1    2    0    0 -0.71270932248E+02 -0.57500057498E+02 -0.38584477383E+02  0.13531752144E+03  0.91849155238E+02 0.  0.
          5    1    3    3  502    0  0.66723248416E+02  0.67856144714E+02  0.97540302470E+02  0.13633793038E+03  0.41800000000E+01 0. -1.
         -5    1    3    3    0  502  0.45476838314E+01 -0.10356087216E+02 -0.30349195736E+02  0.32656944935E+02  0.41800000000E+01 0. -1.
        -11    1    4    4    0    0  0.67043085250E+00 -0.29042505858E+02 -0.49291209360E+02  0.57214857723E+02  0.00000000000E+00 0.  1.
         11    1    4    4    0    0 -0.71941363100E+02 -0.28457551640E+02  0.10706731977E+02  0.78102663717E+02  0.00000000000E+00 0. -1.
</event>
<event>
 8    1  0.7232317E-009  0.7219690E+02  0.7561462E-02  0.1352778E+00
          2   -1    0    0  501    0  0.00000000000E+00  0.00000000000E+00  0.14947524188E+03  0.14947524188E+03  0.00000000000E+00 0. -1.
         -2   -1    0    0    0  501 -0.00000000000E+00 -0.00000000000E+00 -0.93175276141E+02  0.93175276141E+02  0.00000000000E+00 0.  1.
         25    2    1    2    0    0 -0.10114241076E+02  0.44854615255E+02  0.41343176714E+02  0.13956971894E+03  0.12512479292E+03 0.  0.
         23    2    1    2    0    0  0.10114241076E+02 -0.44854615255E+02  0.14956789021E+02  0.10308079907E+03  0.91036867354E+02 0.  0.
          5    1    3    3  502    0 -0.16544011325E+02 -0.21241314934E+02 -0.31004920677E+02  0.41275601474E+02  0.41800000000E+01 0. -1.
         -5    1    3    3    0  502  0.64297702491E+01  0.66095930188E+02  0.72348097391E+02  0.98294117469E+02  0.41800000000E+01 0. -1.
        -11    1    4    4    0    0 -0.66077546583E+01 -0.14959673588E+02  0.50880193699E+02  0.53443880532E+02  0.00000000000E+00 0. -1.
         11    1    4    4    0    0  0.16721995734E+02 -0.29894941666E+02 -0.35923404678E+02  0.49636918541E+02  0.00000000000E+00 0.  1.
</event>
<event>
 8    1  0.7232317E-009  0.1131035E+03  0.7561462E-02  0.1254928E+00
          3   -1    0    0  501    0  0.00000000000E+00  0.00000000000E+00  0.19386436146E+03  0.19386436146E+03  0.00000000000E+00 0. -1.
         -3   -1    0    0    0  501 -0.00000000000E+00 -0.00000000000E+00 -0.10138307580E+03  0.10138307580E+03  0.00000000000E+00 0.  1.
         25    2    1    2    0    0  0.71710953454E+02  0.10150159392E+02 -0.35105201325E+01  0.14458436738E+03  0.12508728536E+03 0.  0.
         23    2    1    2    0    0 -0.71710953454E+02 -0.10150159392E+02  0.95991805790E+02  0.15066306987E+03  0.90771401135E+02 0.  0.
          5    1    3    3  502    0  0.44166244739E+02  0.64915570759E+02  0.15756330423E+02  0.80189917382E+02  0.41800000000E+01 0. -1.
         -5    1    3    3    0  502  0.27544708715E+02 -0.54765411368E+02 -0.19266850556E+02  0.64394450000E+02  0.41800000000E+01 0. -1.
        -11    1    4    4    0    0 -0.72460642233E+02  0.34234760186E+01  0.22538177451E+02  0.75962058317E+02  0.00000000000E+00 0.  1.
         11    1    4    4    0    0  0.74968877870E+00 -0.13573635410E+02  0.73453628339E+02  0.74701011557E+02  0.00000000000E+00 0. -1.
</event>
<event>
 8    1  0.7232317E-009  0.1327295E+03  0.7561462E-02  0.1223461E+00
          3   -1    0    0  501    0  0.00000000000E+00  0.00000000000E+00  0.18999202383E+02  0.18999202383E+02  0.00000000000E+00 0. -1.
         -3   -1    0    0    0  501 -0.00000000000E+00 -0.00000000000E+00 -0.11391396170E+04  0.11391396170E+04  0.00000000000E+00 0.  1.
         25    2    1    2    0    0  0.34941724778E+02  0.76461245563E+02 -0.80864148338E+03  0.82256733036E+03  0.12509483654E+03 0.  0.
         23    2    1    2    0    0 -0.34941724778E+02 -0.76461245563E+02 -0.31149893123E+03  0.33557148902E+03  0.92246375967E+02 0.  0.
          5    1    3    3  502    0 -0.41075933657E+02  0.59325943782E+02 -0.35891775510E+03  0.36612324053E+03  0.41800000000E+01 0.  1.
         -5    1    3    3    0  502  0.76017658435E+02  0.17135301781E+02 -0.44972372829E+03  0.45644408983E+03  0.41800000000E+01 0.  1.
        -11    1    4    4    0    0 -0.13379457695E+02 -0.89133744538E+02 -0.17549928769E+03  0.19729124229E+03  0.00000000000E+00 0. -1.
         11    1    4    4    0    0 -0.21562267083E+02  0.12672498976E+02 -0.13599964354E+03  0.13828024673E+03  0.00000000000E+00 0.  1.
</event>
<event>
 8    1  0.7232317E-009  0.1089912E+03  0.7561462E-02  0.1262450E+00
          2   -1    0    0  501    0  0.00000000000E+00  0.00000000000E+00  0.17732572505E+02  0.17732572505E+02  0.00000000000E+00 0. -1.
         -2   -1    0    0    0  501 -0.00000000000E+00 -0.00000000000E+00 -0.71149557038E+03  0.71149557038E+03  0.00000000000E+00 0.  1.
         25    2    1    2    0    0 -0.12995632365E+02 -0.16010772312E+02 -0.48310042745E+03  0.49945916362E+03  0.12509277290E+03 0.  0.
         23    2    1    2    0    0  0.12995632365E+02  0.16010772312E+02 -0.21066257043E+03  0.22976897927E+03  0.89385871164E+02 0.  0.
          5    1    3    3  502    0 -0.60524624023E+02  0.22802368666E+02 -0.26914416699E+03  0.27683791856E+03  0.41800000000E+01 0.  1.
         -5    1    3    3    0  502  0.47528991658E+02 -0.38813140978E+02 -0.21395626046E+03  0.22262124506E+03  0.41800000000E+01 0.  1.
        -11    1    4    4    0    0  0.50988247729E+02  0.16736467245E+02 -0.11890521742E+03  0.13045444214E+03  0.00000000000E+00 0.  1.
         11    1    4    4    0    0 -0.37992615364E+02 -0.72569493327E+00 -0.91757353003E+02  0.99314537131E+02  0.00000000000E+00 0. -1.
</event>
<event>
 8    1  0.7232317E-009  0.8717452E+02  0.7561462E-02  0.1309842E+00
         -1   -1    0    0    0  501 -0.00000000000E+00  0.00000000000E+00  0.33634484641E+03  0.33634484641E+03  0.00000000000E+00 0.  1.
          1   -1    0    0  501    0  0.00000000000E+00 -0.00000000000E+00 -0.45139553079E+02  0.45139553079E+02  0.00000000000E+00 0. -1.
         25    2    1    2    0    0  0.29751274510E+02  0.17811824933E+02  0.84156218019E+02  0.15469993924E+03  0.12508957881E+03 0.  0.
         23    2    1    2    0    0 -0.29751274510E+02 -0.17811824933E+02  0.20704907531E+03  0.22678446025E+03  0.85787367247E+02 0.  0.
          5    1    3    3  502    0  0.34899326708E+02  0.43519895644E+02 -0.10038821407E+02  0.56834801458E+02  0.41800000000E+01 0. -1.
         -5    1    3    3    0  502 -0.51480521984E+01 -0.25708070711E+02  0.94195039426E+02  0.97865137784E+02  0.41800000000E+01 0. -1.
        -11    1    4    4    0    0 -0.40062481602E+02  0.25398256773E+02  0.12050454350E+03  0.12950451298E+03  0.00000000000E+00 0. -1.
         11    1    4    4    0    0  0.10311207092E+02 -0.43210081706E+02  0.86544531812E+02  0.97279947262E+02  0.00000000000E+00 0.  1.
</event>
<event>
 8    1  0.7232317E-009  0.2585918E+03  0.7561462E-02  0.1107992E+00
          2   -1    0    0  501    0  0.00000000000E+00  0.00000000000E+00  0.39920707992E+03  0.39920707992E+03  0.00000000000E+00 0. -1.
         -2   -1    0    0    0  501 -0.00000000000E+00 -0.00000000000E+00 -0.19341487580E+03  0.19341487580E+03  0.00000000000E+00 0.  1.
         25    2    1    2    0    0  0.24281634853E+03  0.54771764319E+02  0.50602088532E+02  0.28313763125E+03  0.12508645644E+03 0.  0.
         23    2    1    2    0    0 -0.24281634853E+03 -0.54771764319E+02  0.15519011558E+03  0.30948432447E+03  0.98675477401E+02 0.  0.
          5    1    3    3  502    0  0.23227704048E+03  0.37570395776E+02  0.76006070088E+01  0.23545572790E+03  0.41800000000E+01 0.  1.
         -5    1    3    3    0  502  0.10539308050E+02  0.17201368543E+02  0.43001481523E+02  0.47681903350E+02  0.41800000000E+01 0.  1.
        -11    1    4    4    0    0 -0.11579244180E+03 -0.66761936379E+02  0.11322622227E+03  0.17517198159E+03  0.00000000000E+00 0. -1.
         11    1    4    4    0    0 -0.12702390673E+03  0.11990172059E+02  0.41963893312E+02  0.13431234288E+03  0.00000000000E+00 0.  1.
</event>
<event>
 8    1  0.7232317E-009  0.1128573E+03  0.7561462E-02  0.1255368E+00
         -2   -1    0    0    0  501 -0.00000000000E+00  0.00000000000E+00  0.23249319096E+03  0.23249319096E+03  0.00000000000E+00 0.  1.
          2   -1    0    0  501    0  0.00000000000E+00 -0.00000000000E+00 -0.71717785171E+02  0.71717785171E+02  0.00000000000E+00 0. -1.
         25    2    1    2    0    0  0.65699325928E+02  0.91980166969E+01  0.11929567622E+03  0.18513498031E+03  0.12506997094E+03 0.  0.
         23    2    1    2    0    0 -0.65699325928E+02 -0.91980166969E+01  0.41479729566E+02  0.11907599582E+03  0.89763689075E+02 0.  0.
          5    1    3    3  502    0 -0.17667998408E+02 -0.20633723294E+02  0.86266311216E+02  0.90538707498E+02  0.41800000000E+01 0.  1.
         -5    1    3    3    0  502  0.83367324336E+02  0.29831739991E+02  0.33029365008E+02  0.94596272816E+02  0.41800000000E+01 0.  1.
        -11    1    4    4    0    0 -0.58529524078E+02 -0.44525102402E+02  0.38226499545E+02  0.82882176613E+02  0.00000000000E+00 0.  1.
         11    1    4    4    0    0 -0.71698018505E+01  0.35327085705E+02  0.32532300211E+01  0.36193819204E+02  0.00000000000E+00 0. -1.
</event>
<event>
 8    1  0.7232317E-009  0.1021283E+03  0.7561462E-02  0.1275883E+00
          1   -1    0    0  501    0  0.00000000000E+00  0.00000000000E+00  0.96320217016E+02  0.96320217016E+02  0.00000000000E+00 0. -1.
         -1   -1    0    0    0  501 -0.00000000000E+00 -0.00000000000E+00 -0.15065096679E+03  0.15065096679E+03  0.00000000000E+00 0.  1.
         25    2    1    2    0    0 -0.14564428782E+02  0.94718375646E+00 -0.37571328960E+02  0.13141320800E+03  0.12507920184E+03 0.  0.
         23    2    1    2    0    0  0.14564428782E+02 -0.94718375646E+00 -0.16759420815E+02  0.11555797581E+03  0.11340082824E+03 0.  0.
          5    1    3    3  502    0  0.34548992529E+02  0.18769920407E+02  0.27273503012E+02  0.48033937622E+02  0.41800000000E+01 0.  1.
         -5    1    3    3    0  502 -0.49113421311E+02 -0.17822736651E+02 -0.64844831973E+02  0.83379270374E+02  0.41800000000E+01 0.  1.
        -11    1    4    4    0    0 -0.20150995800E+02  0.48135694450E+02  0.30149145537E+01  0.52270425880E+02  0.00000000000E+00 0. -1.
         11    1    4    4    0    0  0.34715424581E+02 -0.49082878207E+02 -0.19774335369E+02  0.63287549930E+02  0.00000000000E+00 0.  1.
</event>
<event>
 8    1  0.7232317E-009  0.1154632E+03  0.7561462E-02  0.1250775E+00
          2   -1    0    0  501    0  0.00000000000E+00  0.00000000000E+00  0.16249756714E+03  0.16249756714E+03  0.00000000000E+00 0. -1.
         -2   -1    0    0    0  501 -0.00000000000E+00 -0.00000000000E+00 -0.22939288533E+03  0.22939288533E+03  0.00000000000E+00 0.  1.
         25    2    1    2    0    0  0.84708918424E+02  0.46791563537E+02 -0.16325489672E+03  0.22729747927E+03  0.12508769525E+03 0.  0.
         23    2    1    2    0    0 -0.84708918424E+02 -0.46791563537E+02  0.96359578528E+02  0.16459297320E+03  0.91872885960E+02 0.  0.
          5    1    3    3  502    0  0.52795385337E+02  0.49891349106E+02 -0.17759764908E+03  0.19192419542E+03  0.41800000000E+01 0.  1.
         -5    1    3    3    0  502  0.31913533087E+02 -0.30997855687E+01  0.14342752368E+02  0.35373283848E+02  0.41800000000E+01 0.  1.
        -11    1    4    4    0    0  0.16041436976E+02 -0.57052438411E+01  0.36810956672E+02  0.40557663131E+02  0.00000000000E+00 0. -1.
         11    1    4    4    0    0 -0.10075035540E+03 -0.41086319696E+02  0.59548621855E+02  0.12403531007E+03  0.00000000000E+00 0.  1.
</event>
<event>
 8    1  0.7232317E-009  0.1187674E+03  0.7561462E-02  0.1245144E+00
          2   -1    0    0  501    0  0.00000000000E+00  0.00000000000E+00  0.58043796064E+03  0.58043796064E+03  0.00000000000E+00 0. -1.
         -2   -1    0    0    0  501 -0.00000000000E+00 -0.00000000000E+00 -0.25633971057E+02  0.25633971057E+02  0.00000000000E+00 0.  1.
         25    2    1    2    0    0 -0.91946040030E+01  0.54558169209E+02  0.34349394598E+03  0.36972586092E+03  0.12509191314E+03 0.  0.
         23    2    1    2    0    0  0.91946040030E+01 -0.54558169209E+02  0.21131004360E+03  0.23634607078E+03  0.90257387932E+02 0.  0.
          5    1    3    3  502    0 -0.67136183550E+02  0.28099523620E+02  0.17823718597E+03  0.19256899343E+03  0.41800000000E+01 0. -1.
         -5    1    3    3    0  502  0.57941579547E+02  0.26458645589E+02  0.16525676002E+03  0.17715686749E+03  0.41800000000E+01 0. -1.
        -11    1    4    4    0    0  0.45313956809E+02 -0.44022485010E+02  0.94892716425E+02  0.11399983113E+03  0.00000000000E+00 0.  1.
         11    1    4    4    0    0 -0.36119352806E+02 -0.10535684199E+02  0.11641732718E+03  0.12234623965E+03  0.00000000000E+00 0. -1.
</event>
<event>
 8    1  0.7232317E-009  0.1417777E+03  0.7561462E-02  0.1210957E+00
         -1   -1    0    0    0  501 -0.00000000000E+00  0.00000000000E+00  0.53506293662E+02  0.53506293662E+02  0.00000000000E+00 0.  1.
          1   -1    0    0  501    0  0.00000000000E+00 -0.00000000000E+00 -0.65526066615E+03  0.65526066615E+03  0.00000000000E+00 0. -1.
         25    2    1    2    0    0 -0.12751800822E+03 -0.35491922989E+02 -0.44858852520E+03  0.48414863369E+03  0.12509082915E+03 0.  0.
         23    2    1    2    0    0  0.12751800822E+03  0.35491922989E+02 -0.15316584728E+03  0.22461832612E+03  0.97329834269E+02 0.  0.
          5    1    3    3  502    0 -0.13227455630E+03 -0.44963389993E+02 -0.45129060711E+03  0.47243936029E+03  0.41800000000E+01 0.  1.
         -5    1    3    3    0  502  0.47565480835E+01  0.94714670040E+01  0.27020819056E+01  0.11709273398E+02  0.41800000000E+01 0.  1.
        -11    1    4    4    0    0  0.10819199221E+03  0.29115694106E+02 -0.55835534345E+02  0.12518321660E+03  0.00000000000E+00 0.  1.
         11    1    4    4    0    0  0.19326016005E+02  0.63762288823E+01 -0.97330312936E+02  0.99435109522E+02  0.00000000000E+00 0. -1.
</event>
<event>
 8    1  0.7232317E-009  0.9486588E+02  0.7561462E-02  0.1291478E+00
          3   -1    0    0  501    0  0.00000000000E+00  0.00000000000E+00  0.19923210476E+03  0.19923210476E+03  0.00000000000E+00 0. -1.
         -3   -1    0    0    0  501 -0.00000000000E+00 -0.00000000000E+00 -0.68325160840E+02  0.68325160840E+02  0.00000000000E+00 0.  1.
         25    2    1    2    0    0 -0.26119119613E+02 -0.11735410662E+02  0.36963237913E+02  0.13354488076E+03  0.12509206988E+03 0.  0.
         23    2    1    2    0    0  0.26119119613E+02  0.11735410662E+02  0.93943706008E+02  0.13401238484E+03  0.91180980034E+02 0.  0.
          5    1    3    3  502    0 -0.66831881986E+02 -0.37103608875E+02  0.37816954060E+02  0.85386021430E+02  0.41800000000E+01 0. -1.
         -5    1    3    3    0  502  0.40712762373E+02  0.25368198213E+02 -0.85371614711E+00  0.48158859329E+02  0.41800000000E+01 0. -1.
        -11    1    4    4    0    0  0.27768471235E+02  0.33322264494E+02  0.64170290995E+01  0.43847914069E+02  0.00000000000E+00 0.  1.
         11    1    4    4    0    0 -0.16493516223E+01 -0.21586853832E+02  0.87526676909E+02  0.90164470774E+02  0.00000000000E+00 0. -1.
</event>
<event>
 8    1  0.7232317E-009  0.8265444E+02  0.7561462E-02  0.1321683E+00
         -2   -1    0    0    0  501 -0.00000000000E+00  0.00000000000E+00  0.24047702565E+02  0.24047702565E+02  0.00000000000E+00 0.  1.
          2   -1    0    0  501    0  0.00000000000E+00 -0.00000000000E+00 -0.91237186872E+03  0.91237186872E+03  0.00000000000E+00 0. -1.
         25    2    1    2    0    0 -0.56462491366E+02 -0.18581789135E+02 -0.70500198412E+03  0.71847691108E+03  0.12509187951E+03 0.  0.
         23    2    1    2    0    0  0.56462491366E+02  0.18581789135E+02 -0.18332218203E+03  0.21794266021E+03  0.10177762472E+03 0.  0.
          5    1    3    3  502    0 -0.11525284624E+02 -0.47573830419E+01 -0.62814766579E+03  0.62828530725E+03  0.41800000000E+01 0. -1.
         -5    1    3    3    0  502 -0.44937206741E+02 -0.13824406093E+02 -0.76854318337E+02  0.90191603825E+02  0.41800000000E+01 0. -1.
        -11    1    4    4    0    0 -0.18057357728E-01  0.43303328538E+02 -0.12792995427E+03  0.13506017840E+03  0.00000000000E+00 0.  1.
         11    1    4    4    0    0  0.56480548723E+02 -0.24721539403E+02 -0.55392227759E+02  0.82882481808E+02  0.00000000000E+00 0. -1.
</event>
<event>
 8    1  0.7232317E-009  0.1227266E+03  0.7561462E-02  0.1238666E+00
          1   -1    0    0  501    0  0.00000000000E+00  0.00000000000E+00  0.95995341154E+03  0.95995341154E+03  0.00000000000E+00 0. -1.
         -1   -1    0    0    0  501 -0.00000000000E+00 -0.00000000000E+00 -0.21951454344E+02  0.21951454344E+02  0.00000000000E+00 0.  1.
         25    2    1    2    0    0 -0.16324974055E+01 -0.73002660150E+02  0.72102583828E+03  0.73543063482E+03  0.12509158933E+03 0.  0.
         23    2    1    2    0    0  0.16324974055E+01  0.73002660150E+02  0.21697611892E+03  0.24647423107E+03  0.91317342075E+02 0.  0.
          5    1    3    3  502    0 -0.21861571952E+02 -0.96548455055E+02  0.65381071091E+03  0.66127562378E+03  0.41800000000E+01 0. -1.
         -5    1    3    3    0  502  0.20229074547E+02  0.23545794905E+02  0.67215127371E+02  0.74155011039E+02  0.41800000000E+01 0. -1.
        -11    1    4    4    0    0 -0.37820291851E+02  0.64378476763E+02  0.11878466237E+03  0.14030238330E+03  0.00000000000E+00 0.  1.
         11    1    4    4    0    0  0.39452789256E+02  0.86241833870E+01  0.98191456546E+02  0.10617184776E+03  0.00000000000E+00 0. -1.
</event>
<event>
 8    1  0.7232317E-009  0.1097809E+03  0.7561462E-02  0.1260976E+00
          2   -1    0    0  501    0  0.00000000000E+00  0.00000000000E+00  0.93914412102E+03  0.93914412102E+03  0.00000000000E+00 0. -1.
         -2   -1    0    0    0  501 -0.00000000000E+00 -0.00000000000E+00 -0.21930775501E+02  0.21930775501E+02  0.00000000000E+00 0.  1.
         25    2    1    2    0    0  0.48367171288E+02  0.25174012236E+02  0.74027873778E+03  0.75275006181E+03  0.12508769643E+03 0.  0.
         23    2    1    2    0    0 -0.48367171288E+02 -0.25174012236E+02  0.17693460774E+03  0.20832483471E+03  0.95500090003E+02 0.  0.
          5    1    3    3  502    0  0.17222380842E+02 -0.38792982332E+02  0.50791347945E+03  0.50970097203E+03  0.41800000000E+01 0.  1.
         -5    1    3    3    0  502  0.31144790446E+02  0.63966994568E+02  0.23236525833E+03  0.24304908979E+03  0.41800000000E+01 0.  1.
        -11    1    4    4    0    0 -0.19119354795E+02  0.34355335737E+02  0.95637532626E+02  0.10340394803E+03  0.00000000000E+00 0. -1.
         11    1    4    4    0    0 -0.29247816493E+02 -0.59529347973E+02  0.81297075115E+02  0.10492088668E+03  0.00000000000E+00 0.  1.
</event>
<event>
 8    1  0.7232317E-009  0.1087370E+03  0.7561462E-02  0.1262927E+00
          1   -1    0    0  501    0  0.00000000000E+00  0.00000000000E+00  0.14519209625E+03  0.14519209625E+03  0.00000000000E+00 0. -1.
         -1   -1    0    0    0  501 -0.00000000000E+00 -0.00000000000E+00 -0.14851601171E+03  0.14851601171E+03  0.00000000000E+00 0.  1.
         25    2    1    2    0    0 -0.59207867102E+02 -0.78253016989E+02 -0.90421365879E+01  0.15923591726E+03  0.12508081755E+03 0.  0.
         23    2    1    2    0    0  0.59207867102E+02  0.78253016989E+02  0.57182211264E+01  0.13447219069E+03  0.91765820556E+02 0.  0.
          5    1    3    3  502    0 -0.43609581274E+02 -0.21078741446E+02 -0.62590705953E+02  0.79253881871E+02  0.41800000000E+01 0. -1.
         -5    1    3    3    0  502 -0.15598285828E+02 -0.57174275543E+02  0.53548569366E+02  0.79982035394E+02  0.41800000000E+01 0. -1.
        -11    1    4    4    0    0  0.58106852949E+02  0.38558483899E+02  0.41388798907E+02  0.81093746461E+02  0.00000000000E+00 0. -1.
         11    1    4    4    0    0  0.11010141532E+01  0.39694533090E+02 -0.35670577781E+02  0.53378444232E+02  0.00000000000E+00 0.  1.
</event>
<event>
 8    1  0.7232317E-009  0.1253989E+03  0.7561462E-02  0.1234447E+00
          2   -1    0    0  501    0  0.00000000000E+00  0.00000000000E+00  0.12448018978E+04  0.12448018978E+04  0.00000000000E+00 0.  1.
         -2   -1    0    0    0  501 -0.00000000000E+00 -0.00000000000E+00 -0.13365842651E+02  0.13365842651E+02  0.00000000000E+00 0. -1.
         25    2    1    2    0    0 -0.56245974576E+02 -0.37192648198E+02  0.75756118018E+03  0.77077441665E+03  0.12508939568E+03 0.  0.
         23    2    1    2    0    0  0.56245974576E+02  0.37192648198E+02  0.47387487493E+03  0.48739332376E+03  0.91912742434E+02 0.  0.
          5    1    3    3  502    0 -0.92725176896E+02 -0.14494488799E+02  0.41477399153E+03  0.42527989029E+03  0.41800000000E+01 0.  1.
         -5    1    3    3    0  502  0.36479202321E+02 -0.22698159400E+02  0.34278718865E+03  0.34549452636E+03  0.41800000000E+01 0.  1.
        -11    1    4    4    0    0  0.68206061438E+02 -0.63782861771E+01  0.26773524430E+03  0.27636010999E+03  0.00000000000E+00 0. -1.
         11    1    4    4    0    0 -0.11960086862E+02  0.43570934375E+02  0.20613963062E+03  0.21103321377E+03  0.00000000000E+00 0.  1.
</event>
<event>
 8    1  0.7232317E-009  0.1683554E+03  0.7561462E-02  0.1179574E+00
          2   -1    0    0  501    0  0.00000000000E+00  0.00000000000E+00  0.23880512781E+03  0.23880512781E+03  0.00000000000E+00 0. -1.
         -2   -1    0    0    0  501 -0.00000000000E+00 -0.00000000000E+00 -0.17522613638E+03  0.17522613638E+03  0.00000000000E+00 0.  1.
         25    2    1    2    0    0  0.57583494885E+02 -0.13255241568E+03  0.13015245674E+03  0.23124574659E+03  0.12509568952E+03 0.  0.
         23    2    1    2    0    0 -0.57583494885E+02  0.13255241568E+03 -0.66573465302E+02  0.18278551759E+03  0.89958420251E+02 0.  0.
          5    1    3    3  502    0  0.17875061961E+02 -0.12656582280E+03  0.42542648122E+02  0.13478046836E+03  0.41800000000E+01 0.  1.
         -5    1    3    3    0  502  0.39708432924E+02 -0.59865928776E+01  0.87609808614E+02  0.96465278235E+02  0.41800000000E+01 0.  1.
        -11    1    4    4    0    0 -0.76625111671E+02  0.72651465839E+02 -0.54330879019E+02  0.11874968481E+03  0.00000000000E+00 0.  1.
         11    1    4    4    0    0  0.19041616786E+02  0.59900949841E+02 -0.12242586283E+02  0.64035832785E+02  0.00000000000E+00 0. -1.
</event>
<event>
 8    1  0.7232317E-009  0.1136359E+03  0.7561462E-02  0.1253981E+00
          1   -1    0    0  501    0  0.00000000000E+00  0.00000000000E+00  0.41857573391E+02  0.41857573391E+02  0.00000000000E+00 0. -1.
         -1   -1    0    0    0  501 -0.00000000000E+00 -0.00000000000E+00 -0.75417629706E+03  0.75417629706E+03  0.00000000000E+00 0.  1.
         25    2    1    2    0    0 -0.62818200937E+02 -0.50998670551E+02 -0.63268475700E+03  0.64998745820E+03  0.12508678312E+03 0.  0.
         23    2    1    2    0    0  0.62818200937E+02  0.50998670551E+02 -0.79633966674E+02  0.14604641226E+03  0.91874888395E+02 0.  0.
          5    1    3    3  502    0  0.20254920027E+02 -0.52206397629E+02 -0.14958180322E+03  0.15977471011E+03  0.41800000000E+01 0. -1.
         -5    1    3    3    0  502 -0.83073120965E+02  0.12077270781E+01 -0.48310295378E+03  0.49021274808E+03  0.41800000000E+01 0. -1.
        -11    1    4    4    0    0  0.44691311476E+02  0.53413267612E+02 -0.97936145212E+02  0.12017395316E+03  0.00000000000E+00 0.  1.
         11    1    4    4    0    0  0.18126889462E+02 -0.24145970616E+01  0.18302178538E+02  0.25872459098E+02  0.00000000000E+00 0. -1.
</event>
<event>
 8    1  0.7232317E-009  0.1128055E+03  0.7561462E-02  0.1255461E+00
          1   -1    0    0  501    0  0.00000000000E+00  0.00000000000E+00  0.19933339023E+03  0.19933339023E+03  0.00000000000E+00 0. -1.
         -1   -1    0    0    0  501 -0.00000000000E+00 -0.00000000000E+00 -0.68308524467E+02  0.68308524467E+02  0.00000000000E+00 0.  1.
         25    2    1    2    0    0  0.23629536461E+02 -0.41093791712E+02  0.86192720510E+02  0.15914911550E+03  0.12510875742E+03 0.  0.
         23    2    1    2    0    0 -0.23629536461E+02  0.41093791712E+02  0.44832145249E+02  0.10849279920E+03  0.86681667722E+02 0.  0.
          5    1    3    3  502    0  0.67888263216E+02 -0.48943875846E+02  0.75419091257E+02  0.11273788623E+03  0.41800000000E+01 0. -1.
         -5    1    3    3    0  502 -0.44258726755E+02  0.78500841333E+01  0.10773629253E+02  0.46411229268E+02  0.41800000000E+01 0. -1.
        -11    1    4    4    0    0 -0.29844325317E+02  0.65237876693E+02  0.42663389138E+02  0.83467533100E+02  0.00000000000E+00 0. -1.
         11    1    4    4    0    0  0.62147888560E+01 -0.24144084981E+02  0.21687561115E+01  0.25025266096E+02  0.00000000000E+00 0.  1.
</event>
<event>
 8    1  0.7232317E-009  0.8364449E+02  0.7561462E-02  0.1319016E+00
         -1   -1    0    0    0  501 -0.00000000000E+00  0.00000000000E+00  0.42736137390E+03  0.42736137390E+03  0.00000000000E+00 0.  1.
          1   -1    0    0  501    0  0.00000000000E+00 -0.00000000000E+00 -0.40601859253E+02  0.40601859253E+02  0.00000000000E+00 0. -1.
         25    2    1    2    0    0  0.71458219588E+02  0.21910646173E+02  0.23490531417E+03  0.27642984316E+03  0.12508636218E+03 0.  0.
         23    2    1    2    0    0 -0.71458219588E+02 -0.21910646173E+02  0.15185420048E+03  0.19153338999E+03  0.89660402169E+02 0.  0.
          5    1    3    3  502    0  0.21600580559E+02  0.17370296433E+02 -0.73830969601E+01  0.28987838819E+02  0.41800000000E+01 0. -1.
         -5    1    3    3    0  502  0.49857639028E+02  0.45403497394E+01  0.24228841113E+03  0.24744200434E+03  0.41800000000E+01 0. -1.
        -11    1    4    4    0    0 -0.55265863562E+02 -0.37303804814E+02  0.15522420697E+03  0.16893917236E+03  0.00000000000E+00 0.  1.
         11    1    4    4    0    0 -0.16192356026E+02  0.15393158642E+02 -0.33700064913E+01  0.22594217632E+02  0.00000000000E+00 0. -1.
</event>
<event>
 8    1  0.7232317E-009  0.9094927E+02  0.7561462E-02  0.1300569E+00
         -2   -1    0    0    0  501 -0.00000000000E+00  0.00000000000E+00  0.90056965497E+02  0.90056965497E+02  0.00000000000E+00 0. -1.
          2   -1    0    0  501    0  0.00000000000E+00 -0.00000000000E+00 -0.13239035060E+03  0.13239035060E+03  0.00000000000E+00 0.  1.
         25    2    1    2    0    0  0.19388670494E+02  0.33512844527E+02 -0.62094198550E+02  0.14492179870E+03  0.12509039513E+03 0.  0.
         23    2    1    2    0    0 -0.19388670494E+02 -0.33512844527E+02  0.19760813446E+02  0.77525517395E+02  0.64192560375E+02 0.  0.
          5    1    3    3  502    0 -0.12866501530E+02  0.63729636524E+02 -0.74360413255E+02  0.98863324304E+02  0.41800000000E+01 0. -1.
         -5    1    3    3    0  502  0.32255172024E+02 -0.30216791996E+02  0.12266214704E+02  0.46058474400E+02  0.41800000000E+01 0. -1.
        -11    1    4    4    0    0  0.17362449021E+02 -0.30982306731E+02  0.19851844442E+02  0.40687266978E+02  0.00000000000E+00 0. -1.
         11    1    4    4    0    0 -0.36751119516E+02 -0.25305377965E+01 -0.91030995841E-01  0.36838250418E+02  0.00000000000E+00 0.  1.
</event>
<event>
 8    1  0.7232317E-009  0.9282921E+02  0.7561462E-02  0.1296141E+00
          2   -1    0    0  501    0  0.00000000000E+00  0.00000000000E+00  0.25674009160E+03  0.25674009160E+03  0.00000000000E+00 0. -1.
         -2   -1    0    0    0  501 -0.00000000000E+00 -0.00000000000E+00 -0.49280581219E+02  0.49280581219E+02  0.00000000000E+00 0.  1.
         25    2    1    2    0    0 -0.22140569447E+02  0.17655187606E+02  0.10177898470E+03  0.16373616267E+03  0.12509459930E+03 0.  0.
         23    2    1    2    0    0  0.22140569447E+02 -0.17655187606E+02  0.10568052569E+03  0.14228451016E+03  0.90964816585E+02 0.  0.
          5    1    3    3  502    0 -0.64887338833E+02  0.14697824415E+02  0.17223622628E+02  0.68851422351E+02  0.41800000000E+01 0. -1.
         -5    1    3    3    0  502  0.42746769386E+02  0.29573631909E+01  0.84555362070E+02  0.94884740315E+02  0.41800000000E+01 0. -1.
        -11    1    4    4    0    0 -0.21391107951E+02  0.10774030002E+02 -0.61015920350E+00  0.23958954821E+02  0.00000000000E+00 0.  1.
         11    1    4    4    0    0  0.43531677399E+02 -0.28429217608E+02  0.10629068489E+03  0.11832555534E+03  0.00000000000E+00 0. -1.
</event>
<event>
 8    1  0.7232317E-009  0.1218228E+03  0.7561462E-02  0.1240120E+00
         -3   -1    0    0    0  501 -0.00000000000E+00  0.00000000000E+00  0.26436178485E+03  0.26436178485E+03  0.00000000000E+00 0.  1.
          3   -1    0    0  501    0  0.00000000000E+00 -0.00000000000E+00 -0.64412103614E+02  0.64412103614E+02  0.00000000000E+00 0. -1.
         25    2    1    2    0    0  0.67465396586E+02 -0.17302984534E+02  0.12757673539E+03  0.19176624971E+03  0.12508996006E+03 0.  0.
         23    2    1    2    0    0 -0.67465396586E+02  0.17302984534E+02  0.72372945847E+02  0.13700763875E+03  0.93178735636E+02 0.  0.
          5    1    3    3  502    0  0.12433571591E+02  0.52205295392E+02  0.39856833145E+02  0.66977803172E+02  0.41800000000E+01 0. -1.
         -5    1    3    3    0  502  0.55031824995E+02 -0.69508279926E+02  0.87719902243E+02  0.12478844654E+03  0.41800000000E+01 0. -1.
        -11    1    4    4    0    0 -0.69288805099E+02  0.38851213915E+02  0.81250623231E+02  0.11363106578E+03  0.00000000000E+00 0.  1.
         11    1    4    4    0    0  0.18234085138E+01 -0.21548229381E+02 -0.88776773840E+01  0.23376572969E+02  0.00000000000E+00 0. -1.
</event>
<event>
 8    1  0.7232317E-009  0.9358176E+02  0.7561462E-02  0.1294403E+00
          1   -1    0    0  501    0  0.00000000000E+00  0.00000000000E+00  0.10423823000E+03  0.10423823000E+03  0.00000000000E+00 0. -1.
         -1   -1    0    0    0  501 -0.00000000000E+00 -0.00000000000E+00 -0.15052967046E+03  0.15052967046E+03  0.00000000000E+00 0.  1.
         25    2    1    2    0    0 -0.36492085941E+02 -0.10777931079E+02 -0.74075568225E+02  0.15027211295E+03  0.12508669788E+03 0.  0.
         23    2    1    2    0    0  0.36492085941E+02  0.10777931079E+02  0.27784127774E+02  0.10449578751E+03  0.93271516105E+02 0.  0.
          5    1    3    3  502    0 -0.38398045066E+02  0.33542692377E+02  0.12713845071E+02  0.52712772012E+02  0.41800000000E+01 0. -1.
         -5    1    3    3    0  502  0.19059591245E+01 -0.44320623455E+02 -0.86789413296E+02  0.97559340936E+02  0.41800000000E+01 0. -1.
        -11    1    4    4    0    0 -0.60786239525E+01 -0.31126252578E+02 -0.10661712771E+02  0.33458412812E+02  0.00000000000E+00 0.  1.
         11    1    4    4    0    0  0.42570709894E+02  0.41904183657E+02  0.38445840544E+02  0.71037374698E+02  0.00000000000E+00 0. -1.
</event>
<event>
 8    1  0.7232317E-009  0.8099252E+02  0.7561462E-02  0.1326258E+00
         -2   -1    0    0    0  501 -0.00000000000E+00  0.00000000000E+00  0.17833884201E+03  0.17833884201E+03  0.00000000000E+00 0.  1.
          2   -1    0    0  501    0  0.00000000000E+00 -0.00000000000E+00 -0.72735749838E+02  0.72735749838E+02  0.00000000000E+00 0. -1.
         25    2    1    2    0    0  0.31645224012E+02 -0.23601691261E+01  0.56356130494E+02  0.14082301155E+03  0.12509243197E+03 0.  0.
         23    2    1    2    0    0 -0.31645224012E+02  0.23601691261E+01  0.49246961676E+02  0.11025158030E+03  0.93397843244E+02 0.  0.
          5    1    3    3  502    0  0.50115137184E+02 -0.40149856455E+02  0.71248651967E+02  0.96007191165E+02  0.41800000000E+01 0. -1.
         -5    1    3    3    0  502 -0.18469913172E+02  0.37789687328E+02 -0.14892521473E+02  0.44815820385E+02  0.41800000000E+01 0. -1.
        -11    1    4    4    0    0 -0.43435344427E+02  0.31454224554E+01  0.72267906211E+02  0.84375192421E+02  0.00000000000E+00 0.  1.
         11    1    4    4    0    0  0.11790120416E+02 -0.78525332934E+00 -0.23020944535E+02  0.25876387876E+02  0.00000000000E+00 0. -1.
</event>
<event>
 8    1  0.7232317E-009  0.1842673E+03  0.7561462E-02  0.1163736E+00
         -2   -1    0    0    0  501 -0.00000000000E+00  0.00000000000E+00  0.11561143101E+03  0.11561143101E+03  0.00000000000E+00 0.  1.
          2   -1    0    0  501    0  0.00000000000E+00 -0.00000000000E+00 -0.38263948041E+03  0.38263948041E+03  0.00000000000E+00 0. -1.
         25    2    1    2    0    0  0.51883794473E+02  0.17176923297E+03 -0.14523395305E+03  0.26256023066E+03  0.12509346938E+03 0.  0.
         23    2    1    2    0    0 -0.51883794473E+02 -0.17176923297E+03 -0.12179409635E+03  0.23569068077E+03  0.92302207841E+02 0.  0.
          5    1    3    3  502    0  0.43078035870E+02  0.15311775229E+03 -0.52630218423E+02  0.16759527300E+03  0.41800000000E+01 0. -1.
         -5    1    3    3    0  502  0.88057586026E+01  0.18651480678E+02 -0.92603734628E+02  0.94964957658E+02  0.41800000000E+01 0. -1.
        -11    1    4    4    0    0  0.12088790398E+02 -0.16617017824E+02  0.94734190114E+01  0.22627633602E+02  0.00000000000E+00 0.  1.
         11    1    4    4    0    0 -0.63972584871E+02 -0.15515221514E+03 -0.13126751536E+03  0.21306304717E+03  0.00000000000E+00 0. -1.
</event>
<event>
 8    1  0.7232317E-009  0.8256139E+02  0.7561462E-02  0.1321936E+00
          2   -1    0    0  501    0  0.00000000000E+00  0.00000000000E+00  0.52065971443E+03  0.52065971443E+03  0.00000000000E+00 0. -1.
         -2   -1    0    0    0  501 -0.00000000000E+00 -0.00000000000E+00 -0.29172939666E+02  0.29172939666E+02  0.00000000000E+00 0.  1.
         25    2    1    2    0    0 -0.18083833193E+02 -0.52902133514E+02  0.24059409745E+03  0.27687454292E+03  0.12509329333E+03 0.  0.
         23    2    1    2    0    0  0.18083833193E+02  0.52902133514E+02  0.25089267731E+03  0.27295811117E+03  0.91833186664E+02 0.  0.
          5    1    3    3  502    0 -0.19332827309E+02 -0.30622810540E+02  0.12713714591E+01  0.36477438541E+02  0.41800000000E+01 0.  1.
         -5    1    3    3    0  502  0.12489941160E+01 -0.22279322974E+02  0.23932272599E+03  0.24039710438E+03  0.41800000000E+01 0.  1.
        -11    1    4    4    0    0 -0.35893737536E+02  0.10720372242E+02  0.67654025466E+02  0.77332748154E+02  0.00000000000E+00 0.  1.
         11    1    4    4    0    0  0.53977570729E+02  0.42181761272E+02  0.18323865184E+03  0.19562536301E+03  0.00000000000E+00 0. -1.
</event>
<event>
 8    1  0.7232317E-009  0.1453162E+03  0.7561462E-02  0.1206349E+00
         -2   -1    0    0    0  501 -0.00000000000E+00  0.00000000000E+00  0.29037948733E+02  0.29037948733E+02  0.00000000000E+00 0. -1.
          2   -1    0    0  501    0  0.00000000000E+00 -0.00000000000E+00 -0.11573641675E+04  0.11573641675E+04  0.00000000000E+00 0.  1.
         25    2    1    2    0    0 -0.57285174167E+02  0.10451734842E+03 -0.31522192050E+03  0.35946926106E+03  0.12509125941E+03 0.  0.
         23    2    1    2    0    0  0.57285174167E+02 -0.10451734842E+03 -0.81310429822E+03  0.82693285513E+03  0.92053678918E+02 0.  0.
          5    1    3    3  502    0 -0.75748419940E+00  0.77234049375E+02 -0.63711610978E+02  0.10021134636E+03  0.41800000000E+01 0.  1.
         -5    1    3    3    0  502 -0.56527689968E+02  0.27283299049E+02 -0.25151030952E+03  0.25925791470E+03  0.41800000000E+01 0.  1.
        -11    1    4    4    0    0  0.76647605378E+02 -0.47530438522E+02 -0.46546061473E+03  0.47411768778E+03  0.00000000000E+00 0. -1.
         11    1    4    4    0    0 -0.19362431211E+02 -0.56986909903E+02 -0.34764368349E+03  0.35281516735E+03  0.00000000000E+00 0.  1.
</event>
<event>
 8    1  0.7232317E-009  0.4895610E+03  0.7561462E-02  0.1016540E+00
         -2   -1    0    0    0  501 -0.00000000000E+00  0.00000000000E+00  0.16569991667E+03  0.16569991667E+03  0.00000000000E+00 0.  1.
          2   -1    0    0  501    0  0.00000000000E+00 -0.00000000000E+00 -0.16437483578E+04  0.16437483578E+04  0.00000000000E+00 0. -1.
         25    2    1    2    0    0  0.22490722189E+03 -0.43078719945E+03 -0.47557220538E+03  0.69135870163E+03  0.12508821732E+03 0.  0.
         23    2    1    2    0    0 -0.22490722189E+03  0.43078719945E+03 -0.10024762358E+04  0.11180895729E+04  0.94893729964E+02 0.  0.
          5    1    3    3  502    0  0.18675170422E+03 -0.30855892290E+03 -0.41439931064E+03  0.54938972413E+03  0.41800000000E+01 0.  1.
         -5    1    3    3    0  502  0.38155517665E+02 -0.12222827656E+03 -0.61172894747E+02  0.14196897749E+03  0.41800000000E+01 0.  1.
        -11    1    4    4    0    0 -0.51567831066E+02  0.16606347632E+03 -0.28375003321E+03  0.33279182789E+03  0.00000000000E+00 0.  1.
         11    1    4    4    0    0 -0.17333939082E+03  0.26472372314E+03 -0.71872620256E+03  0.78529774497E+03  0.00000000000E+00 0. -1.
</event>
<event>
 8    1  0.7232317E-009  0.1190860E+03  0.7561462E-02  0.1244612E+00
         -2   -1    0    0    0  501 -0.00000000000E+00  0.00000000000E+00  0.27231423927E+02  0.27231423927E+02  0.00000000000E+00 0.  1.
          2   -1    0    0  501    0  0.00000000000E+00 -0.00000000000E+00 -0.54199833127E+03  0.54199833127E+03  0.00000000000E+00 0. -1.
         25    2    1    2    0    0  0.17594984313E+02  0.48790983277E+02 -0.24688437533E+03  0.28158361579E+03  0.12508914573E+03 0.  0.
         23    2    1    2    0    0 -0.17594984313E+02 -0.48790983277E+02 -0.26788253202E+03  0.28764613941E+03  0.91044533250E+02 0.  0.
          5    1    3    3  502    0  0.43099109859E+02 -0.28665420742E+02 -0.74197256037E+02  0.90564589219E+02  0.41800000000E+01 0.  1.
         -5    1    3    3    0  502 -0.25504125546E+02  0.77456404019E+02 -0.17268711929E+03  0.19101902657E+03  0.41800000000E+01 0.  1.
        -11    1    4    4    0    0  0.31990529410E+02 -0.44515888256E+02 -0.13164469106E+03  0.14260218429E+03  0.00000000000E+00 0.  1.
         11    1    4    4    0    0 -0.49585513724E+02 -0.42750950210E+01 -0.13623784096E+03  0.14504395512E+03  0.00000000000E+00 0. -1.
</event>
<event>
 8    1  0.7232317E-009  0.1855295E+03  0.7561462E-02  0.1162556E+00
         -1   -1    0    0    0  501 -0.00000000000E+00  0.00000000000E+00  0.58602848468E+02  0.58602848468E+02  0.00000000000E+00 0.  1.
          1   -1    0    0  501    0  0.00000000000E+00 -0.00000000000E+00 -0.84077276827E+03  0.84077276827E+03  0.00000000000E+00 0. -1.
         25    2    1    2    0    0  0.13834362511E+03 -0.98769259221E+02 -0.59380634864E+03  0.63019647399E+03  0.12508913208E+03 0.  0.
         23    2    1    2    0    0 -0.13834362511E+03  0.98769259221E+02 -0.18836357116E+03  0.26917914275E+03  0.89901339121E+02 0.  0.
          5    1    3    3  502    0  0.12794066020E+03 -0.10888337895E+03 -0.37575832983E+03  0.41162628388E+03  0.41800000000E+01 0. -1.
         -5    1    3    3    0  502  0.10402964912E+02  0.10114119731E+02 -0.21804801881E+03  0.21857019011E+03  0.41800000000E+01 0. -1.
        -11    1    4    4    0    0 -0.32111932559E+02  0.71274639855E+02 -0.50882564067E+02  0.93275322702E+02  0.00000000000E+00 0. -1.
         11    1    4    4    0    0 -0.10623169255E+03  0.27494619366E+02 -0.13748100709E+03  0.17590382004E+03  0.00000000000E+00 0.  1.
</event>
<event>
 8    1  0.7232317E-009  0.1363849E+03  0.7561462E-02  0.1218278E+00
          3   -1    0    0  501    0  0.00000000000E+00  0.00000000000E+00  0.12617876638E+03  0.12617876638E+03  0.00000000000E+00 0. -1.
         -3   -1    0    0    0  501 -0.00000000000E+00 -0.00000000000E+00 -0.15484698385E+03  0.15484698385E+03  0.00000000000E+00 0.  1.
         25    2    1    2    0    0  0.53141254899E+02 -0.67126171979E+02 -0.36651226032E+02  0.15595051300E+03  0.12508930489E+03 0.  0.
         23    2    1    2    0    0 -0.53141254899E+02  0.67126171979E+02  0.79830085616E+01  0.12507523722E+03  0.90830449759E+02 0.  0.
          5    1    3    3  502    0  0.87787738077E+02 -0.19310069648E+02 -0.35527877901E+02  0.96743311162E+02  0.41800000000E+01 0.  1.
         -5    1    3    3    0  502 -0.34646483178E+02 -0.47816102330E+02 -0.11233481303E+01  0.59207201839E+02  0.41800000000E+01 0.  1.
        -11    1    4    4    0    0 -0.41784973118E+02 -0.12141036612E+02 -0.55417350571E+01  0.43864559452E+02  0.00000000000E+00 0.  1.
         11    1    4    4    0    0 -0.11356281781E+02  0.79267208591E+02  0.13524743619E+02  0.81210677768E+02  0.00000000000E+00 0. -1.
</event>
<event>
 8    1  0.7232317E-009  0.1451900E+03  0.7561462E-02  0.1206511E+00
         -1   -1    0    0    0  501 -0.00000000000E+00  0.00000000000E+00  0.11051553761E+03  0.11051553761E+03  0.00000000000E+00 0.  1.
          1   -1    0    0  501    0  0.00000000000E+00 -0.00000000000E+00 -0.57512816136E+03  0.57512816136E+03  0.00000000000E+00 0. -1.
         25    2    1    2    0    0  0.30851383187E+02  0.10147182025E+03  0.34097709374E+02  0.16750734228E+03  0.12509083813E+03 0.  0.
         23    2    1    2    0    0 -0.30851383187E+02 -0.10147182025E+03 -0.49871033313E+03  0.51813635669E+03  0.92222283711E+02 0.  0.
          5    1    3    3  502    0 -0.46683849811E+02  0.19434512110E+02  0.58844667095E+01  0.51080147245E+02  0.41800000000E+01 0. -1.
         -5    1    3    3    0  502  0.77535232998E+02  0.82037308136E+02  0.28213242665E+02  0.11642719504E+03  0.41800000000E+01 0. -1.
        -11    1    4    4    0    0 -0.20902774676E+02 -0.11097402624E+03 -0.48744617040E+03  0.50035580293E+03  0.00000000000E+00 0. -1.
         11    1    4    4    0    0 -0.99486085115E+01  0.95022059984E+01 -0.11264162725E+02  0.17780553761E+02  0.00000000000E+00 0.  1.
</event>
<event>
 8    1  0.7232317E-009  0.9004692E+02  0.7561462E-02  0.1302738E+00
         -2   -1    0    0    0  501 -0.00000000000E+00  0.00000000000E+00  0.32429298951E+02  0.32429298951E+02  0.00000000000E+00 0.  1.
          2   -1    0    0  501    0  0.00000000000E+00 -0.00000000000E+00 -0.41186612556E+03  0.41186612556E+03  0.00000000000E+00 0. -1.
         25    2    1    2    0    0  0.19124130819E+02 -0.32962038154E+02 -0.23074396474E+03  0.26523661557E+03  0.12512176724E+03 0.  0.
         23    2    1    2    0    0 -0.19124130819E+02  0.32962038154E+02 -0.14869286186E+03  0.17905880894E+03  0.92196863013E+02 0.  0.
          5    1    3    3  502    0 -0.46706052045E+02 -0.27930714959E+01 -0.14762457510E+03  0.15491850799E+03  0.41800000000E+01 0. -1.
         -5    1    3    3    0  502  0.65830182864E+02 -0.30168966658E+02 -0.83119389645E+02  0.11031810758E+03  0.41800000000E+01 0. -1.
        -11    1    4    4    0    0 -0.34960559883E+02  0.23715099506E+02 -0.15422331229E+03  0.15990458638E+03  0.00000000000E+00 0. -1.
         11    1    4    4    0    0  0.15836429063E+02  0.92469386476E+01  0.55304504250E+01  0.19154222556E+02  0.00000000000E+00 0.  1.
</event>
<event>
 8    1  0.7232317E-009  0.1052603E+03  0.7561462E-02  0.1269608E+00
         -2   -1    0    0    0  501 -0.00000000000E+00  0.00000000000E+00  0.15195714180E+03  0.15195714180E+03  0.00000000000E+00 0.  1.
          2   -1    0    0  501    0  0.00000000000E+00 -0.00000000000E+00 -0.10019741789E+03  0.10019741789E+03  0.00000000000E+00 0. -1.
         25    2    1    2    0    0  0.45681747085E+02 -0.30166320304E+02  0.47805695280E+02  0.14467306270E+03  0.12509229262E+03 0.  0.
         23    2    1    2    0    0 -0.45681747085E+02  0.30166320304E+02  0.39540286303E+01  0.10748149698E+03  0.92411086746E+02 0.  0.
          5    1    3    3  502    0 -0.34167146505E+02  0.97793855142E+01 -0.11289354542E+02  0.37522689233E+02  0.41800000000E+01 0. -1.
         -5    1    3    3    0  502  0.79848893589E+02 -0.39945705819E+02  0.59095049822E+02  0.10715037347E+03  0.41800000000E+01 0. -1.
        -11    1    4    4    0    0  0.23598304205E+01  0.36784435279E+02 -0.30623534398E+02  0.47921439225E+02  0.00000000000E+00 0. -1.
         11    1    4    4    0    0 -0.48041577505E+02 -0.66181149744E+01  0.34577563028E+02  0.59560057757E+02  0.00000000000E+00 0.  1.
</event>
<event>
 8    1  0.7232317E-009  0.8259356E+02  0.7561462E-02  0.1321848E+00
          2   -1    0    0  501    0  0.00000000000E+00  0.00000000000E+00  0.97395827508E+03  0.97395827508E+03  0.00000000000E+00 0. -1.
         -2   -1    0    0    0  501 -0.00000000000E+00 -0.00000000000E+00 -0.18965685117E+02  0.18965685117E+02  0.00000000000E+00 0.  1.
         25    2    1    2    0    0 -0.38198548184E+02  0.33407912827E+02  0.84027278200E+03  0.85104695087E+03  0.12508935488E+03 0.  0.
         23    2    1    2    0    0  0.38198548184E+02 -0.33407912827E+02  0.11471980796E+03  0.14187700932E+03  0.66281473365E+02 0.  0.
          5    1    3    3  502    0 -0.51178580689E+02  0.39926493763E+01  0.12711830648E+03  0.13715584060E+03  0.41800000000E+01 0.  1.
         -5    1    3    3    0  502  0.12980032505E+02  0.29415263451E+02  0.71315447552E+03  0.71389111027E+03  0.41800000000E+01 0.  1.
        -11    1    4    4    0    0  0.35380719079E+02 -0.51758210469E+02  0.10066178498E+03  0.11858963947E+03  0.00000000000E+00 0. -1.
         11    1    4    4    0    0  0.28178291053E+01  0.18350297642E+02  0.14058022980E+02  0.23287369850E+02  0.00000000000E+00 0.  1.
</event>
<event>
 8    1  0.7232317E-009  0.1251748E+03  0.7561462E-02  0.1234796E+00
          2   -1    0    0  501    0  0.00000000000E+00  0.00000000000E+00  0.10600815813E+04  0.10600815813E+04  0.00000000000E+00 0. -1.
         -2   -1    0    0    0  501 -0.00000000000E+00 -0.00000000000E+00 -0.21590770863E+02  0.21590770863E+02  0.00000000000E+00 0.  1.
         25    2    1    2    0    0 -0.99848282917E+02 -0.36881991558E+02  0.56900591782E+03  0.59223740377E+03  0.12508975584E+03 0.  0.
         23    2    1    2    0    0  0.99848282917E+02  0.36881991558E+02  0.46948489264E+03  0.48943494841E+03  0.88320685037E+02 0.  0.
          5    1    3    3  502    0 -0.32671502494E+01 -0.16965819275E+02  0.34178128085E+01  0.18101578352E+02  0.41800000000E+01 0.  1.
         -5    1    3    3    0  502 -0.96581132667E+02 -0.19916172283E+02  0.56558810501E+03  0.57413582542E+03  0.41800000000E+01 0.  1.
        -11    1    4    4    0    0 -0.14406075500E+02  0.50581163442E+01  0.24105730860E+02  0.28534291871E+02  0.00000000000E+00 0.  1.
         11    1    4    4    0    0  0.11425435842E+03  0.31823875214E+02  0.44537916178E+03  0.46090065654E+03  0.00000000000E+00 0. -1.
</event>
<event>
 8    1  0.7232317E-009  0.1303469E+03  0.7561462E-02  0.1226942E+00
          1   -1    0    0  501    0  0.00000000000E+00  0.00000000000E+00  0.61226135058E+03  0.61226135058E+03  0.00000000000E+00 0. -1.
         -1   -1    0    0    0  501 -0.00000000000E+00 -0.00000000000E+00 -0.42785174938E+02  0.42785174938E+02  0.00000000000E+00 0.  1.
         25    2    1    2    0    0  0.85061341622E+02 -0.73925985570E+02  0.37724641492E+03  0.41311372308E+03  0.12509039710E+03 0.  0.
         23    2    1    2    0    0 -0.85061341622E+02  0.73925985570E+02  0.19222976071E+03  0.24193280243E+03  0.94226943105E+02 0.  0.
          5    1    3    3  502    0  0.12819657966E+02  0.19479465465E+02  0.19157745256E+03  0.19303674763E+03  0.41800000000E+01 0.  1.
         -5    1    3    3    0  502  0.72241683656E+02 -0.93405451035E+02  0.18566896236E+03  0.22007697545E+03  0.41800000000E+01 0.  1.
        -11    1    4    4    0    0 -0.47832258505E+02  0.16872476693E+02  0.16303675761E+02  0.53276779808E+02  0.00000000000E+00 0.  1.
         11    1    4    4    0    0 -0.37229083118E+02  0.57053508877E+02  0.17592608495E+03  0.18865602262E+03  0.00000000000E+00 0. -1.
</event>
<event>
 8    1  0.7232317E-009  0.1792201E+03  0.7561462E-02  0.1168560E+00
          2   -1    0    0  501    0  0.00000000000E+00  0.00000000000E+00  0.12216818096E+04  0.12216818096E+04  0.00000000000E+00 0. -1.
         -2   -1    0    0    0  501 -0.00000000000E+00 -0.00000000000E+00 -0.33037216753E+02  0.33037216753E+02  0.00000000000E+00 0.  1.
         25    2    1    2    0    0  0.16663723005E+03 -0.20642869121E+02  0.68979071975E+03  0.72086970606E+03  0.12509117306E+03 0.  0.
         23    2    1    2    0    0 -0.16663723005E+03  0.20642869121E+02  0.49885387307E+03  0.53384932027E+03  0.89139304404E+02 0.  0.
          5    1    3    3  502    0  0.26408713947E+02 -0.46760846983E+01  0.37360458375E+03  0.37458929955E+03  0.41800000000E+01 0. -1.
         -5    1    3    3    0  502  0.14022851610E+03 -0.15966784422E+02  0.31618613600E+03  0.34628040651E+03  0.41800000000E+01 0. -1.
        -11    1    4    4    0    0 -0.85085418009E+02  0.55313693010E+02  0.26447249301E+03  0.28327518873E+03  0.00000000000E+00 0.  1.
         11    1    4    4    0    0 -0.81551812036E+02 -0.34670823890E+02  0.23438138006E+03  0.25057413154E+03  0.00000000000E+00 0. -1.
</event>
<event>
 8    1  0.7232317E-009  0.2698477E+03  0.7561462E-02  0.1101367E+00
         -2   -1    0    0    0  501 -0.00000000000E+00  0.00000000000E+00  0.31158249431E+02  0.31158249431E+02  0.00000000000E+00 0.  1.
          2   -1    0    0  501    0  0.00000000000E+00 -0.00000000000E+00 -0.27155247281E+04  0.27155247281E+04  0.00000000000E+00 0. -1.
         25    2    1    2    0    0  0.21681850423E+03  0.14516953252E+03 -0.16919532869E+04  0.17165194885E+04  0.12509505310E+03 0.  0.
         23    2    1    2    0    0 -0.21681850423E+03 -0.14516953252E+03 -0.99241319177E+03  0.10301634891E+04  0.90930820102E+02 0.  0.
          5    1    3    3  502    0  0.10354483466E+01 -0.11150046167E+02 -0.18806614522E+02  0.22283555205E+02  0.41800000000E+01 0.  1.
         -5    1    3    3    0  502  0.21578305588E+03  0.15631957869E+03 -0.16731466724E+04  0.16942359333E+04  0.41800000000E+01 0.  1.
        -11    1    4    4    0    0 -0.16719921913E+03 -0.10521708365E+03 -0.87021746049E+03  0.89235903207E+03  0.00000000000E+00 0. -1.
         11    1    4    4    0    0 -0.49619285091E+02 -0.39952448867E+02 -0.12219573127E+03  0.13780445699E+03  0.00000000000E+00 0.  1.
</event>
<event>
 8    1  0.7232317E-009  0.5281088E+02  0.7561462E-02  0.1430744E+00
         -1   -1    0    0    0  501 -0.00000000000E+00  0.00000000000E+00  0.47435086592E+02  0.47435086592E+02  0.00000000000E+00 0.  1.
          1   -1    0    0  501    0  0.00000000000E+00 -0.00000000000E+00 -0.28200509187E+03  0.28200509187E+03  0.00000000000E+00 0. -1.
         25    2    1    2    0    0 -0.15629350333E+02  0.11444288738E+01 -0.18455779088E+03  0.22350674404E+03  0.12509236646E+03 0.  0.
         23    2    1    2    0    0  0.15629350333E+02 -0.11444288738E+01 -0.50012214401E+02  0.10593343443E+03  0.92060222849E+02 0.  0.
          5    1    3    3  502    0  0.22099949544E+02  0.37990164099E+01 -0.18404222115E+03  0.18545040270E+03  0.41800000000E+01 0. -1.
         -5    1    3    3    0  502 -0.37729299877E+02 -0.26545875361E+01 -0.51556973275E+00  0.38056341342E+02  0.41800000000E+01 0. -1.
        -11    1    4    4    0    0 -0.38497532387E+01 -0.18361771936E+02 -0.70424064898E+02  0.72880204345E+02  0.00000000000E+00 0. -1.
         11    1    4    4    0    0  0.19479103572E+02  0.17217343062E+02  0.20411850498E+02  0.33053230081E+02  0.00000000000E+00 0.  1.
</event>
<event>
 8    1  0.7232317E-009  0.1464427E+03  0.7561462E-02  0.1204914E+00
         -1   -1    0    0    0  501 -0.00000000000E+00  0.00000000000E+00  0.35842875675E+02  0.35842875675E+02  0.00000000000E+00 0.  1.
          1   -1    0    0  501    0  0.00000000000E+00 -0.00000000000E+00 -0.66760074745E+03  0.66760074745E+03  0.00000000000E+00 0. -1.
         25    2    1    2    0    0  0.80439221523E+02 -0.74653180352E+02 -0.33862599387E+03  0.37730393606E+03  0.12508849164E+03 0.  0.
         23    2    1    2    0    0 -0.80439221523E+02  0.74653180352E+02 -0.29313187790E+03  0.32613968707E+03  0.91636411671E+02 0.  0.
          5    1    3    3  502    0  0.11001827367E+03 -0.53476202489E+02 -0.20507709298E+03  0.23882590152E+03  0.41800000000E+01 0. -1.
         -5    1    3    3    0  502 -0.29579052146E+02 -0.21176977863E+02 -0.13354890090E+03  0.13847803453E+03  0.41800000000E+01 0. -1.
        -11    1    4    4    0    0 -0.15041576758E+02  0.66248378758E+02 -0.20573128709E+03  0.21665746977E+03  0.00000000000E+00 0.  1.
         11    1    4    4    0    0 -0.65397644765E+02  0.84048015939E+01 -0.87400590812E+02  0.10948221730E+03  0.00000000000E+00 0. -1.
</event>
<event>
 7    1  0.7232317E-009  0.1447969E+03  0.7561462E-02  0.1207016E+00
         -3   -1    0    0    0  501 -0.00000000000E+00  0.00000000000E+00  0.40069105417E+03  0.40069105417E+03  0.00000000000E+00 0.  1.
          3   -1    0    0  501    0  0.00000000000E+00 -0.00000000000E+00 -0.10234211792E+03  0.10234211792E+03  0.00000000000E+00 0. -1.
         25    2    1    2    0    0 -0.26269043711E+02 -0.12854179171E+03  0.92420262061E+01  0.18151042411E+03  0.12509022399E+03 0.  0.
          5    1    3    3  502    0  0.21788233945E+02 -0.88413283567E+02 -0.42126523566E+02  0.10041788803E+03  0.41800000000E+01 0. -1.
         -5    1    3    3    0  502 -0.48057277656E+02 -0.40128508140E+02  0.51368549772E+02  0.81092536074E+02  0.41800000000E+01 0. -1.
        -11    1    1    2    0    0 -0.75767889480E+01  0.10875627484E+02  0.63148385234E+02  0.64524457081E+02  0.00000000000E+00 0.  1.
         11    1    1    2    0    0  0.33845832659E+02  0.11766616422E+03  0.22595852481E+03  0.25699829090E+03  0.00000000000E+00 0. -1.
</event>
<event>
 8    1  0.7232317E-009  0.1107958E+03  0.7561462E-02  0.1259103E+00
          2   -1    0    0  501    0  0.00000000000E+00  0.00000000000E+00  0.15783570717E+03  0.15783570717E+03  0.00000000000E+00 0. -1.
         -2   -1    0    0    0  501 -0.00000000000E+00 -0.00000000000E+00 -0.80466171148E+02  0.80466171148E+02  0.00000000000E+00 0.  1.
         25    2    1    2    0    0  0.17580209450E+02  0.21495990208E+02  0.32735732274E+02  0.13225159200E+03  0.12509082324E+03 0.  0.
         23    2    1    2    0    0 -0.17580209450E+02 -0.21495990208E+02  0.44633803745E+02  0.10605028632E+03  0.92105078212E+02 0.  0.
          5    1    3    3  502    0  0.24661652002E+02  0.71500052063E+02  0.89651268161E+01  0.76277784599E+02  0.41800000000E+01 0.  1.
         -5    1    3    3    0  502 -0.70814425522E+01 -0.50004061855E+02  0.23770605458E+02  0.55973807397E+02  0.41800000000E+01 0.  1.
        -11    1    4    4    0    0  0.35401065521E+02  0.52985306232E+01  0.93912650842E+01  0.37006833514E+02  0.00000000000E+00 0.  1.
         11    1    4    4    0    0 -0.52981274972E+02 -0.26794520831E+02  0.35242538660E+02  0.69043452806E+02  0.00000000000E+00 0. -1.
</event>
<event>
 8    1  0.7232317E-009  0.1040606E+03  0.7561462E-02  0.1271982E+00
          4   -1    0    0  501    0  0.00000000000E+00  0.00000000000E+00  0.15371581426E+03  0.15371581426E+03  0.00000000000E+00 0. -1.
         -4   -1    0    0    0  501 -0.00000000000E+00 -0.00000000000E+00 -0.13252988083E+03  0.13252988083E+03  0.00000000000E+00 0.  1.
         25    2    1    2    0    0  0.46121549872E+02  0.48908982969E+02  0.80160429325E+02  0.16307265548E+03  0.12509080924E+03 0.  0.
         23    2    1    2    0    0 -0.46121549872E+02 -0.48908982969E+02 -0.58974495890E+02  0.12317303961E+03  0.84701360939E+02 0.  0.
          5    1    3    3  502    0  0.66760899808E+00  0.83463331820E+02  0.37094955069E+02  0.91433481569E+02  0.41800000000E+01 0.  1.
         -5    1    3    3    0  502  0.45453940873E+02 -0.34554348851E+02  0.43065474256E+02  0.71639173909E+02  0.41800000000E+01 0.  1.
        -11    1    4    4    0    0 -0.21667136737E+02 -0.25293711982E+02  0.18834323715E+02  0.38261840390E+02  0.00000000000E+00 0. -1.
         11    1    4    4    0    0 -0.24454413134E+02 -0.23615270987E+02 -0.77808819605E+02  0.84911199225E+02  0.00000000000E+00 0.  1.
</event>
<event>
 8    1  0.7232317E-009  0.8021687E+02  0.7561462E-02  0.1328437E+00
          1   -1    0    0  501    0  0.00000000000E+00  0.00000000000E+00  0.85925917319E+03  0.85925917319E+03  0.00000000000E+00 0. -1.
         -1   -1    0    0    0  501 -0.00000000000E+00 -0.00000000000E+00 -0.20504709027E+02  0.20504709027E+02  0.00000000000E+00 0.  1.
         25    2    1    2    0    0  0.12376129870E+02  0.42967355011E+02  0.68026291434E+03  0.69311211822E+03  0.12508962232E+03 0.  0.
         23    2    1    2    0    0 -0.12376129870E+02 -0.42967355011E+02  0.15849154983E+03  0.18665176400E+03  0.87863231504E+02 0.  0.
          5    1    3    3  502    0  0.52142300154E+02  0.12629549459E+02  0.56290938245E+03  0.56547570261E+03  0.41800000000E+01 0.  1.
         -5    1    3    3    0  502 -0.39766170284E+02  0.30337805551E+02  0.11735353188E+03  0.12763641561E+03  0.41800000000E+01 0.  1.
        -11    1    4    4    0    0  0.10295755248E+02 -0.26437343454E+02  0.28644889969E+01  0.28515627334E+02  0.00000000000E+00 0.  1.
         11    1    4    4    0    0 -0.22671885118E+02 -0.16530011557E+02  0.15562706083E+03  0.15813613667E+03  0.00000000000E+00 0. -1.
</event>
<event>
 8    1  0.7232317E-009  0.9077475E+02  0.7561462E-02  0.1300986E+00
         -2   -1    0    0    0  501 -0.00000000000E+00  0.00000000000E+00  0.72328220538E+02  0.72328220538E+02  0.00000000000E+00 0.  1.
          2   -1    0    0  501    0  0.00000000000E+00 -0.00000000000E+00 -0.19695960590E+03  0.19695960590E+03  0.00000000000E+00 0. -1.
         25    2    1    2    0    0  0.13023028759E+02 -0.34204577837E+02 -0.10843391324E+03  0.16953751239E+03  0.12508198170E+03 0.  0.
         23    2    1    2    0    0 -0.13023028759E+02  0.34204577837E+02 -0.16197472125E+02  0.99750314045E+02  0.91368564757E+02 0.  0.
          5    1    3    3  502    0 -0.39369195389E+02 -0.27563418466E+02 -0.10605097067E+03  0.11650732322E+03  0.41800000000E+01 0.  1.
         -5    1    3    3    0  502  0.52392224148E+02 -0.66411593711E+01 -0.23829425689E+01  0.53030189178E+02  0.41800000000E+01 0.  1.
        -11    1    4    4    0    0  0.95740923586E+01  0.51181008772E+02  0.18265740866E+02  0.55179671916E+02  0.00000000000E+00 0.  1.
         11    1    4    4    0    0 -0.22597121118E+02 -0.16976430935E+02 -0.34463212990E+02  0.44570642128E+02  0.00000000000E+00 0. -1.
</event>
<event>
 8    1  0.7232317E-009  0.1545922E+03  0.7561462E-02  0.1194941E+00
          2   -1    0    0  501    0  0.00000000000E+00  0.00000000000E+00  0.10661391497E+04  0.10661391497E+04  0.00000000000E+00 0.  1.
         -2   -1    0    0    0  501 -0.00000000000E+00 -0.00000000000E+00 -0.26980261740E+02  0.26980261740E+02  0.00000000000E+00 0. -1.
         25    2    1    2    0    0 -0.60290026647E+02  0.97116704559E+02  0.74994534016E+03  0.76885219906E+03  0.12509655935E+03 0.  0.
         23    2    1    2    0    0  0.60290026647E+02 -0.97116704559E+02  0.28921354775E+03  0.32426721233E+03  0.91859714620E+02 0.  0.
          5    1    3    3  502    0 -0.63868928092E+02 -0.12524566499E+01  0.40816576686E+03  0.41315562959E+03  0.41800000000E+01 0.  1.
         -5    1    3    3    0  502  0.35789014447E+01  0.98369161208E+02  0.34177957329E+03  0.35569656947E+03  0.41800000000E+01 0.  1.
        -11    1    4    4    0    0  0.69893208036E+02 -0.11015064815E+03  0.25683732618E+03  0.28806880765E+03  0.00000000000E+00 0. -1.
         11    1    4    4    0    0 -0.96031813888E+01  0.13033943594E+02  0.32376221569E+02  0.36198404682E+02  0.00000000000E+00 0.  1.
</event>
<event>
 8    1  0.7232317E-009  0.7646847E+02  0.7561462E-02  0.1339383E+00
         -2   -1    0    0    0  501 -0.00000000000E+00  0.00000000000E+00  0.13550534111E+03  0.13550534111E+03  0.00000000000E+00 0.  1.
          2   -1    0    0  501    0  0.00000000000E+00 -0.00000000000E+00 -0.10027575068E+03  0.10027575068E+03  0.00000000000E+00 0. -1.
         25    2    1    2    0    0 -0.19666635290E+02 -0.52773785708E+00  0.59891820770E+02  0.14007757094E+03  0.12509052976E+03 0.  0.
         23    2    1    2    0    0  0.19666635290E+02  0.52773785708E+00 -0.24662230339E+02  0.95703520845E+02  0.90354209896E+02 0.  0.
          5    1    3    3  502    0 -0.35117036802E+02  0.15035032377E+02 -0.29179510726E+02  0.48251162873E+02  0.41800000000E+01 0.  1.
         -5    1    3    3    0  502  0.15450401512E+02 -0.15562770234E+02  0.89071331496E+02  0.91826408068E+02  0.41800000000E+01 0.  1.
        -11    1    4    4    0    0  0.53407452174E+02  0.14994822194E+02 -0.18515181448E+02  0.58480873663E+02  0.00000000000E+00 0.  1.
         11    1    4    4    0    0 -0.33740816884E+02 -0.14467084337E+02 -0.61470488911E+01  0.37222647182E+02  0.00000000000E+00 0. -1.
</event>
<event>
 8    1  0.7232317E-009  0.1057859E+03  0.7561462E-02  0.1268579E+00
          1   -1    0    0  501    0  0.00000000000E+00  0.00000000000E+00  0.11022573542E+03  0.11022573542E+03  0.00000000000E+00 0. -1.
         -1   -1    0    0    0  501 -0.00000000000E+00 -0.00000000000E+00 -0.12075802231E+03  0.12075802231E+03  0.00000000000E+00 0.  1.
         25    2    1    2    0    0  0.36450453738E+02  0.18568274732E+02 -0.22565291126E+02  0.13353157526E+03  0.12509225725E+03 0.  0.
         23    2    1    2    0    0 -0.36450453738E+02 -0.18568274732E+02  0.12033004244E+02  0.97452182468E+02  0.87628296071E+02 0.  0.
          5    1    3    3  502    0  0.77585096001E+02 -0.13616664462E+02 -0.18195251846E+02  0.80953074446E+02  0.41800000000E+01 0. -1.
         -5    1    3    3    0  502 -0.41134642263E+02  0.32184939194E+02 -0.43700392800E+01  0.52578500818E+02  0.41800000000E+01 0. -1.
        -11    1    4    4    0    0 -0.54248175012E+02 -0.27004119506E+02 -0.16479331538E+02  0.62798529683E+02  0.00000000000E+00 0.  1.
         11    1    4    4    0    0  0.17797721274E+02  0.84358447739E+01  0.28512335782E+02  0.34653652785E+02  0.00000000000E+00 0. -1.
</event>
<event>
 8    1  0.7232317E-009  0.1187371E+03  0.7561462E-02  0.1245195E+00
          2   -1    0    0  501    0  0.00000000000E+00  0.00000000000E+00  0.12588026894E+03  0.12588026894E+03  0.00000000000E+00 0. -1.
         -2   -1    0    0    0  501 -0.00000000000E+00 -0.00000000000E+00 -0.15203622018E+03  0.15203622018E+03  0.00000000000E+00 0.  1.
         25    2    1    2    0    0  0.58201604016E+02  0.44261409649E+02  0.28152948683E+02  0.14760146767E+03  0.12508839132E+03 0.  0.
         23    2    1    2    0    0 -0.58201604016E+02 -0.44261409649E+02 -0.54308899923E+02  0.13031502144E+03  0.93198975900E+02 0.  0.
          5    1    3    3  502    0 -0.37609285823E+02  0.17461329346E+02 -0.64764015132E+01  0.42175497380E+02  0.41800000000E+01 0. -1.
         -5    1    3    3    0  502  0.95810889840E+02  0.26800080303E+02  0.34629350196E+02  0.10542597029E+03  0.41800000000E+01 0. -1.
        -11    1    4    4    0    0  0.91567065964E+01  0.70421056025E+01 -0.43439460383E+02  0.44949118405E+02  0.00000000000E+00 0.  1.
         11    1    4    4    0    0 -0.67358310613E+02 -0.51303515252E+02 -0.10869439540E+02  0.85365903039E+02  0.00000000000E+00 0. -1.
</event>
<event>
 8    1  0.7232317E-009  0.1354722E+03  0.7561462E-02  0.1219555E+00
         -1   -1    0    0    0  501 -0.00000000000E+00  0.00000000000E+00  0.13207781436E+03  0.13207781436E+03  0.00000000000E+00 0.  1.
          1   -1    0    0  501    0  0.00000000000E+00 -0.00000000000E+00 -0.26756235328E+03  0.26756235328E+03  0.00000000000E+00 0. -1.
         25    2    1    2    0    0  0.10200680861E+03  0.31693401384E+02  0.44552269611E+02  0.17040443588E+03  0.12507160488E+03 0.  0.
         23    2    1    2    0    0 -0.10200680861E+03 -0.31693401384E+02 -0.18003680853E+03  0.22923573177E+03  0.93412566610E+02 0.  0.
          5    1    3    3  502    0  0.33759550379E+02  0.71681111904E+02  0.44954762371E+02  0.91193706501E+02  0.41800000000E+01 0. -1.
         -5    1    3    3    0  502  0.68247258227E+02 -0.39987710520E+02 -0.40249276036E+00  0.79210729378E+02  0.41800000000E+01 0. -1.
        -11    1    4    4    0    0 -0.48383060782E+02 -0.33314272904E+02 -0.22653344747E+02  0.62959791756E+02  0.00000000000E+00 0.  1.
         11    1    4    4    0    0 -0.53623747823E+02  0.16208715197E+01 -0.15738346378E+03  0.16627594001E+03  0.00000000000E+00 0. -1.
</event>
<event>
 8    1  0.7232317E-009  0.1359745E+03  0.7561462E-02  0.1218850E+00
         -1   -1    0    0    0  501 -0.00000000000E+00  0.00000000000E+00  0.64299720285E+02  0.64299720285E+02  0.00000000000E+00 0.  1.
          1   -1    0    0  501    0  0.00000000000E+00 -0.00000000000E+00 -0.47603858425E+03  0.47603858425E+03  0.00000000000E+00 0. -1.
         25    2    1    2    0    0 -0.62332276766E+02 -0.94797281674E+02 -0.98758647082E+02  0.19563875776E+03  0.12509762517E+03 0.  0.
         23    2    1    2    0    0  0.62332276766E+02  0.94797281674E+02 -0.31298021689E+03  0.34469954678E+03  0.89383018794E+02 0.  0.
          5    1    3    3  502    0  0.13740144284E+02 -0.55955797529E+02 -0.93567375131E+02  0.10996439847E+03  0.41800000000E+01 0. -1.
         -5    1    3    3    0  502 -0.76072421050E+02 -0.38841484145E+02 -0.51912719511E+01  0.85674359288E+02  0.41800000000E+01 0. -1.
        -11    1    4    4    0    0 -0.69241431090E+01  0.39322891898E+02 -0.18308965613E+03  0.18739278472E+03  0.00000000000E+00 0. -1.
         11    1    4    4    0    0  0.69256419875E+02  0.55474389776E+02 -0.12989056076E+03  0.15730676206E+03  0.00000000000E+00 0.  1.
</event>
<event>
 8    1  0.7232317E-009  0.1060034E+03  0.7561462E-02  0.1268155E+00
         -2   -1    0    0    0  501 -0.00000000000E+00  0.00000000000E+00  0.15092250041E+03  0.15092250041E+03  0.00000000000E+00 0.  1.
          2   -1    0    0  501    0  0.00000000000E+00 -0.00000000000E+00 -0.14584282130E+03  0.14584282130E+03  0.00000000000E+00 0. -1.
         25    2    1    2    0    0 -0.11337851437E+02 -0.25747577153E+02 -0.83579412631E+02  0.15305056326E+03  0.12508985607E+03 0.  0.
         23    2    1    2    0    0  0.11337851437E+02  0.25747577153E+02  0.88659091741E+02  0.14371475846E+03  0.10955369755E+03 0.  0.
          5    1    3    3  502    0 -0.55333890849E+02 -0.38310828198E+02 -0.12753076091E+02  0.68627052855E+02  0.41800000000E+01 0. -1.
         -5    1    3    3    0  502  0.43996039412E+02  0.12563251045E+02 -0.70826336540E+02  0.84423510401E+02  0.41800000000E+01 0. -1.
        -11    1    4    4    0    0  0.41130395226E+02  0.46682862255E+02  0.87395886058E+02  0.10728019360E+03  0.00000000000E+00 0.  1.
         11    1    4    4    0    0 -0.29792543788E+02 -0.20935285102E+02  0.12632056837E+01  0.36434564857E+02  0.00000000000E+00 0. -1.
</event>
<event>
 8    1  0.7232317E-009  0.1143474E+03  0.7561462E-02  0.1252724E+00
          1   -1    0    0  501    0  0.00000000000E+00  0.00000000000E+00  0.96451058791E+03  0.96451058791E+03  0.00000000000E+00 0.  1.
         -1   -1    0    0    0  501 -0.00000000000E+00 -0.00000000000E+00 -0.14310833178E+02  0.14310833178E+02  0.00000000000E+00 0. -1.
         25    2    1    2    0    0  0.40494574493E+02  0.35434348119E+01  0.64606179444E+03  0.65931544314E+03  0.12509454358E+03 0.  0.
         23    2    1    2    0    0 -0.40494574493E+02 -0.35434348119E+01  0.30413796029E+03  0.31950597794E+03  0.89060679094E+02 0.  0.
          5    1    3    3  502    0  0.64035190571E+01  0.62607385251E+02  0.32513509319E+03  0.33119630277E+03  0.41800000000E+01 0.  1.
         -5    1    3    3    0  502  0.34091055436E+02 -0.59063950439E+02  0.32092670126E+03  0.32811914038E+03  0.41800000000E+01 0.  1.
        -11    1    4    4    0    0 -0.60099917929E+02 -0.27708665361E+02  0.22269897903E+03  0.23232435415E+03  0.00000000000E+00 0. -1.
         11    1    4    4    0    0  0.19605343437E+02  0.24165230549E+02  0.81438981256E+02  0.87181623791E+02  0.00000000000E+00 0.  1.
</event>
<event>
 8    1  0.7232317E-009  0.1358790E+03  0.7561462E-02  0.1218984E+00
          1   -1    0    0  501    0  0.00000000000E+00  0.00000000000E+00  0.10965002720E+03  0.10965002720E+03  0.00000000000E+00 0. -1.
         -1   -1    0    0    0  501 -0.00000000000E+00 -0.00000000000E+00 -0.19862456690E+03  0.19862456690E+03  0.00000000000E+00 0.  1.
         25    2    1    2    0    0  0.96338361973E+02  0.16236169882E+02 -0.67438525868E+02  0.17245378621E+03  0.12509060879E+03 0.  0.
         23    2    1    2    0    0 -0.96338361973E+02 -0.16236169882E+02 -0.21536013840E+02  0.13582080789E+03  0.91862934651E+02 0.  0.
          5    1    3    3  502    0  0.11772143185E+03  0.11067117637E+02 -0.83572835794E+02  0.14485409173E+03  0.41800000000E+01 0.  1.
         -5    1    3    3    0  502 -0.21383069877E+02  0.51690522457E+01  0.16134309926E+02  0.27599694478E+02  0.41800000000E+01 0.  1.
        -11    1    4    4    0    0 -0.10599217238E+03  0.66617805342E+01 -0.28602961733E+02  0.10998567791E+03  0.00000000000E+00 0.  1.
         11    1    4    4    0    0  0.96538104018E+01 -0.22897950416E+02  0.70669478933E+01  0.25835129980E+02  0.00000000000E+00 0. -1.
</event>
<event>
 8    1  0.7232317E-009  0.1505084E+03  0.7561462E-02  0.1199850E+00
          2   -1    0    0  501    0  0.00000000000E+00  0.00000000000E+00  0.29750089103E+03  0.29750089103E+03  0.00000000000E+00 0. -1.
         -2   -1    0    0    0  501 -0.00000000000E+00 -0.00000000000E+00 -0.12628078793E+03  0.12628078793E+03  0.00000000000E+00 0.  1.
         25    2    1    2    0    0  0.96961344346E+02  0.89595133627E+02 -0.10900636502E+02  0.18219508817E+03  0.12508971185E+03 0.  0.
         23    2    1    2    0    0 -0.96961344346E+02 -0.89595133627E+02  0.18212073960E+03  0.24158659079E+03  0.88132438933E+02 0.  0.
          5    1    3    3  502    0 -0.20729671854E+01  0.62481733003E+02  0.32569558531E+02  0.70615244069E+02  0.41800000000E+01 0. -1.
         -5    1    3    3    0  502  0.99034311531E+02  0.27113400624E+02 -0.43470195033E+02  0.11157984410E+03  0.41800000000E+01 0. -1.
        -11    1    4    4    0    0 -0.13464240427E+02 -0.47338560178E+00 -0.79648190591E+01  0.15650821284E+02  0.00000000000E+00 0.  1.
         11    1    4    4    0    0 -0.83497103919E+02 -0.89121748025E+02  0.19008555865E+03  0.22593576951E+03  0.00000000000E+00 0. -1.
</event>
<event>
 8    1  0.7232317E-009  0.1279167E+03  0.7561462E-02  0.1230580E+00
         -3   -1    0    0    0  501 -0.00000000000E+00  0.00000000000E+00  0.72802816789E+03  0.72802816789E+03  0.00000000000E+00 0.  1.
          3   -1    0    0  501    0  0.00000000000E+00 -0.00000000000E+00 -0.23209046822E+02  0.23209046822E+02  0.00000000000E+00 0. -1.
         25    2    1    2    0    0 -0.30657152884E+01 -0.69256875655E+02  0.37347443269E+03  0.39992054520E+03  0.12508947663E+03 0.  0.
         23    2    1    2    0    0  0.30657152884E+01  0.69256875655E+02  0.33134468839E+03  0.35131666952E+03  0.93958428704E+02 0.  0.
          5    1    3    3  502    0 -0.63046451297E+02 -0.35434309314E+02  0.22088870982E+03  0.23246449154E+03  0.41800000000E+01 0. -1.
         -5    1    3    3    0  502  0.59980736009E+02 -0.33822566341E+02  0.15258572286E+03  0.16745605366E+03  0.41800000000E+01 0. -1.
        -11    1    4    4    0    0 -0.36748607606E+02  0.26995851569E+01  0.76141448627E+02  0.84588817937E+02  0.00000000000E+00 0.  1.
         11    1    4    4    0    0  0.39814322894E+02  0.66557290498E+02  0.25520323976E+03  0.26672785158E+03  0.00000000000E+00 0. -1.
</event>
<event>
 8    1  0.7232317E-009  0.5009255E+02  0.7561462E-02  0.1444843E+00
         -2   -1    0    0    0  501 -0.00000000000E+00  0.00000000000E+00  0.22371420704E+03  0.22371420704E+03  0.00000000000E+00 0.  1.
          2   -1    0    0  501    0  0.00000000000E+00 -0.00000000000E+00 -0.54961944818E+02  0.54961944818E+02  0.00000000000E+00 0. -1.
         25    2    1    2    0    0 -0.17727081381E+02  0.16691390105E+02  0.82365919511E+02  0.15173956715E+03  0.12509156496E+03 0.  0.
         23    2    1    2    0    0  0.17727081381E+02 -0.16691390105E+02  0.86386342710E+02  0.12693658470E+03  0.89763268721E+02 0.  0.
          5    1    3    3  502    0 -0.23579878028E+02  0.17290540854E+02  0.11478625031E+03  0.11852564749E+03  0.41800000000E+01 0. -1.
         -5    1    3    3    0  502  0.58527966469E+01 -0.59915074952E+00 -0.32420330804E+02  0.33213919667E+02  0.41800000000E+01 0. -1.
        -11    1    4    4    0    0  0.29170952292E+02 -0.32656368305E+02  0.95666754748E+02  0.10521174275E+03  0.00000000000E+00 0.  1.
         11    1    4    4    0    0 -0.11443870910E+02  0.15964978200E+02 -0.92804120374E+01  0.21724841954E+02  0.00000000000E+00 0. -1.
</event>
<event>
 8    1  0.7232317E-009  0.1279892E+03  0.7561462E-02  0.1230470E+00
          1   -1    0    0  501    0  0.00000000000E+00  0.00000000000E+00  0.14441737694E+03  0.14441737694E+03  0.00000000000E+00 0. -1.
         -1   -1    0    0    0  501 -0.00000000000E+00 -0.00000000000E+00 -0.17477597610E+03  0.17477597610E+03  0.00000000000E+00 0.  1.
         25    2    1    2    0    0 -0.11414536476E+03 -0.87595329271E+01 -0.29348126157E+02  0.17208765220E+03  0.12508778445E+03 0.  0.
         23    2    1    2    0    0  0.11414536476E+03  0.87595329271E+01 -0.10104730017E+01  0.14710570084E+03  0.92375172258E+02 0.  0.
          5    1    3    3  502    0 -0.11017736350E+03 -0.90629292880E+01  0.28268208243E+02  0.11418297646E+03  0.41800000000E+01 0. -1.
         -5    1    3    3    0  502 -0.39680012563E+01  0.30339636094E+00 -0.57616334400E+02  0.57904675744E+02  0.41800000000E+01 0. -1.
        -11    1    4    4    0    0  0.45858705805E+02 -0.35680718235E+02  0.22497885284E+02  0.62308020304E+02  0.00000000000E+00 0. -1.
         11    1    4    4    0    0  0.68286658955E+02  0.44440251162E+02 -0.23508358285E+02  0.84797680534E+02  0.00000000000E+00 0.  1.
</event>
<event>
 8    1  0.7232317E-009  0.1464658E+03  0.7561462E-02  0.1204884E+00
         -1   -1    0    0    0  501 -0.00000000000E+00  0.00000000000E+00  0.12865733383E+03  0.12865733383E+03  0.00000000000E+00 0.  1.
          1   -1    0    0  501    0  0.00000000000E+00 -0.00000000000E+00 -0.25470276319E+03  0.25470276319E+03  0.00000000000E+00 0. -1.
         25    2    1    2    0    0 -0.89483703132E+02 -0.63219804642E+02 -0.16705765273E+03  0.23571125790E+03  0.12508981150E+03 0.  0.
         23    2    1    2    0    0  0.89483703132E+02  0.63219804642E+02  0.41012223379E+02  0.14764883912E+03  0.90078301501E+02 0.  0.
          5    1    3    3  502    0 -0.29383672911E+02  0.37984204313E+02 -0.55121884323E+02  0.73226324108E+02  0.41800000000E+01 0. -1.
         -5    1    3    3    0  502 -0.60100030221E+02 -0.10120400896E+03 -0.11193576841E+03  0.16248493380E+03  0.41800000000E+01 0. -1.
        -11    1    4    4    0    0  0.54723612988E+02 -0.90565852089E-01  0.50917003833E+02  0.74747731069E+02  0.00000000000E+00 0.  1.
         11    1    4    4    0    0  0.34760090144E+02  0.63310370495E+02 -0.99047804543E+01  0.72901108049E+02  0.00000000000E+00 0. -1.
</event>
<event>
 8    1  0.7232317E-009  0.1014430E+03  0.7561462E-02  0.1277290E+00
          2   -1    0    0  501    0  0.00000000000E+00  0.00000000000E+00  0.36413907641E+03  0.36413907641E+03  0.00000000000E+00 0. -1.
         -2   -1    0    0    0  501 -0.00000000000E+00 -0.00000000000E+00 -0.36625478277E+02  0.36625478277E+02  0.00000000000E+00 0.  1.
         25    2    1    2    0    0 -0.26562259609E+02 -0.15135192715E+02  0.22951266858E+03  0.26316716009E+03  0.12508501675E+03 0.  0.
         23    2    1    2    0    0  0.26562259609E+02  0.15135192715E+02  0.98000929553E+02  0.13759739460E+03  0.91620047550E+02 0.  0.
          5    1    3    3  502    0 -0.73797101501E+02  0.87683395090E+01  0.11569353483E+03  0.13756948197E+03  0.41800000000E+01 0.  1.
         -5    1    3    3    0  502  0.47234841891E+02 -0.23903532224E+02  0.11381913375E+03  0.12559767812E+03  0.41800000000E+01 0.  1.
        -11    1    4    4    0    0  0.16644719087E+02 -0.27188480500E+02  0.87144134805E+02  0.92792027547E+02  0.00000000000E+00 0.  1.
         11    1    4    4    0    0  0.99175405226E+01  0.42323673215E+02  0.10856794748E+02  0.44805367052E+02  0.00000000000E+00 0. -1.
</event>
<event>
 7    1  0.7232317E-009  0.1153349E+03  0.7561462E-02  0.1250998E+00
         -2   -1    0    0    0  501 -0.00000000000E+00  0.00000000000E+00  0.26655218197E+03  0.26655218197E+03  0.00000000000E+00 0.  1.
          2   -1    0    0  501    0  0.00000000000E+00 -0.00000000000E+00 -0.15750624080E+03  0.15750624080E+03  0.00000000000E+00 0. -1.
         23    2    1    2    0    0  0.49599531867E+02  0.43439710657E+02  0.22119451013E+03  0.24336353792E+03  0.77147120825E+02 0.  0.
          5    1    1    2  502    0 -0.84426606699E+02 -0.43295653232E+02 -0.11032129575E+03  0.14557000447E+03  0.41800000000E+01 0.  1.
         -5    1    1    2    0  502  0.34827074832E+02 -0.14405742535E+00 -0.18272732129E+01  0.35124880374E+02  0.41800000000E+01 0.  1.
        -11    1    3    3    0    0 -0.14227936301E+02  0.33009971785E+02  0.94745524203E+02  0.10133512108E+03  0.00000000000E+00 0.  1.
         11    1    3    3    0    0  0.63827468167E+02  0.10429738872E+02  0.12644898593E+03  0.14202841683E+03  0.00000000000E+00 0. -1.
</event>
<event>
 8    1  0.7232317E-009  0.1202391E+03  0.7561462E-02  0.1242703E+00
         -1   -1    0    0    0  501 -0.00000000000E+00  0.00000000000E+00  0.30044511208E+02  0.30044511208E+02  0.00000000000E+00 0.  1.
          1   -1    0    0  501    0  0.00000000000E+00 -0.00000000000E+00 -0.67975654449E+03  0.67975654449E+03  0.00000000000E+00 0. -1.
         25    2    1    2    0    0 -0.36822647427E+02  0.66439366185E+02 -0.22166718768E+03  0.26561972847E+03  0.12508957317E+03 0.  0.
         23    2    1    2    0    0  0.36822647427E+02 -0.66439366185E+02 -0.42804484560E+03  0.44418132723E+03  0.91129385319E+02 0.  0.
          5    1    3    3  502    0  0.60442297449E+01 -0.30648812342E+02 -0.18984573504E+02  0.36793597844E+02  0.41800000000E+01 0. -1.
         -5    1    3    3    0  502 -0.42866877172E+02  0.97088178527E+02 -0.20268261418E+03  0.22882613063E+03  0.41800000000E+01 0. -1.
        -11    1    4    4    0    0  0.51615001761E+02 -0.22355474221E+02 -0.33990621006E+03  0.34452881922E+03  0.00000000000E+00 0. -1.
         11    1    4    4    0    0 -0.14792354333E+02 -0.44083891964E+02 -0.88138635541E+02  0.99652508009E+02  0.00000000000E+00 0.  1.
</event>
<event>
 8    1  0.7232317E-009  0.2468408E+03  0.7561462E-02  0.1115318E+00
          1   -1    0    0  501    0  0.00000000000E+00  0.00000000000E+00  0.27056241839E+04  0.27056241839E+04  0.00000000000E+00 0. -1.
         -1   -1    0    0    0  501 -0.00000000000E+00 -0.00000000000E+00 -0.26429398004E+02  0.26429398004E+02  0.00000000000E+00 0.  1.
         25    2    1    2    0    0 -0.13480705614E+03 -0.19829369164E+03  0.15938958189E+04  0.16166772497E+04  0.12509243672E+03 0.  0.
         23    2    1    2    0    0  0.13480705614E+03  0.19829369164E+03  0.10852989671E+04  0.11153763322E+04  0.93258694526E+02 0.  0.
          5    1    3    3  502    0 -0.19276015107E+02 -0.38779994882E+02  0.69906646448E+03  0.70041905095E+03  0.41800000000E+01 0. -1.
         -5    1    3    3    0  502 -0.11553104104E+03 -0.15951369676E+03  0.89482935438E+03  0.91625819874E+03  0.41800000000E+01 0. -1.
        -11    1    4    4    0    0  0.63236116288E+02  0.15990828239E+03  0.63817141534E+03  0.66093284117E+03  0.00000000000E+00 0. -1.
         11    1    4    4    0    0  0.71570939854E+02  0.38385409251E+02  0.44712755172E+03  0.45444349107E+03  0.00000000000E+00 0.  1.
</event>
<event>
 8    1  0.7232317E-009  0.6999814E+02  0.7561462E-02  0.1360099E+00
         -1   -1    0    0    0  501 -0.00000000000E+00  0.00000000000E+00  0.17980635973E+03  0.17980635973E+03  0.00000000000E+00 0.  1.
          1   -1    0    0  501    0  0.00000000000E+00 -0.00000000000E+00 -0.10723090555E+03  0.10723090555E+03  0.00000000000E+00 0. -1.
         25    2    1    2    0    0 -0.32738585998E+01 -0.24305137533E+02 -0.45179516795E+02  0.13524575658E+03  0.12509503617E+03 0.  0.
         23    2    1    2    0    0  0.32738585998E+01  0.24305137533E+02  0.11775497097E+03  0.15179150870E+03  0.92590340020E+02 0.  0.
          5    1    3    3  502    0 -0.13353910412E+02  0.61572858996E+01 -0.83616163003E+02  0.85002201197E+02  0.41800000000E+01 0.  1.
         -5    1    3    3    0  502  0.10080051812E+02 -0.30462423433E+02  0.38436646209E+02  0.50243555385E+02  0.41800000000E+01 0.  1.
        -11    1    4    4    0    0 -0.32042916885E+02 -0.18387354466E+02  0.28176764321E+02  0.46462601890E+02  0.00000000000E+00 0. -1.
         11    1    4    4    0    0  0.35316775485E+02  0.42692491999E+02  0.89578206644E+02  0.10532890681E+03  0.00000000000E+00 0.  1.
</event>
<event>
 8    1  0.7232317E-009  0.9102220E+02  0.7561462E-02  0.1300395E+00
         -1   -1    0    0    0  501 -0.00000000000E+00  0.00000000000E+00  0.10706513691E+03  0.10706513691E+03  0.00000000000E+00 0.  1.
          1   -1    0    0  501    0  0.00000000000E+00 -0.00000000000E+00 -0.13090251099E+03  0.13090251099E+03  0.00000000000E+00 0. -1.
         25    2    1    2    0    0  0.21752336569E+02 -0.67041853962E+01 -0.56764180792E+02  0.13927072638E+03  0.12512414937E+03 0.  0.
         23    2    1    2    0    0 -0.21752336569E+02  0.67041853962E+01  0.32926806709E+02  0.98696921530E+02  0.90215284023E+02 0.  0.
          5    1    3    3  502    0 -0.32084330383E+02 -0.13397892805E+02  0.23592240562E+02  0.42225276819E+02  0.41800000000E+01 0.  1.
         -5    1    3    3    0  502  0.53836666952E+02  0.66937074087E+01 -0.80356421353E+02  0.97045449559E+02  0.41800000000E+01 0.  1.
        -11    1    4    4    0    0  0.18232318503E+01 -0.40134238558E+02  0.96072506093E+01  0.41308359242E+02  0.00000000000E+00 0. -1.
         11    1    4    4    0    0 -0.23575568419E+02  0.46838423954E+02  0.23319556100E+02  0.57388562288E+02  0.00000000000E+00 0.  1.
</event>
<event>
 8    1  0.7232317E-009  0.1135755E+03  0.7561462E-02  0.1254088E+00
         -2   -1    0    0    0  501 -0.00000000000E+00  0.00000000000E+00  0.21003152506E+02  0.21003152506E+02  0.00000000000E+00 0. -1.
          2   -1    0    0  501    0  0.00000000000E+00 -0.00000000000E+00 -0.95850363251E+03  0.95850363251E+03  0.00000000000E+00 0.  1.
         25    2    1    2    0    0  0.12051910860E+02 -0.57551660953E+02 -0.74148971328E+03  0.75426293709E+03  0.12509253031E+03 0.  0.
         23    2    1    2    0    0 -0.12051910860E+02  0.57551660953E+02 -0.19601076672E+03  0.22524384792E+03  0.94112316523E+02 0.  0.
          5    1    3    3  502    0  0.27353837532E+02  0.21943378489E+02 -0.45944552970E+03  0.46080083708E+03  0.41800000000E+01 0.  1.
         -5    1    3    3    0  502 -0.15301926672E+02 -0.79495039442E+02 -0.28204418357E+03  0.29346210001E+03  0.41800000000E+01 0.  1.
        -11    1    4    4    0    0 -0.29645533941E+02  0.78208690582E+02 -0.15361106124E+03  0.17490516030E+03  0.00000000000E+00 0.  1.
         11    1    4    4    0    0  0.17593623081E+02 -0.20657029628E+02 -0.42399705482E+02  0.50338687618E+02  0.00000000000E+00 0. -1.
</event>
<event>
 8    1  0.7232317E-009  0.9269644E+02  0.7561462E-02  0.1296450E+00
          1   -1    0    0  501    0  0.00000000000E+00  0.00000000000E+00  0.43246981670E+02  0.43246981670E+02  0.00000000000E+00 0. -1.
         -1   -1    0    0    0  501 -0.00000000000E+00 -0.00000000000E+00 -0.31616743120E+03  0.31616743120E+03  0.00000000000E+00 0.  1.
         25    2    1    2    0    0  0.31564286157E+02  0.33733300403E+02 -0.16226191955E+03  0.21003033625E+03  0.12509824896E+03 0.  0.
         23    2    1    2    0    0 -0.31564286157E+02 -0.33733300403E+02 -0.11065852998E+03  0.14938407662E+03  0.89084523762E+02 0.  0.
          5    1    3    3  502    0 -0.48068172188E+02  0.52663833395E+01 -0.63947371738E+02  0.80280898869E+02  0.41800000000E+01 0.  1.
         -5    1    3    3    0  502  0.79632458345E+02  0.28466917063E+02 -0.98314547817E+02  0.12974943738E+03  0.41800000000E+01 0.  1.
        -11    1    4    4    0    0 -0.28898560931E+02 -0.13709890936E+02  0.46478591996E+01  0.32321672737E+02  0.00000000000E+00 0. -1.
         11    1    4    4    0    0 -0.26657252260E+01 -0.20023409467E+02 -0.11530638918E+03  0.11706240388E+03  0.00000000000E+00 0.  1.
</event>
<event>
 7    1  0.7232317E-009  0.1191152E+03  0.7561462E-02  0.1244564E+00
          2   -1    0    0  501    0  0.00000000000E+00  0.00000000000E+00  0.34581911599E+03  0.34581911599E+03  0.00000000000E+00 0. -1.
         -2   -1    0    0    0  501 -0.00000000000E+00 -0.00000000000E+00 -0.59295057678E+02  0.59295057678E+02  0.00000000000E+00 0.  1.
         23    2    1    2    0    0 -0.80864093097E+02  0.36948609833E+01  0.19465708977E+03  0.23001955541E+03  0.92005215743E+02 0.  0.
          5    1    1    2  502    0 -0.30892446562E+02  0.43540873829E+01  0.41733723120E+02  0.52273103763E+02  0.41800000000E+01 0. -1.
         -5    1    1    2    0  502  0.11175653966E+03 -0.80489483662E+01  0.50133245427E+02  0.12282151450E+03  0.41800000000E+01 0. -1.
        -11    1    3    3    0    0 -0.49662803658E+02 -0.21896772518E+02  0.33264368242E+02  0.63658313741E+02  0.00000000000E+00 0.  1.
         11    1    3    3    0    0 -0.31201289439E+02  0.25591633502E+02  0.16139272152E+03  0.16636124167E+03  0.00000000000E+00 0. -1.
</event>
<event>
 8    1  0.7232317E-009  0.2866310E+03  0.7561462E-02  0.1092121E+00
          2   -1    0    0  501    0  0.00000000000E+00  0.00000000000E+00  0.24679645737E+03  0.24679645737E+03  0.00000000000E+00 0.  1.
         -2   -1    0    0    0  501 -0.00000000000E+00 -0.00000000000E+00 -0.45058533104E+03  0.45058533104E+03  0.00000000000E+00 0. -1.
         25    2    1    2    0    0 -0.65444104152E+02  0.26484488375E+03 -0.26959520312E+03  0.40342757404E+03  0.12508593339E+03 0.  0.
         23    2    1    2    0    0  0.65444104152E+02 -0.26484488375E+03  0.65806329452E+02  0.29395421437E+03  0.87480648881E+02 0.  0.
          5    1    3    3  502    0  0.97073807699E+01 -0.10220748430E+02 -0.99172637974E+01  0.17734752919E+02  0.41800000000E+01 0.  1.
         -5    1    3    3    0  502 -0.75151484922E+02  0.27506563218E+03 -0.25967793933E+03  0.38569282113E+03  0.41800000000E+01 0.  1.
        -11    1    4    4    0    0  0.26570326022E+02 -0.74200156799E+02  0.60425632134E+02  0.99312146854E+02  0.00000000000E+00 0.  1.
         11    1    4    4    0    0  0.38873778130E+02 -0.19064472696E+03  0.53806973185E+01  0.19464206751E+03  0.00000000000E+00 0. -1.
</event>
<event>
 8    1  0.7232317E-009  0.1105651E+03  0.7561462E-02  0.1259527E+00
          2   -1    0    0  501    0  0.00000000000E+00  0.00000000000E+00  0.51137849067E+03  0.51137849067E+03  0.00000000000E+00 0. -1.
         -2   -1    0    0    0  501 -0.00000000000E+00 -0.00000000000E+00 -0.30622211857E+02  0.30622211857E+02  0.00000000000E+00 0.  1.
         25    2    1    2    0    0  0.45793688561E+02  0.35400361027E+02  0.31841996367E+03  0.34697254602E+03  0.12509367270E+03 0.  0.
         23    2    1    2    0    0 -0.45793688561E+02 -0.35400361027E+02  0.16233631514E+03  0.19502815651E+03  0.91283378260E+02 0.  0.
          5    1    3    3  502    0 -0.29595815729E+02 -0.14857151031E+01  0.19729491633E+03  0.19955168771E+03  0.41800000000E+01 0. -1.
         -5    1    3    3    0  502  0.75389504291E+02  0.36886076130E+02  0.12112504734E+03  0.14742085831E+03  0.41800000000E+01 0. -1.
        -11    1    4    4    0    0  0.60650018142E+01 -0.52282345598E+02  0.67075879359E+02  0.85260785242E+02  0.00000000000E+00 0. -1.
         11    1    4    4    0    0 -0.51858690376E+02  0.16881984571E+02  0.95260435776E+02  0.10976737127E+03  0.00000000000E+00 0.  1.
</event>
<event>
 8    1  0.7232317E-009  0.1167855E+03  0.7561462E-02  0.1248496E+00
          1   -1    0    0  501    0  0.00000000000E+00  0.00000000000E+00  0.67809097283E+03  0.67809097283E+03  0.00000000000E+00 0. -1.
         -1   -1    0    0    0  501 -0.00000000000E+00 -0.00000000000E+00 -0.23951027261E+02  0.23951027261E+02  0.00000000000E+00 0.  1.
         25    2    1    2    0    0  0.36068737681E+02 -0.33351675372E+02  0.48605767227E+03  0.50429368407E+03  0.12508705343E+03 0.  0.
         23    2    1    2    0    0 -0.36068737681E+02  0.33351675372E+02  0.16808227330E+03  0.19774831602E+03  0.91866521664E+02 0.  0.
          5    1    3    3  502    0 -0.42394787916E+02 -0.27949264183E+02  0.12997336524E+03  0.13960310699E+03  0.41800000000E+01 0. -1.
         -5    1    3    3    0  502  0.78463525597E+02 -0.54024111884E+01  0.35608430704E+03  0.36469057708E+03  0.41800000000E+01 0. -1.
        -11    1    4    4    0    0 -0.28130867153E+02 -0.29352203245E+02  0.58389041432E+02  0.71148982294E+02  0.00000000000E+00 0.  1.
         11    1    4    4    0    0 -0.79378705284E+01  0.62703878616E+02  0.10969323187E+03  0.12659933372E+03  0.00000000000E+00 0. -1.
</event>
<event>
 8    1  0.7232317E-009  0.1133502E+03  0.7561462E-02  0.1254489E+00
          2   -1    0    0  501    0  0.00000000000E+00  0.00000000000E+00  0.15595880882E+03  0.15595880882E+03  0.00000000000E+00 0. -1.
         -2   -1    0    0    0  501 -0.00000000000E+00 -0.00000000000E+00 -0.12009550655E+03  0.12009550655E+03  0.00000000000E+00 0.  1.
         25    2    1    2    0    0  0.72764642017E+02  0.23720448220E+01 -0.21846426327E+02  0.14637382847E+03  0.12509081339E+03 0.  0.
         23    2    1    2    0    0 -0.72764642017E+02 -0.23720448220E+01  0.57709728598E+02  0.12968048690E+03  0.90478153070E+02 0.  0.
          5    1    3    3  502    0  0.54419226043E+02  0.40886200468E+02  0.33816257131E+02  0.76119282696E+02  0.41800000000E+01 0.  1.
         -5    1    3    3    0  502  0.18345415974E+02 -0.38514155646E+02 -0.55662683457E+02  0.70254545775E+02  0.41800000000E+01 0.  1.
        -11    1    4    4    0    0 -0.28949970314E+02  0.43469739664E+02  0.20156407665E+02  0.55982138380E+02  0.00000000000E+00 0. -1.
         11    1    4    4    0    0 -0.43814671703E+02 -0.45841784486E+02  0.37553320934E+02  0.73698348519E+02  0.00000000000E+00 0.  1.
</event>
<event>
 8    1  0.7232317E-009  0.1099708E+03  0.7561462E-02  0.1260624E+00
          1   -1    0    0  501    0  0.00000000000E+00  0.00000000000E+00  0.51325398885E+03  0.51325398885E+03  0.00000000000E+00 0. -1.
         -1   -1    0    0    0  501 -0.00000000000E+00 -0.00000000000E+00 -0.31885087042E+02  0.31885087042E+02  0.00000000000E+00 0.  1.
         25    2    1    2    0    0 -0.38620611980E+02  0.41153187213E+02  0.17582748649E+03  0.22304271898E+03  0.12509041927E+03 0.  0.
         23    2    1    2    0    0  0.38620611980E+02 -0.41153187213E+02  0.30554141531E+03  0.32209635692E+03  0.84884451935E+02 0.  0.
          5    1    3    3  502    0 -0.13089993050E+02 -0.35170123277E+02  0.10614885466E+02  0.39222871935E+02  0.41800000000E+01 0.  1.
         -5    1    3    3    0  502 -0.25530618930E+02  0.76323310490E+02  0.16521260103E+03  0.18381984704E+03  0.41800000000E+01 0.  1.
        -11    1    4    4    0    0 -0.83055703886E+01 -0.52632586380E+02  0.17332941482E+03  0.18133465662E+03  0.00000000000E+00 0. -1.
         11    1    4    4    0    0  0.46926182369E+02  0.11479399168E+02  0.13221200049E+03  0.14076170030E+03  0.00000000000E+00 0.  1.
</event>
<event>
 8    1  0.7232317E-009  0.1477709E+03  0.7561462E-02  0.1203239E+00
         -1   -1    0    0    0  501 -0.00000000000E+00  0.00000000000E+00  0.44449446996E+02  0.44449446996E+02  0.00000000000E+00 0.  1.
          1   -1    0    0  501    0  0.00000000000E+00 -0.00000000000E+00 -0.55579596915E+03  0.55579596915E+03  0.00000000000E+00 0. -1.
         25    2    1    2    0    0 -0.63697236655E+02  0.93084160370E+02 -0.30186073790E+03  0.34567544316E+03  0.12509839347E+03 0.  0.
         23    2    1    2    0    0  0.63697236655E+02 -0.93084160370E+02 -0.20948578425E+03  0.25456997298E+03  0.90551523854E+02 0.  0.
          5    1    3    3  502    0 -0.38019567366E+02  0.11960422467E+03 -0.26547393924E+03  0.29367421214E+03  0.41800000000E+01 0. -1.
         -5    1    3    3    0  502 -0.25677669290E+02 -0.26520064303E+02 -0.36386798666E+02  0.52001231023E+02  0.41800000000E+01 0. -1.
        -11    1    4    4    0    0  0.61179298840E+02 -0.27309721124E+02 -0.55125625042E+02  0.86761523792E+02  0.00000000000E+00 0.  1.
         11    1    4    4    0    0  0.25179378149E+01 -0.65774439246E+02 -0.15436015921E+03  0.16780844919E+03  0.00000000000E+00 0. -1.
</event>
<event>
 8    1  0.7232317E-009  0.3776392E+03  0.7561462E-02  0.1051810E+00
         -1   -1    0    0    0  501 -0.00000000000E+00  0.00000000000E+00  0.22002962921E+03  0.22002962921E+03  0.00000000000E+00 0.  1.
          1   -1    0    0  501    0  0.00000000000E+00 -0.00000000000E+00 -0.66571731104E+03  0.66571731104E+03  0.00000000000E+00 0. -1.
         25    2    1    2    0    0  0.36232387204E+03  0.60806289225E+02 -0.21225236271E+03  0.44235136231E+03  0.12509064394E+03 0.  0.
         23    2    1    2    0    0 -0.36232387204E+03 -0.60806289225E+02 -0.23343531912E+03  0.44339557794E+03  0.84448784862E+02 0.  0.
          5    1    3    3  502    0  0.34772159844E+03  0.24589901466E+02 -0.18622177492E+03  0.39523536675E+03  0.41800000000E+01 0. -1.
         -5    1    3    3    0  502  0.14602273597E+02  0.36216387759E+02 -0.26030587785E+02  0.47115995553E+02  0.41800000000E+01 0. -1.
        -11    1    4    4    0    0 -0.22031852837E+03 -0.36806664236E+02 -0.92111061038E+02  0.24161836031E+03  0.00000000000E+00 0.  1.
         11    1    4    4    0    0 -0.14200534367E+03 -0.23999624989E+02 -0.14132425809E+03  0.20177721763E+03  0.00000000000E+00 0. -1.
</event>
<event>
 8    1  0.7232317E-009  0.1021804E+03  0.7561462E-02  0.1275777E+00
         -1   -1    0    0    0  501 -0.00000000000E+00  0.00000000000E+00  0.14955501661E+02  0.14955501661E+02  0.00000000000E+00 0.  1.
          1   -1    0    0  501    0  0.00000000000E+00 -0.00000000000E+00 -0.89730569317E+03  0.89730569317E+03  0.00000000000E+00 0. -1.
         25    2    1    2    0    0  0.19104251420E+02 -0.16040035805E+02 -0.63470773662E+03  0.64739704716E+03  0.12508705199E+03 0.  0.
         23    2    1    2    0    0 -0.19104251420E+02  0.16040035805E+02 -0.24764245488E+03  0.26486414766E+03  0.90575802986E+02 0.  0.
          5    1    3    3  502    0  0.43561876181E+02 -0.53697741745E+02 -0.51199786157E+03  0.51666272091E+03  0.41800000000E+01 0. -1.
         -5    1    3    3    0  502 -0.24457624762E+02  0.37657705941E+02 -0.12270987506E+03  0.13073432626E+03  0.41800000000E+01 0. -1.
        -11    1    4    4    0    0 -0.25000682016E+02  0.49798804514E+02 -0.11388335052E+03  0.12678474892E+03  0.00000000000E+00 0.  1.
         11    1    4    4    0    0  0.58964305962E+01 -0.33758768709E+02 -0.13375910436E+03  0.13807939874E+03  0.00000000000E+00 0. -1.
</event>
<event>
 8    1  0.7232317E-009  0.1182545E+03  0.7561462E-02  0.1246005E+00
          1   -1    0    0  501    0  0.00000000000E+00  0.00000000000E+00  0.16997902142E+03  0.16997902142E+03  0.00000000000E+00 0. -1.
         -1   -1    0    0    0  501 -0.00000000000E+00 -0.00000000000E+00 -0.16635570324E+03  0.16635570324E+03  0.00000000000E+00 0.  1.
         25    2    1    2    0    0 -0.50697075560E+02  0.80223989229E+02  0.86961146824E+02  0.17947753254E+03  0.12507542409E+03 0.  0.
         23    2    1    2    0    0  0.50697075560E+02 -0.80223989229E+02 -0.83337828643E+02  0.15685719211E+03  0.93020982131E+02 0.  0.
          5    1    3    3  502    0 -0.39692731034E+00 -0.24752884784E+02 -0.10874800283E+02  0.27360492276E+02  0.41800000000E+01 0.  1.
         -5    1    3    3    0  502 -0.50300148250E+02  0.10497687401E+03  0.97835947107E+02  0.15211704026E+03  0.41800000000E+01 0.  1.
        -11    1    4    4    0    0  0.40472562179E+02 -0.62487395754E+02 -0.36034495457E+01  0.74536486140E+02  0.00000000000E+00 0. -1.
         11    1    4    4    0    0  0.10224513381E+02 -0.17736593475E+02 -0.79734379097E+02  0.82320705974E+02  0.00000000000E+00 0.  1.
</event>
<event>
 8    1  0.7232317E-009  0.2044438E+03  0.7561462E-02  0.1146043E+00
         -2   -1    0    0    0  501 -0.00000000000E+00  0.00000000000E+00  0.19644361702E+02  0.19644361702E+02  0.00000000000E+00 0. -1.
          2   -1    0    0  501    0  0.00000000000E+00 -0.00000000000E+00 -0.27490318771E+04  0.27490318771E+04  0.00000000000E+00 0.  1.
         25    2    1    2    0    0  0.14677754380E+03  0.12470052361E+03 -0.18628759010E+04  0.18769784857E+04  0.12509094813E+03 0.  0.
         23    2    1    2    0    0 -0.14677754380E+03 -0.12470052361E+03 -0.86651161438E+03  0.89169775309E+03  0.84785830448E+02 0.  0.
          5    1    3    3  502    0  0.10032763081E+02  0.30633183773E+02 -0.84710462321E+03  0.84772800080E+03  0.41800000000E+01 0.  1.
         -5    1    3    3    0  502  0.13674478072E+03  0.94067339841E+02 -0.10157712778E+04  0.10292504849E+04  0.41800000000E+01 0.  1.
        -11    1    4    4    0    0 -0.10396338389E+03 -0.13082719220E+03 -0.67830972424E+03  0.69859016699E+03  0.00000000000E+00 0. -1.
         11    1    4    4    0    0 -0.42814159910E+02  0.61266685844E+01 -0.18820189014E+03  0.19310758610E+03  0.00000000000E+00 0.  1.
</event>
<event>
 8    1  0.7232317E-009  0.2530604E+03  0.7561462E-02  0.1111386E+00
         -2   -1    0    0    0  501 -0.00000000000E+00  0.00000000000E+00  0.45960216366E+02  0.45960216366E+02  0.00000000000E+00 0. -1.
          2   -1    0    0  501    0  0.00000000000E+00 -0.00000000000E+00 -0.15946058009E+04  0.15946058009E+04  0.00000000000E+00 0.  1.
         25    2    1    2    0    0  0.16857423752E+03 -0.18043107922E+03 -0.84961612772E+03  0.89356976732E+03  0.12508683655E+03 0.  0.
         23    2    1    2    0    0 -0.16857423752E+03  0.18043107922E+03 -0.69902945682E+03  0.74699624995E+03  0.91589126187E+02 0.  0.
          5    1    3    3  502    0  0.18926369531E+02 -0.17495426554E+02 -0.14982477181E+02  0.30103894041E+02  0.41800000000E+01 0. -1.
         -5    1    3    3    0  502  0.14964786799E+03 -0.16293565267E+03 -0.83463365054E+03  0.86346587328E+03  0.41800000000E+01 0. -1.
        -11    1    4    4    0    0 -0.15678488759E+03  0.12071598940E+03 -0.46863237245E+03  0.50869455627E+03  0.00000000000E+00 0. -1.
         11    1    4    4    0    0 -0.11789349931E+02  0.59715089816E+02 -0.23039708437E+03  0.23830169368E+03  0.00000000000E+00 0.  1.
</event>
<event>
 8    1  0.7232317E-009  0.1254411E+03  0.7561462E-02  0.1234382E+00
         -2   -1    0    0    0  501 -0.00000000000E+00  0.00000000000E+00  0.50898347555E+02  0.50898347555E+02  0.00000000000E+00 0.  1.
          2   -1    0    0  501    0  0.00000000000E+00 -0.00000000000E+00 -0.39531507552E+03  0.39531507552E+03  0.00000000000E+00 0. -1.
         25    2    1    2    0    0  0.26950875436E+02  0.82513611989E+02 -0.23244453264E+03  0.27786980618E+03  0.12508526126E+03 0.  0.
         23    2    1    2    0    0 -0.26950875436E+02 -0.82513611989E+02 -0.11197219532E+03  0.16834361689E+03  0.90922796766E+02 0.  0.
          5    1    3    3  502    0 -0.32853989306E+02 -0.21606088251E-01 -0.12462021762E+02  0.35385865349E+02  0.41800000000E+01 0. -1.
         -5    1    3    3    0  502  0.59804864742E+02  0.82535218077E+02 -0.21998251088E+03  0.24248394083E+03  0.41800000000E+01 0. -1.
        -11    1    4    4    0    0  0.26571327292E+02 -0.36645735068E+02 -0.13485074114E+02  0.47231266726E+02  0.00000000000E+00 0.  1.
         11    1    4    4    0    0 -0.53522202728E+02 -0.45867876921E+02 -0.98487121208E+02  0.12111235016E+03  0.00000000000E+00 0. -1.
</event>
<event>
 8    1  0.7232317E-009  0.1087987E+03  0.7561462E-02  0.1262811E+00
         -4   -1    0    0    0  501 -0.00000000000E+00  0.00000000000E+00  0.72329440390E+03  0.72329440390E+03  0.00000000000E+00 0.  1.
          4   -1    0    0  501    0  0.00000000000E+00 -0.00000000000E+00 -0.28571511085E+02  0.28571511085E+02  0.00000000000E+00 0. -1.
         25    2    1    2    0    0  0.72306833602E+02 -0.38288502462E+02  0.51247390946E+03  0.53382676934E+03  0.12508886514E+03 0.  0.
         23    2    1    2    0    0 -0.72306833602E+02  0.38288502462E+02  0.18224898335E+03  0.21803914564E+03  0.87361830869E+02 0.  0.
          5    1    3    3  502    0  0.67023159057E+02  0.37410336051E+01  0.10876757217E+03  0.12788258810E+03  0.41800000000E+01 0.  1.
         -5    1    3    3    0  502  0.52836745448E+01 -0.42029536067E+02  0.40370633729E+03  0.40594418124E+03  0.41800000000E+01 0.  1.
        -11    1    4    4    0    0 -0.73380628708E+01 -0.19492494591E+02  0.85333493179E+02  0.87838542624E+02  0.00000000000E+00 0.  1.
         11    1    4    4    0    0 -0.64968770731E+02  0.57780997053E+02  0.96915490175E+02  0.13020060302E+03  0.00000000000E+00 0. -1.
</event>
<event>
 8    1  0.7232317E-009  0.1299660E+03  0.7561462E-02  0.1227506E+00
          2   -1    0    0  501    0  0.00000000000E+00  0.00000000000E+00  0.99239919772E+03  0.99239919772E+03  0.00000000000E+00 0. -1.
         -2   -1    0    0    0  501 -0.00000000000E+00 -0.00000000000E+00 -0.17932947900E+02  0.17932947900E+02  0.00000000000E+00 0.  1.
         25    2    1    2    0    0  0.46669027092E+02  0.54128092675E+02  0.44930688222E+03  0.47183916299E+03  0.12509065837E+03 0.  0.
         23    2    1    2    0    0 -0.46669027092E+02 -0.54128092675E+02  0.52515936760E+03  0.53849298264E+03  0.95260078009E+02 0.  0.
          5    1    3    3  502    0  0.39687718208E+02 -0.35628119614E+02  0.14977031938E+03  0.15903804215E+03  0.41800000000E+01 0.  1.
         -5    1    3    3    0  502  0.69813088840E+01  0.89756212288E+02  0.29953656284E+03  0.31280112083E+03  0.41800000000E+01 0.  1.
        -11    1    4    4    0    0 -0.63241334120E+02 -0.38352189800E+01  0.22737900147E+03  0.23604106752E+03  0.00000000000E+00 0.  1.
         11    1    4    4    0    0  0.16572307028E+02 -0.50292873695E+02  0.29778036613E+03  0.30245191512E+03  0.00000000000E+00 0. -1.
</event>
<event>
 8    1  0.7232317E-009  0.9816738E+02  0.7561462E-02  0.1284198E+00
          1   -1    0    0  501    0  0.00000000000E+00  0.00000000000E+00  0.26994554097E+03  0.26994554097E+03  0.00000000000E+00 0. -1.
         -1   -1    0    0    0  501 -0.00000000000E+00 -0.00000000000E+00 -0.63578145466E+02  0.63578145466E+02  0.00000000000E+00 0.  1.
         25    2    1    2    0    0 -0.52943642016E+02 -0.12198207465E+02  0.17656250193E+03  0.22310049412E+03  0.12509071866E+03 0.  0.
         23    2    1    2    0    0  0.52943642016E+02  0.12198207465E+02  0.29804893575E+02  0.11042319231E+03  0.91395427810E+02 0.  0.
          5    1    3    3  502    0  0.64722444480E+01  0.39067917186E+02  0.11956006094E+03  0.12601695391E+03  0.41800000000E+01 0.  1.
         -5    1    3    3    0  502 -0.59415886464E+02 -0.51266124651E+02  0.57002440990E+02  0.97083540210E+02  0.41800000000E+01 0.  1.
        -11    1    4    4    0    0 -0.76001592305E+01  0.15531950795E+02  0.44748629248E+02  0.47973364854E+02  0.00000000000E+00 0. -1.
         11    1    4    4    0    0  0.60543801246E+02 -0.33337433304E+01 -0.14943735673E+02  0.62449827460E+02  0.00000000000E+00 0.  1.
</event>
<event>
 8    1  0.7232317E-009  0.1750166E+03  0.7561462E-02  0.1172715E+00
         -1   -1    0    0    0  501 -0.00000000000E+00  0.00000000000E+00  0.56114506561E+02  0.56114506561E+02  0.00000000000E+00 0.  1.
          1   -1    0    0  501    0  0.00000000000E+00 -0.00000000000E+00 -0.80130215380E+03  0.80130215380E+03  0.00000000000E+00 0. -1.
         25    2    1    2    0    0 -0.42920158373E+02 -0.14806890983E+03 -0.58323171374E+03  0.61609563077E+03  0.12509217519E+03 0.  0.
         23    2    1    2    0    0  0.42920158373E+02  0.14806890983E+03 -0.16195593350E+03  0.24132102959E+03  0.90772093041E+02 0.  0.
          5    1    3    3  502    0 -0.36901178367E+02 -0.15908940206E+03 -0.57986670929E+03  0.60244004494E+03  0.41800000000E+01 0. -1.
         -5    1    3    3    0  502 -0.60189800063E+01  0.11020492233E+02 -0.33650044539E+01  0.13655585829E+02  0.41800000000E+01 0. -1.
        -11    1    4    4    0    0  0.50444885288E+01  0.13231459184E+03 -0.14653402772E+03  0.19749637809E+03  0.00000000000E+00 0.  1.
         11    1    4    4    0    0  0.37875669845E+02  0.15754317982E+02 -0.15421905783E+02  0.43824651502E+02  0.00000000000E+00 0. -1.
</event>
<event>
 7    1  0.7232317E-009  0.1052249E+03  0.7561462E-02  0.1269677E+00
         -1   -1    0    0    0  501 -0.00000000000E+00  0.00000000000E+00  0.78761602693E+03  0.78761602693E+03  0.00000000000E+00 0.  1.
          1   -1    0    0  501    0  0.00000000000E+00 -0.00000000000E+00 -0.16603113385E+02  0.16603113385E+02  0.00000000000E+00 0. -1.
         25    2    1    2    0    0 -0.70430015008E+02 -0.65291532165E+01  0.55666761373E+03  0.57491913564E+03  0.12510061348E+03 0.  0.
          5    1    3    3  502    0 -0.88570707176E+02 -0.38691898658E+02  0.48083049122E+03  0.49046637691E+03  0.41800000000E+01 0.  1.
         -5    1    3    3    0  502  0.18140692169E+02  0.32162745442E+02  0.75837122505E+02  0.84452758727E+02  0.41800000000E+01 0.  1.
        -11    1    1    2    0    0  0.36734445044E+02 -0.11286153170E+02  0.14675876964E+03  0.15170673410E+03  0.00000000000E+00 0.  1.
         11    1    1    2    0    0  0.33695569964E+02  0.17815306386E+02  0.67586530176E+02  0.77593270572E+02  0.00000000000E+00 0. -1.
</event>
<event>
 8    1  0.7232317E-009  0.1353247E+03  0.7561462E-02  0.1219762E+00
         -2   -1    0    0    0  501 -0.00000000000E+00  0.00000000000E+00  0.37742205201E+02  0.37742205201E+02  0.00000000000E+00 0.  1.
          2   -1    0    0  501    0  0.00000000000E+00 -0.00000000000E+00 -0.53984521736E+03  0.53984521736E+03  0.00000000000E+00 0. -1.
         25    2    1    2    0    0 -0.57869393569E+02 -0.70134637733E+02 -0.24917080779E+03  0.29325872310E+03  0.12508738184E+03 0.  0.
         23    2    1    2    0    0  0.57869393569E+02  0.70134637733E+02 -0.25293220437E+03  0.28432869947E+03  0.92738207933E+02 0.  0.
          5    1    3    3  502    0 -0.89945133685E+02 -0.33559945191E+02 -0.20899566681E+03  0.23002838551E+03  0.41800000000E+01 0.  1.
         -5    1    3    3    0  502  0.32075740116E+02 -0.36574692542E+02 -0.40175140980E+02  0.63230337587E+02  0.41800000000E+01 0.  1.
        -11    1    4    4    0    0 -0.15527667677E+02  0.45868246629E+02 -0.64495509825E+02  0.80651567250E+02  0.00000000000E+00 0.  1.
         11    1    4    4    0    0  0.73397061246E+02  0.24266391104E+02 -0.18843669454E+03  0.20367713222E+03  0.00000000000E+00 0. -1.
</event>
<event>
 8    1  0.7232317E-009  0.1664939E+03  0.7561462E-02  0.1181554E+00
         -1   -1    0    0    0  501 -0.00000000000E+00  0.00000000000E+00  0.48801672338E+02  0.48801672338E+02  0.00000000000E+00 0. -1.
          1   -1    0    0  501    0  0.00000000000E+00 -0.00000000000E+00 -0.85819475445E+03  0.85819475445E+03  0.00000000000E+00 0.  1.
         25    2    1    2    0    0  0.58951841336E+02 -0.14442014433E+03 -0.24971695491E+03  0.31990513645E+03  0.12509292975E+03 0.  0.
         23    2    1    2    0    0 -0.58951841336E+02  0.14442014433E+03 -0.55967612720E+03  0.58709129034E+03  0.84298980709E+02 0.  0.
          5    1    3    3  502    0  0.41588308359E+02 -0.10406154994E+03 -0.25188242335E+03  0.27571837291E+03  0.41800000000E+01 0. -1.
         -5    1    3    3    0  502  0.17363532976E+02 -0.40358594383E+02  0.21654684441E+01  0.44186763533E+02  0.41800000000E+01 0. -1.
        -11    1    4    4    0    0 -0.29955283699E+02  0.14464532191E+03 -0.48446217165E+03  0.50648117826E+03  0.00000000000E+00 0. -1.
         11    1    4    4    0    0 -0.28996557636E+02 -0.22517758286E+00 -0.75213955550E+02  0.80610112078E+02  0.00000000000E+00 0.  1.
</event>
<event>
 8    1  0.7232317E-009  0.1401963E+03  0.7561462E-02  0.1213065E+00
          3   -1    0    0  501    0  0.00000000000E+00  0.00000000000E+00  0.39322998831E+02  0.39322998831E+02  0.00000000000E+00 0. -1.
         -3   -1    0    0    0  501 -0.00000000000E+00 -0.00000000000E+00 -0.10548046842E+04  0.10548046842E+04  0.00000000000E+00 0.  1.
         25    2    1    2    0    0 -0.71125287095E+00  0.13550294833E+03 -0.81382050227E+03  0.83445389827E+03  0.12509174042E+03 0.  0.
         23    2    1    2    0    0  0.71125287095E+00 -0.13550294833E+03 -0.20166118313E+03  0.25967378479E+03  0.91660715914E+02 0.  0.
          5    1    3    3  502    0  0.14198073700E+02  0.51231252701E+02 -0.62301627105E+03  0.62529430906E+03  0.41800000000E+01 0.  1.
         -5    1    3    3    0  502 -0.14909326571E+02  0.84271695634E+02 -0.19080423122E+03  0.20915958920E+03  0.41800000000E+01 0.  1.
        -11    1    4    4    0    0  0.19723439766E+02 -0.88704581060E+02 -0.18562917709E+03  0.20667778827E+03  0.00000000000E+00 0.  1.
         11    1    4    4    0    0 -0.19012186895E+02 -0.46798367275E+02 -0.16032006037E+02  0.52995996525E+02  0.00000000000E+00 0. -1.
</event>
<event>
 8    1  0.7232317E-009  0.8970285E+02  0.7561462E-02  0.1303573E+00
         -3   -1    0    0    0  501 -0.00000000000E+00  0.00000000000E+00  0.18306284925E+03  0.18306284925E+03  0.00000000000E+00 0.  1.
          3   -1    0    0  501    0  0.00000000000E+00 -0.00000000000E+00 -0.10025690330E+03  0.10025690330E+03  0.00000000000E+00 0. -1.
         25    2    1    2    0    0  0.10904788112E+02 -0.15878411767E+02  0.12849675722E+03  0.18035884989E+03  0.12508740845E+03 0.  0.
         23    2    1    2    0    0 -0.10904788112E+02  0.15878411767E+02 -0.45690811266E+02  0.10296090266E+03  0.90234466133E+02 0.  0.
          5    1    3    3  502    0 -0.31636825756E+02  0.30388882252E+02  0.10367830097E+03  0.11265449569E+03  0.41800000000E+01 0. -1.
         -5    1    3    3    0  502  0.42541613868E+02 -0.46267294019E+02  0.24818456249E+02  0.67704354195E+02  0.41800000000E+01 0. -1.
        -11    1    4    4    0    0 -0.33109831466E+01 -0.27808987552E+02  0.11771451965E+02  0.30378766918E+02  0.00000000000E+00 0.  1.
         11    1    4    4    0    0 -0.75938049659E+01  0.43687399319E+02 -0.57462263231E+02  0.72582135741E+02  0.00000000000E+00 0. -1.
</event>
<event>
 8    1  0.7232317E-009  0.1034947E+03  0.7561462E-02  0.1273114E+00
         -2   -1    0    0    0  501 -0.00000000000E+00  0.00000000000E+00  0.22492726306E+02  0.22492726306E+02  0.00000000000E+00 0. -1.
          2   -1    0    0  501    0  0.00000000000E+00 -0.00000000000E+00 -0.53758932141E+03  0.53758932141E+03  0.00000000000E+00 0.  1.
         25    2    1    2    0    0 -0.85314772411E+01  0.18046896079E+02 -0.32190369912E+03  0.34592789484E+03  0.12508253419E+03 0.  0.
         23    2    1    2    0    0  0.85314772411E+01 -0.18046896079E+02 -0.19319289599E+03  0.21415415288E+03  0.90222112442E+02 0.  0.
          5    1    3    3  502    0  0.30074817911E+02 -0.40091054860E+02 -0.83417315187E+02  0.97404867564E+02  0.41800000000E+01 0. -1.
         -5    1    3    3    0  502 -0.38606295152E+02  0.58137950940E+02 -0.23848638393E+03  0.24852302727E+03  0.41800000000E+01 0. -1.
        -11    1    4    4    0    0  0.46245261360E+02 -0.16285302430E+02 -0.71166281998E+02  0.86420338850E+02  0.00000000000E+00 0. -1.
         11    1    4    4    0    0 -0.37713784119E+02 -0.17615936499E+01 -0.12202661399E+03  0.12773381403E+03  0.00000000000E+00 0.  1.
</event>
<event>
 8    1  0.7232317E-009  0.2683914E+03  0.7561462E-02  0.1102204E+00
          1   -1    0    0  501    0  0.00000000000E+00  0.00000000000E+00  0.59852390511E+03  0.59852390511E+03  0.00000000000E+00 0. -1.
         -1   -1    0    0    0  501 -0.00000000000E+00 -0.00000000000E+00 -0.13258665322E+03  0.13258665322E+03  0.00000000000E+00 0.  1.
         25    2    1    2    0    0  0.14478374650E+02  0.25283478277E+03  0.31436018204E+03  0.42261668137E+03  0.12508990612E+03 0.  0.
         23    2    1    2    0    0 -0.14478374650E+02 -0.25283478277E+03  0.15157706986E+03  0.30849387696E+03  0.89765323508E+02 0.  0.
          5    1    3    3  502    0 -0.42141536507E+02  0.11505929392E+03  0.20076700441E+03  0.23524330528E+03  0.41800000000E+01 0.  1.
         -5    1    3    3    0  502  0.56619911157E+02  0.13777548884E+03  0.11359317762E+03  0.18737337609E+03  0.41800000000E+01 0.  1.
        -11    1    4    4    0    0 -0.43344286696E+02 -0.91263066265E+02  0.34019818521E+02  0.10660685956E+03  0.00000000000E+00 0.  1.
         11    1    4    4    0    0  0.28865912046E+02 -0.16157171650E+03  0.11755725133E+03  0.20188701740E+03  0.00000000000E+00 0. -1.
</event>
<event>
 8    1  0.7232317E-009  0.1174939E+03  0.7561462E-02  0.1247289E+00
          1   -1    0    0  501    0  0.00000000000E+00  0.00000000000E+00  0.13524670513E+03  0.13524670513E+03  0.00000000000E+00 0. -1.
         -1   -1    0    0    0  501 -0.00000000000E+00 -0.00000000000E+00 -0.11983440010E+03  0.11983440010E+03  0.00000000000E+00 0.  1.
         25    2    1    2    0    0 -0.43913209913E+02  0.38320366285E+02 -0.25306932454E+02  0.14029840795E+03  0.12508549862E+03 0.  0.
         23    2    1    2    0    0  0.43913209913E+02 -0.38320366285E+02  0.40719237484E+02  0.11478269728E+03  0.90112101387E+02 0.  0.
          5    1    3    3  502    0  0.16830438302E+02  0.66080254568E+02  0.11852970741E+01  0.68328186178E+02  0.41800000000E+01 0.  1.
         -5    1    3    3    0  502 -0.60743648215E+02 -0.27759888283E+02 -0.26492229528E+02  0.71970221768E+02  0.41800000000E+01 0.  1.
        -11    1    4    4    0    0  0.67647166470E+02 -0.33687651683E+02  0.10840953980E+02  0.76344765967E+02  0.00000000000E+00 0. -1.
         11    1    4    4    0    0 -0.23733956557E+02 -0.46327146017E+01  0.29878283504E+02  0.38437931313E+02  0.00000000000E+00 0.  1.
</event>
<event>
 8    1  0.7232317E-009  0.1045964E+03  0.7561462E-02  0.1270917E+00
          1   -1    0    0  501    0  0.00000000000E+00  0.00000000000E+00  0.49317820499E+03  0.49317820499E+03  0.00000000000E+00 0. -1.
         -1   -1    0    0    0  501 -0.00000000000E+00 -0.00000000000E+00 -0.24303292057E+02  0.24303292057E+02  0.00000000000E+00 0.  1.
         25    2    1    2    0    0 -0.10468464307E+02 -0.43387212684E+02  0.28307362875E+03  0.31268256893E+03  0.12509064974E+03 0.  0.
         23    2    1    2    0    0  0.10468464307E+02  0.43387212684E+02  0.18580128419E+03  0.20479892811E+03  0.73677980308E+02 0.  0.
          5    1    3    3  502    0 -0.14590829423E+02 -0.87207111403E+02  0.19399807616E+03  0.21323859533E+03  0.41800000000E+01 0. -1.
         -5    1    3    3    0  502  0.41223651163E+01  0.43819898719E+02  0.89075552584E+02  0.99443973603E+02  0.41800000000E+01 0. -1.
        -11    1    4    4    0    0  0.20381639299E+02  0.56477768773E+02  0.17532434374E+03  0.18532073574E+03  0.00000000000E+00 0.  1.
         11    1    4    4    0    0 -0.99131749920E+01 -0.13090556089E+02  0.10476940442E+02  0.19478192374E+02  0.00000000000E+00 0. -1.
</event>
<event>
 8    1  0.7232317E-009  0.1003556E+03  0.7561462E-02  0.1279550E+00
          4   -1    0    0  501    0  0.00000000000E+00  0.00000000000E+00  0.71467066700E+02  0.71467066700E+02  0.00000000000E+00 0. -1.
         -4   -1    0    0    0  501 -0.00000000000E+00 -0.00000000000E+00 -0.28254095604E+03  0.28254095604E+03  0.00000000000E+00 0.  1.
         25    2    1    2    0    0 -0.70464305848E+02 -0.47846796086E+02 -0.72738732916E+02  0.16790889303E+03  0.12509172154E+03 0.  0.
         23    2    1    2    0    0  0.70464305848E+02  0.47846796086E+02 -0.13833515643E+03  0.18609912972E+03  0.90784008963E+02 0.  0.
          5    1    3    3  502    0 -0.83227464957E+02 -0.21704618466E+02  0.35181257759E+01  0.86184401112E+02  0.41800000000E+01 0. -1.
         -5    1    3    3    0  502  0.12763159109E+02 -0.26142177620E+02 -0.76256858692E+02  0.81724491915E+02  0.41800000000E+01 0. -1.
        -11    1    4    4    0    0  0.37080160406E+02  0.26648135896E+02 -0.37408528922E+01  0.45815449608E+02  0.00000000000E+00 0. -1.
         11    1    4    4    0    0  0.33384145442E+02  0.21198660190E+02 -0.13459430354E+03  0.14028368011E+03  0.00000000000E+00 0.  1.
</event>
<event>
 8    1  0.7232317E-009  0.9612291E+02  0.7561462E-02  0.1288667E+00
          2   -1    0    0  501    0  0.00000000000E+00  0.00000000000E+00  0.21585226265E+03  0.21585226265E+03  0.00000000000E+00 0. -1.
         -2   -1    0    0    0  501 -0.00000000000E+00 -0.00000000000E+00 -0.73296279516E+02  0.73296279516E+02  0.00000000000E+00 0.  1.
         25    2    1    2    0    0 -0.51808910407E+02 -0.33719852818E+02  0.93483981896E+02  0.16795389798E+03  0.12509222719E+03 0.  0.
         23    2    1    2    0    0  0.51808910407E+02  0.33719852818E+02  0.49072001235E+02  0.12119464418E+03  0.91972217556E+02 0.  0.
          5    1    3    3  502    0 -0.58402383989E+02  0.29577760875E+02  0.15857368871E+02  0.67487857733E+02  0.41800000000E+01 0.  1.
         -5    1    3    3    0  502  0.65934735819E+01 -0.63297613693E+02  0.77626613025E+02  0.10046604025E+03  0.41800000000E+01 0.  1.
        -11    1    4    4    0    0  0.14912332155E+02  0.16221882371E+02  0.71351763556E+02  0.74676644813E+02  0.00000000000E+00 0. -1.
         11    1    4    4    0    0  0.36896578252E+02  0.17497970447E+02 -0.22279762321E+02  0.46517999372E+02  0.00000000000E+00 0.  1.
</event>
<event>
 8    1  0.7232317E-009  0.1488908E+03  0.7561462E-02  0.1201843E+00
         -2   -1    0    0    0  501 -0.00000000000E+00  0.00000000000E+00  0.45807219728E+03  0.45807219728E+03  0.00000000000E+00 0. -1.
          2   -1    0    0  501    0  0.00000000000E+00 -0.00000000000E+00 -0.55950212661E+02  0.55950212661E+02  0.00000000000E+00 0.  1.
         25    2    1    2    0    0  0.10889345977E+03  0.16337341770E+02  0.28080228468E+03  0.32653061120E+03  0.12509045789E+03 0.  0.
         23    2    1    2    0    0 -0.10889345977E+03 -0.16337341770E+02  0.12131969995E+03  0.18749179875E+03  0.91159260002E+02 0.  0.
          5    1    3    3  502    0 -0.22190617721E+02 -0.37976943126E+01  0.10036259192E+02  0.25000897894E+02  0.41800000000E+01 0. -1.
         -5    1    3    3    0  502  0.13108407749E+03  0.20135036082E+02  0.27076602549E+03  0.30152971331E+03  0.41800000000E+01 0. -1.
        -11    1    4    4    0    0 -0.19274269437E+02  0.34238497355E+02  0.25197876389E+02  0.46676601612E+02  0.00000000000E+00 0. -1.
         11    1    4    4    0    0 -0.89619190336E+02 -0.50575839125E+02  0.96121823557E+02  0.14081519713E+03  0.00000000000E+00 0.  1.
</event>
<event>
 8    1  0.7232317E-009  0.7741589E+02  0.7561462E-02  0.1336549E+00
          4   -1    0    0  501    0  0.00000000000E+00  0.00000000000E+00  0.20006480395E+02  0.20006480395E+02  0.00000000000E+00 0. -1.
         -4   -1    0    0    0  501 -0.00000000000E+00 -0.00000000000E+00 -0.94049059770E+03  0.94049059770E+03  0.00000000000E+00 0.  1.
         25    2    1    2    0    0  0.49878354907E+02 -0.14362227995E+02 -0.73234230933E+03  0.74475836099E+03  0.12508251014E+03 0.  0.
         23    2    1    2    0    0 -0.49878354907E+02  0.14362227995E+02 -0.18814180798E+03  0.21573871711E+03  0.91933292504E+02 0.  0.
          5    1    3    3  502    0  0.45912778822E+02 -0.68962485678E+01 -0.73374464073E+03  0.73522391943E+03  0.41800000000E+01 0.  1.
         -5    1    3    3    0  502  0.39655760851E+01 -0.74659794270E+01  0.14023313962E+01  0.95344415587E+01  0.41800000000E+01 0.  1.
        -11    1    4    4    0    0 -0.98194753147E+01  0.46439427814E+02 -0.12888935166E+03  0.13735176563E+03  0.00000000000E+00 0.  1.
         11    1    4    4    0    0 -0.40058879592E+02 -0.32077199819E+02 -0.59252456319E+02  0.78386951479E+02  0.00000000000E+00 0. -1.
</event>
<event>
 8    1  0.7232317E-009  0.1140831E+03  0.7561462E-02  0.1253190E+00
         -2   -1    0    0    0  501 -0.00000000000E+00  0.00000000000E+00  0.12602062229E+02  0.12602062229E+02  0.00000000000E+00 0.  1.
          2   -1    0    0  501    0  0.00000000000E+00 -0.00000000000E+00 -0.11732926789E+04  0.11732926789E+04  0.00000000000E+00 0. -1.
         25    2    1    2    0    0  0.52415374085E+02 -0.24011350707E+02 -0.71045053880E+03  0.72367849811E+03  0.12508670651E+03 0.  0.
         23    2    1    2    0    0 -0.52415374085E+02  0.24011350707E+02 -0.45024007783E+03  0.46221624298E+03  0.87199834766E+02 0.  0.
          5    1    3    3  502    0 -0.25044444241E+02  0.27265053433E+02 -0.11168228051E+03  0.11773279707E+03  0.41800000000E+01 0. -1.
         -5    1    3    3    0  502  0.77459818326E+02 -0.51276404141E+02 -0.59876825829E+03  0.60594570104E+03  0.41800000000E+01 0. -1.
        -11    1    4    4    0    0  0.21257930565E+02  0.55000245511E+01 -0.46906671118E+02  0.51791752986E+02  0.00000000000E+00 0.  1.
         11    1    4    4    0    0 -0.73673304649E+02  0.18511326156E+02 -0.40333340671E+03  0.41042448999E+03  0.00000000000E+00 0. -1.
</event>
<event>
 8    1  0.7232317E-009  0.1816711E+03  0.7561462E-02  0.1166196E+00
         -2   -1    0    0    0  501 -0.00000000000E+00  0.00000000000E+00  0.45445991613E+02  0.45445991613E+02  0.00000000000E+00 0.  1.
          2   -1    0    0  501    0  0.00000000000E+00 -0.00000000000E+00 -0.87222456358E+03  0.87222456358E+03  0.00000000000E+00 0. -1.
         25    2    1    2    0    0  0.10803338438E+03 -0.12505288775E+03 -0.37871045678E+03  0.43171938974E+03  0.12510229627E+03 0.  0.
         23    2    1    2    0    0 -0.10803338438E+03  0.12505288775E+03 -0.44806811519E+03  0.48595116545E+03  0.89855787130E+02 0.  0.
          5    1    3    3  502    0  0.30261312397E+02 -0.85397680261E+02 -0.81535600602E+02  0.12195916279E+03  0.41800000000E+01 0. -1.
         -5    1    3    3    0  502  0.77772071979E+02 -0.39655207485E+02 -0.29717485618E+03  0.30976022696E+03  0.41800000000E+01 0. -1.
        -11    1    4    4    0    0 -0.90947341757E+02  0.41506960333E+02 -0.28334090016E+03  0.30046016779E+03  0.00000000000E+00 0. -1.
         11    1    4    4    0    0 -0.17086042619E+02  0.83545927413E+02 -0.16472721503E+03  0.18549099766E+03  0.00000000000E+00 0.  1.
</event>
<event>
 8    1  0.7232317E-009  0.3229841E+03  0.7561462E-02  0.1074284E+00
         -1   -1    0    0    0  501 -0.00000000000E+00  0.00000000000E+00  0.17230313668E+03  0.17230313668E+03  0.00000000000E+00 0.  1.
          1   -1    0    0  501    0  0.00000000000E+00 -0.00000000000E+00 -0.63522238428E+03  0.63522238428E+03  0.00000000000E+00 0. -1.
         25    2    1    2    0    0  0.79638240648E+02 -0.30095066560E+03 -0.23978040561E+03  0.41237529869E+03  0.12508074015E+03 0.  0.
         23    2    1    2    0    0 -0.79638240648E+02  0.30095066560E+03 -0.22313884199E+03  0.39515022228E+03  0.97155560126E+02 0.  0.
          5    1    3    3  502    0 -0.24303730677E+02 -0.45961784020E+02 -0.87063666317E+01  0.52881283409E+02  0.41800000000E+01 0. -1.
         -5    1    3    3    0  502  0.10394197132E+03 -0.25498888158E+03 -0.23107403898E+03  0.35949401528E+03  0.41800000000E+01 0. -1.
        -11    1    4    4    0    0 -0.89435711256E+02  0.22972783442E+03 -0.20594981154E+03  0.32123036785E+03  0.00000000000E+00 0. -1.
         11    1    4    4    0    0  0.97974706081E+01  0.71222831175E+02 -0.17189030458E+02  0.73919854431E+02  0.00000000000E+00 0.  1.
</event>
<event>
 8    1  0.7232317E-009  0.1005262E+03  0.7561462E-02  0.1279193E+00
         -3   -1    0    0    0  501 -0.00000000000E+00  0.00000000000E+00  0.10190068337E+03  0.10190068337E+03  0.00000000000E+00 0.  1.
          3   -1    0    0  501    0  0.00000000000E+00 -0.00000000000E+00 -0.13042390192E+03  0.13042390192E+03  0.00000000000E+00 0. -1.
         25    2    1    2    0    0  0.66885458811E+01  0.31892741778E+02  0.82496444972E+01  0.12953318592E+03  0.12509558744E+03 0.  0.
         23    2    1    2    0    0 -0.66885458811E+01 -0.31892741778E+02 -0.36772863049E+02  0.10279139937E+03  0.90288120497E+02 0.  0.
          5    1    3    3  502    0 -0.46843632055E+02 -0.14230032601E+01 -0.29872724275E+02  0.55733319101E+02  0.41800000000E+01 0. -1.
         -5    1    3    3    0  502  0.53532177936E+02  0.33315745038E+02  0.38122368772E+02  0.73799866821E+02  0.41800000000E+01 0. -1.
        -11    1    4    4    0    0 -0.41214976771E+02  0.35032451863E+01 -0.32748621212E+00  0.41364891929E+02  0.00000000000E+00 0.  1.
         11    1    4    4    0    0  0.34526430890E+02 -0.35395986964E+02 -0.36445376837E+02  0.61426507437E+02  0.00000000000E+00 0. -1.
</event>
<event>
 8    1  0.7232317E-009  0.9370811E+02  0.7561462E-02  0.1294113E+00
         -2   -1    0    0    0  501 -0.00000000000E+00  0.00000000000E+00  0.12576933574E+03  0.12576933574E+03  0.00000000000E+00 0. -1.
          2   -1    0    0  501    0  0.00000000000E+00 -0.00000000000E+00 -0.13850457188E+03  0.13850457188E+03  0.00000000000E+00 0.  1.
         25    2    1    2    0    0 -0.18333763647E+02  0.53345599967E+02 -0.52188468874E+02  0.14681112831E+03  0.12509193094E+03 0.  0.
         23    2    1    2    0    0  0.18333763647E+02 -0.53345599967E+02  0.39453232734E+02  0.11746277930E+03  0.95179131234E+02 0.  0.
          5    1    3    3  502    0  0.24951791083E+02 -0.37200037980E+01 -0.68600196201E+02  0.73211267066E+02  0.41800000000E+01 0.  1.
         -5    1    3    3    0  502 -0.43285554730E+02  0.57065603765E+02  0.16411727327E+02  0.73599861245E+02  0.41800000000E+01 0.  1.
        -11    1    4    4    0    0  0.14989040462E+02  0.15272091717E+02  0.43673437084E+02  0.48634115867E+02  0.00000000000E+00 0. -1.
         11    1    4    4    0    0  0.33447231843E+01 -0.68617691684E+02 -0.42202043502E+01  0.68828663433E+02  0.00000000000E+00 0.  1.
</event>
<event>
 8    1  0.7232317E-009  0.1540137E+03  0.7561462E-02  0.1195626E+00
          1   -1    0    0  501    0  0.00000000000E+00  0.00000000000E+00  0.75948690773E+03  0.75948690773E+03  0.00000000000E+00 0. -1.
         -1   -1    0    0    0  501 -0.00000000000E+00 -0.00000000000E+00 -0.48346291622E+02  0.48346291622E+02  0.00000000000E+00 0.  1.
         25    2    1    2    0    0 -0.80524789931E+02  0.73640877847E+02  0.13442273260E+03  0.21359806056E+03  0.12508972680E+03 0.  0.
         23    2    1    2    0    0  0.80524789931E+02 -0.73640877847E+02  0.57671788351E+03  0.59423513879E+03  0.92761319172E+02 0.  0.
          5    1    3    3  502    0 -0.98663340312E+02  0.95266397515E+02  0.10672960732E+03  0.17383561975E+03  0.41800000000E+01 0.  1.
         -5    1    3    3    0  502  0.18138550381E+02 -0.21625519668E+02  0.27693125280E+02  0.39762440803E+02  0.41800000000E+01 0.  1.
        -11    1    4    4    0    0  0.99388924905E+02 -0.73156603860E+02  0.47423814569E+03  0.49003251515E+03  0.00000000000E+00 0.  1.
         11    1    4    4    0    0 -0.18864134974E+02 -0.48427398626E+00  0.10247973782E+03  0.10420262364E+03  0.00000000000E+00 0. -1.
</event>
<event>
 8    1  0.7232317E-009  0.1647899E+03  0.7561462E-02  0.1183393E+00
          2   -1    0    0  501    0  0.00000000000E+00  0.00000000000E+00  0.74155341980E+03  0.74155341980E+03  0.00000000000E+00 0. -1.
         -2   -1    0    0    0  501 -0.00000000000E+00 -0.00000000000E+00 -0.40570943353E+02  0.40570943353E+02  0.00000000000E+00 0.  1.
         25    2    1    2    0    0  0.10760470024E+03 -0.68927051014E+02  0.47537522471E+03  0.50789704593E+03  0.12509234638E+03 0.  0.
         23    2    1    2    0    0 -0.10760470024E+03  0.68927051014E+02  0.22560725174E+03  0.27422731722E+03  0.89287622867E+02 0.  0.
          5    1    3    3  502    0  0.55855079316E+02 -0.10245870033E+03  0.29789182250E+03  0.31996028733E+03  0.41800000000E+01 0. -1.
         -5    1    3    3    0  502  0.51749620926E+02  0.33531649320E+02  0.17748340221E+03  0.18793675860E+03  0.41800000000E+01 0. -1.
        -11    1    4    4    0    0 -0.40345635570E+02 -0.15361124337E+02  0.36490034723E+02  0.56526605103E+02  0.00000000000E+00 0.  1.
         11    1    4    4    0    0 -0.67259064673E+02  0.84288175351E+02  0.18911721702E+03  0.21770071212E+03  0.00000000000E+00 0. -1.
</event>
<event>
 8    1  0.7232317E-009  0.1554428E+03  0.7561462E-02  0.1193940E+00
         -2   -1    0    0    0  501 -0.00000000000E+00  0.00000000000E+00  0.87684531755E+02  0.87684531755E+02  0.00000000000E+00 0. -1.
          2   -1    0    0  501    0  0.00000000000E+00 -0.00000000000E+00 -0.37472807085E+03  0.37472807085E+03  0.00000000000E+00 0.  1.
         25    2    1    2    0    0  0.87412410582E+02 -0.79220080976E+02 -0.43922025234E+02  0.17746297479E+03  0.12508881791E+03 0.  0.
         23    2    1    2    0    0 -0.87412410582E+02  0.79220080976E+02 -0.24312151386E+03  0.28494962782E+03  0.90396178785E+02 0.  0.
          5    1    3    3  502    0  0.32781402590E+02 -0.10377544040E+03 -0.43890310570E+02  0.11742143819E+03  0.41800000000E+01 0. -1.
         -5    1    3    3    0  502  0.54631007992E+02  0.24555359422E+02 -0.31714664508E-01  0.60041536593E+02  0.41800000000E+01 0. -1.
        -11    1    4    4    0    0 -0.28057421829E+02  0.77643956771E+02 -0.18140824214E+03  0.19931069530E+03  0.00000000000E+00 0.  1.
         11    1    4    4    0    0 -0.59354988753E+02  0.15761242050E+01 -0.61713271721E+02  0.85638932524E+02  0.00000000000E+00 0. -1.
</event>
<event>
 8    1  0.7232317E-009  0.2385271E+03  0.7561462E-02  0.1120778E+00
         -2   -1    0    0    0  501 -0.00000000000E+00  0.00000000000E+00  0.63925209583E+02  0.63925209583E+02  0.00000000000E+00 0.  1.
          2   -1    0    0  501    0  0.00000000000E+00 -0.00000000000E+00 -0.10045031527E+04  0.10045031527E+04  0.00000000000E+00 0. -1.
         25    2    1    2    0    0  0.21206279259E+03  0.23056073992E+02 -0.31040705416E+03  0.39686495021E+03  0.12508812447E+03 0.  0.
         23    2    1    2    0    0 -0.21206279259E+03 -0.23056073992E+02 -0.63017088894E+03  0.67156341205E+03  0.91541556634E+02 0.  0.
          5    1    3    3  502    0  0.21075178521E+03 -0.11574123778E+02 -0.25115458973E+03  0.32809507106E+03  0.41800000000E+01 0. -1.
         -5    1    3    3    0  502  0.13110073853E+01  0.34630197770E+02 -0.59252464428E+02  0.68769879153E+02  0.41800000000E+01 0. -1.
        -11    1    4    4    0    0 -0.10105743022E+03 -0.55622054725E+02 -0.34711017766E+03  0.36577574087E+03  0.00000000000E+00 0. -1.
         11    1    4    4    0    0 -0.11100536238E+03  0.32565980733E+02 -0.28306071127E+03  0.30578767118E+03  0.00000000000E+00 0.  1.
</event>
<event>
 8    1  0.7232317E-009  0.9764517E+02  0.7561462E-02  0.1285327E+00
          4   -1    0    0  501    0  0.00000000000E+00  0.00000000000E+00  0.10105058122E+03  0.10105058122E+03  0.00000000000E+00 0.  1.
         -4   -1    0    0    0  501 -0.00000000000E+00 -0.00000000000E+00 -0.12473706601E+03  0.12473706601E+03  0.00000000000E+00 0. -1.
         25    2    1    2    0    0 -0.28369541329E+02  0.11746770069E+02 -0.60175897218E+01  0.12894632550E+03  0.12509246976E+03 0.  0.
         23    2    1    2    0    0  0.28369541329E+02 -0.11746770069E+02 -0.17668895061E+02  0.96841321730E+02  0.90128986788E+02 0.  0.
          5    1    3    3  502    0 -0.43947634454E+02 -0.44502668506E+02 -0.24914781519E+02  0.67454435113E+02  0.41800000000E+01 0. -1.
         -5    1    3    3    0  502  0.15578093126E+02  0.56249438575E+02  0.18897191798E+02  0.61491890386E+02  0.41800000000E+01 0. -1.
        -11    1    4    4    0    0 -0.10302629610E+02 -0.29712478735E+02  0.22176434362E+02  0.38480771957E+02  0.00000000000E+00 0.  1.
         11    1    4    4    0    0  0.38672170938E+02  0.17965708665E+02 -0.39845329423E+02  0.58360549772E+02  0.00000000000E+00 0. -1.
</event>
<event>
 8    1  0.7232317E-009  0.1695453E+03  0.7561462E-02  0.1178323E+00
          1   -1    0    0  501    0  0.00000000000E+00  0.00000000000E+00  0.57492955593E+03  0.57492955593E+03  0.00000000000E+00 0. -1.
         -1   -1    0    0    0  501 -0.00000000000E+00 -0.00000000000E+00 -0.65869010015E+02  0.65869010015E+02  0.00000000000E+00 0.  1.
         25    2    1    2    0    0 -0.21948096663E+02  0.15832876620E+03  0.23163026095E+03  0.30797590886E+03  0.12508743141E+03 0.  0.
         23    2    1    2    0    0  0.21948096663E+02 -0.15832876620E+03  0.27743028496E+03  0.33282265709E+03  0.90849550917E+02 0.  0.
          5    1    3    3  502    0 -0.35153638728E+02  0.48104326034E+02  0.17161197714E+03  0.18170841367E+03  0.41800000000E+01 0. -1.
         -5    1    3    3    0  502  0.13205542064E+02  0.11022444016E+03  0.60018283806E+02  0.12626749519E+03  0.41800000000E+01 0. -1.
        -11    1    4    4    0    0  0.38226880032E+02 -0.85656479062E+02  0.21873865246E+03  0.23800194294E+03  0.00000000000E+00 0. -1.
         11    1    4    4    0    0 -0.16278783369E+02 -0.72672287134E+02  0.58691632502E+02  0.94820714145E+02  0.00000000000E+00 0.  1.
</event>
<event>
 8    1  0.7232317E-009  0.1217477E+03  0.7561462E-02  0.1240241E+00
         -2   -1    0    0    0  501 -0.00000000000E+00  0.00000000000E+00  0.24536848684E+02  0.24536848684E+02  0.00000000000E+00 0.  1.
          2   -1    0    0  501    0  0.00000000000E+00 -0.00000000000E+00 -0.68918777626E+03  0.68918777626E+03  0.00000000000E+00 0. -1.
         25    2    1    2    0    0  0.48595980113E+02 -0.39693131999E+02 -0.46125051026E+03  0.48201200760E+03  0.12508568363E+03 0.  0.
         23    2    1    2    0    0 -0.48595980113E+02  0.39693131999E+02 -0.20340041732E+03  0.23171261734E+03  0.91552680241E+02 0.  0.
          5    1    3    3  502    0  0.10889146498E+02 -0.77976516773E+02 -0.34471028909E+03  0.35361216959E+03  0.41800000000E+01 0. -1.
         -5    1    3    3    0  502  0.37706833615E+02  0.38283384775E+02 -0.11654022117E+03  0.12839983801E+03  0.41800000000E+01 0. -1.
        -11    1    4    4    0    0 -0.33066571047E+02 -0.26742917568E+02 -0.85558890394E+02  0.95545305936E+02  0.00000000000E+00 0.  1.
         11    1    4    4    0    0 -0.15529409066E+02  0.66436049566E+02 -0.11784152692E+03  0.13616731141E+03  0.00000000000E+00 0. -1.
</event>
<event>
 8    1  0.7232317E-009  0.1195891E+03  0.7561462E-02  0.1243776E+00
          1   -1    0    0  501    0  0.00000000000E+00  0.00000000000E+00  0.20365547449E+03  0.20365547449E+03  0.00000000000E+00 0. -1.
         -1   -1    0    0    0  501 -0.00000000000E+00 -0.00000000000E+00 -0.11783577410E+03  0.11783577410E+03  0.00000000000E+00 0.  1.
         25    2    1    2    0    0 -0.95187558528E+02  0.27891164414E+02 -0.29547399045E+01  0.15966908238E+03  0.12508755745E+03 0.  0.
         23    2    1    2    0    0  0.95187558528E+02 -0.27891164414E+02  0.88774440297E+02  0.16182216621E+03  0.92015889250E+02 0.  0.
          5    1    3    3  502    0 -0.32719748931E+02 -0.10954954690E+02  0.55590091309E+02  0.65561601979E+02  0.41800000000E+01 0.  1.
         -5    1    3    3    0  502 -0.62467809597E+02  0.38846119104E+02 -0.58544831213E+02  0.94107480399E+02  0.41800000000E+01 0.  1.
        -11    1    4    4    0    0  0.29281700241E+02  0.30794546261E+02  0.10287372772E+02  0.43721300152E+02  0.00000000000E+00 0.  1.
         11    1    4    4    0    0  0.65905858287E+02 -0.58685710675E+02  0.78487067525E+02  0.11810086605E+03  0.00000000000E+00 0. -1.
</event>
<event>
 8    1  0.7232317E-009  0.1601870E+03  0.7561462E-02  0.1188486E+00
          2   -1    0    0  501    0  0.00000000000E+00  0.00000000000E+00  0.14765358437E+03  0.14765358437E+03  0.00000000000E+00 0. -1.
         -2   -1    0    0    0  501 -0.00000000000E+00 -0.00000000000E+00 -0.19522422182E+03  0.19522422182E+03  0.00000000000E+00 0.  1.
         25    2    1    2    0    0 -0.88779607001E+02  0.90750779048E+02  0.59725019594E+01  0.17832610954E+03  0.12508800121E+03 0.  0.
         23    2    1    2    0    0  0.88779607001E+02 -0.90750779048E+02 -0.53543139411E+02  0.16455169666E+03  0.89960383379E+02 0.  0.
          5    1    3    3  502    0 -0.11860622888E+03  0.55970012310E+02  0.12697127922E+02  0.13182856012E+03  0.41800000000E+01 0.  1.
         -5    1    3    3    0  502  0.29826621876E+02  0.34780766738E+02 -0.67246259626E+01  0.46497549417E+02  0.41800000000E+01 0.  1.
        -11    1    4    4    0    0  0.92901217740E+02 -0.56672284788E+02 -0.66872773491E+02  0.12772764757E+03  0.00000000000E+00 0.  1.
         11    1    4    4    0    0 -0.41216107386E+01 -0.34078494260E+02  0.13329634080E+02  0.36824049083E+02  0.00000000000E+00 0. -1.
</event>
<event>
 8    1  0.7232317E-009  0.7630887E+02  0.7561462E-02  0.1339865E+00
         -1   -1    0    0    0  501 -0.00000000000E+00  0.00000000000E+00  0.66006499893E+02  0.66006499893E+02  0.00000000000E+00 0.  1.
          1   -1    0    0  501    0  0.00000000000E+00 -0.00000000000E+00 -0.32091986345E+03  0.32091986345E+03  0.00000000000E+00 0. -1.
         25    2    1    2    0    0  0.22091114982E+02  0.50672525273E+02 -0.30311424122E+02  0.14007264411E+03  0.12508333629E+03 0.  0.
         23    2    1    2    0    0 -0.22091114982E+02 -0.50672525273E+02 -0.22460193943E+03  0.24685371923E+03  0.86226476909E+02 0.  0.
          5    1    3    3  502    0 -0.99100467570E+01  0.19040539748E+02 -0.74032324982E+02  0.77194615893E+02  0.41800000000E+01 0.  1.
         -5    1    3    3    0  502  0.32001161740E+02  0.31631985525E+02  0.43720900860E+02  0.62878028221E+02  0.41800000000E+01 0.  1.
        -11    1    4    4    0    0  0.23341398049E+02 -0.20048214378E+02 -0.24341584383E+02  0.39233461393E+02  0.00000000000E+00 0.  1.
         11    1    4    4    0    0 -0.45432513031E+02 -0.30624310896E+02 -0.20026035505E+03  0.20762025783E+03  0.00000000000E+00 0. -1.
</event>
<event>
 8    1  0.7232317E-009  0.1238741E+03  0.7561462E-02  0.1236839E+00
          2   -1    0    0  501    0  0.00000000000E+00  0.00000000000E+00  0.18487710554E+03  0.18487710554E+03  0.00000000000E+00 0. -1.
         -2   -1    0    0    0  501 -0.00000000000E+00 -0.00000000000E+00 -0.10366568859E+03  0.10366568859E+03  0.00000000000E+00 0.  1.
         25    2    1    2    0    0 -0.19033877633E+02  0.56070903512E+02  0.10797785355E+03  0.17553324351E+03  0.12508584252E+03 0.  0.
         23    2    1    2    0    0  0.19033877633E+02 -0.56070903512E+02 -0.26766436602E+02  0.11300955063E+03  0.92457999577E+02 0.  0.
          5    1    3    3  502    0 -0.69000720350E+02  0.91646370890E+01  0.54332740871E+02  0.88400277784E+02  0.41800000000E+01 0. -1.
         -5    1    3    3    0  502  0.49966842717E+02  0.46906266423E+02  0.53645112681E+02  0.87132965721E+02  0.41800000000E+01 0. -1.
        -11    1    4    4    0    0 -0.36256341098E+02 -0.10615720497E+02 -0.14083000002E+02  0.40318068909E+02  0.00000000000E+00 0.  1.
         11    1    4    4    0    0  0.55290218731E+02 -0.45455183015E+02 -0.12683436601E+02  0.72691481717E+02  0.00000000000E+00 0. -1.
</event>
<event>
 8    1  0.7232317E-009  0.1052492E+03  0.7561462E-02  0.1269630E+00
         -3   -1    0    0    0  501 -0.00000000000E+00  0.00000000000E+00  0.36778973412E+03  0.36778973412E+03  0.00000000000E+00 0.  1.
          3   -1    0    0  501    0  0.00000000000E+00 -0.00000000000E+00 -0.43648192464E+02  0.43648192464E+02  0.00000000000E+00 0. -1.
         25    2    1    2    0    0  0.56661929313E+01 -0.38839812759E+02  0.95700238512E+02  0.16231645541E+03  0.12508980473E+03 0.  0.
         23    2    1    2    0    0 -0.56661929313E+01  0.38839812759E+02  0.22844130314E+03  0.24912147117E+03  0.91298639750E+02 0.  0.
          5    1    3    3  502    0  0.85406676490E+01  0.35557114040E+02 -0.48584568681E+01  0.37125844985E+02  0.41800000000E+01 0. -1.
         -5    1    3    3    0  502 -0.28744747177E+01 -0.74396926798E+02  0.10055869538E+03  0.12519061042E+03  0.41800000000E+01 0. -1.
        -11    1    4    4    0    0  0.29337275983E+02 -0.16486724803E+02  0.69274707194E+02  0.77016056207E+02  0.00000000000E+00 0.  1.
         11    1    4    4    0    0 -0.35003468914E+02  0.55326537562E+02  0.15916659594E+03  0.17210541496E+03  0.00000000000E+00 0. -1.
</event>
<event>
 8    1  0.7232317E-009  0.1119086E+03  0.7561462E-02  0.1257076E+00
         -2   -1    0    0    0  501 -0.00000000000E+00  0.00000000000E+00  0.75692300190E+02  0.75692300190E+02  0.00000000000E+00 0.  1.
          2   -1    0    0  501    0  0.00000000000E+00 -0.00000000000E+00 -0.25669463419E+03  0.25669463419E+03  0.00000000000E+00 0. -1.
         25    2    1    2    0    0  0.27060310326E+02 -0.78489852412E+02 -0.70813820654E+02  0.16599756941E+03  0.12509068122E+03 0.  0.
         23    2    1    2    0    0 -0.27060310326E+02  0.78489852412E+02 -0.11018851335E+03  0.16638936497E+03  0.93010725050E+02 0.  0.
          5    1    3    3  502    0  0.33010130235E+02 -0.16257312772E+02 -0.92545420364E+02  0.99679968635E+02  0.41800000000E+01 0.  1.
         -5    1    3    3    0  502 -0.59498199086E+01 -0.62232539640E+02  0.21731599710E+02  0.66317600778E+02  0.41800000000E+01 0.  1.
        -11    1    4    4    0    0 -0.36210623475E+01 -0.21308730050E+02 -0.25423562871E+02  0.33369621184E+02  0.00000000000E+00 0. -1.
         11    1    4    4    0    0 -0.23439247978E+02  0.99798582463E+02 -0.84764950477E+02  0.13301974379E+03  0.00000000000E+00 0.  1.
</event>
<event>
 8    1  0.7232317E-009  0.1034661E+03  0.7561462E-02  0.1273172E+00
         -2   -1    0    0    0  501 -0.00000000000E+00  0.00000000000E+00  0.31403044282E+02  0.31403044282E+02  0.00000000000E+00 0.  1.
          2   -1    0    0  501    0  0.00000000000E+00 -0.00000000000E+00 -0.42510752388E+03  0.42510752388E+03  0.00000000000E+00 0. -1.
         25    2    1    2    0    0  0.33801590983E+02 -0.49978556894E+01 -0.27074262729E+03  0.30019484291E+03  0.12509135607E+03 0.  0.
         23    2    1    2    0    0 -0.33801590983E+02  0.49978556894E+01 -0.12296185231E+03  0.15631572525E+03  0.90263296654E+02 0.  0.
          5    1    3    3  502    0  0.89657528369E+01 -0.59455116636E+02 -0.19174938638E+03  0.20099899302E+03  0.41800000000E+01 0.  1.
         -5    1    3    3    0  502  0.24835838146E+02  0.54457260947E+02 -0.78993240911E+02  0.99195849893E+02  0.41800000000E+01 0.  1.
        -11    1    4    4    0    0  0.11503806783E+02 -0.28225063091E+02 -0.79941651992E+02  0.85555008504E+02  0.00000000000E+00 0. -1.
         11    1    4    4    0    0 -0.45305397766E+02  0.33222918780E+02 -0.43020200314E+02  0.70760716744E+02  0.00000000000E+00 0.  1.
</event>
<event>
 8    1  0.7232317E-009  0.1492141E+03  0.7561462E-02  0.1201442E+00
          1   -1    0    0  501    0  0.00000000000E+00  0.00000000000E+00  0.19335327924E+03  0.19335327924E+03  0.00000000000E+00 0. -1.
         -1   -1    0    0    0  501 -0.00000000000E+00 -0.00000000000E+00 -0.17913226985E+03  0.17913226985E+03  0.00000000000E+00 0.  1.
         25    2    1    2    0    0 -0.13407163237E+03 -0.39044851638E+02 -0.47500337409E+02  0.19339958167E+03  0.12508962024E+03 0.  0.
         23    2    1    2    0    0  0.13407163237E+03  0.39044851638E+02  0.61721346801E+02  0.17908596743E+03  0.93608525427E+02 0.  0.
          5    1    3    3  502    0 -0.75706089649E+02 -0.19497553786E+02 -0.89391907923E+02  0.11882740515E+03  0.41800000000E+01 0. -1.
         -5    1    3    3    0  502 -0.58365542718E+02 -0.19547297852E+02  0.41891570514E+02  0.74572176515E+02  0.41800000000E+01 0. -1.
        -11    1    4    4    0    0  0.56268194115E+02  0.55376684816E+02  0.83831150422E+00  0.78951818576E+02  0.00000000000E+00 0.  1.
         11    1    4    4    0    0  0.77803438252E+02 -0.16331833179E+02  0.60883035297E+02  0.10013414885E+03  0.00000000000E+00 0. -1.
</event>
<event>
 8    1  0.7232317E-009  0.9378856E+02  0.7561462E-02  0.1293928E+00
          1   -1    0    0  501    0  0.00000000000E+00  0.00000000000E+00  0.57107577519E+02  0.57107577519E+02  0.00000000000E+00 0. -1.
         -1   -1    0    0    0  501 -0.00000000000E+00 -0.00000000000E+00 -0.28698293795E+03  0.28698293795E+03  0.00000000000E+00 0.  1.
         25    2    1    2    0    0 -0.51113615957E+02 -0.35219366697E+01 -0.18574242321E+03  0.22972442807E+03  0.12509220318E+03 0.  0.
         23    2    1    2    0    0  0.51113615957E+02  0.35219366697E+01 -0.44132937221E+02  0.11436608740E+03  0.92232749204E+02 0.  0.
          5    1    3    3  502    0 -0.67961513107E+02 -0.36248713880E+01 -0.19737971209E+03  0.20882559733E+03  0.41800000000E+01 0.  1.
         -5    1    3    3    0  502  0.16847897150E+02  0.10293471837E+00  0.11637288875E+02  0.20898830740E+02  0.41800000000E+01 0.  1.
        -11    1    4    4    0    0  0.67724749165E+02 -0.22323060588E+02 -0.16838307862E+02  0.73269975400E+02  0.00000000000E+00 0. -1.
         11    1    4    4    0    0 -0.16611133209E+02  0.25844997258E+02 -0.27294629359E+02  0.41096112001E+02  0.00000000000E+00 0.  1.
</event>
<event>
 8    1  0.7232317E-009  0.1052937E+03  0.7561462E-02  0.1269542E+00
          1   -1    0    0  501    0  0.00000000000E+00  0.00000000000E+00  0.47596791392E+03  0.47596791392E+03  0.00000000000E+00 0. -1.
         -1   -1    0    0    0  501 -0.00000000000E+00 -0.00000000000E+00 -0.43266103394E+02  0.43266103394E+02  0.00000000000E+00 0.  1.
         25    2    1    2    0    0 -0.68543038610E+02 -0.47798406640E+02  0.16183538087E+03  0.22095181095E+03  0.12508467709E+03 0.  0.
         23    2    1    2    0    0  0.68543038610E+02  0.47798406640E+02  0.27086642965E+03  0.29828220636E+03  0.92848350006E+02 0.  0.
          5    1    3    3  502    0 -0.15729439584E+02  0.13985380073E+01  0.14603630999E+03  0.14694709053E+03  0.41800000000E+01 0.  1.
         -5    1    3    3    0  502 -0.52813599026E+02 -0.49196944648E+02  0.15799070882E+02  0.74004720427E+02  0.41800000000E+01 0.  1.
        -11    1    4    4    0    0  0.23364987216E+02  0.68414092057E+02  0.19113872928E+03  0.20435367491E+03  0.00000000000E+00 0.  1.
         11    1    4    4    0    0  0.45178051395E+02 -0.20615685417E+02  0.79727700368E+02  0.93928531443E+02  0.00000000000E+00 0. -1.
</event>
<event>
 8    1  0.7232317E-009  0.1419920E+03  0.7561462E-02  0.1210673E+00
          4   -1    0    0  501    0  0.00000000000E+00  0.00000000000E+00  0.13432416334E+04  0.13432416334E+04  0.00000000000E+00 0. -1.
         -4   -1    0    0    0  501 -0.00000000000E+00 -0.00000000000E+00 -0.25620233368E+02  0.25620233368E+02  0.00000000000E+00 0.  1.
         25    2    1    2    0    0 -0.95252059538E+02  0.83529707935E+02  0.99121395020E+03  0.10070769292E+04  0.12509468131E+03 0.  0.
         23    2    1    2    0    0  0.95252059538E+02 -0.83529707935E+02  0.32640744985E+03  0.36178493759E+03  0.91084305978E+02 0.  0.
          5    1    3    3  502    0 -0.26189057517E+02  0.77201532065E+02  0.78998559022E+03  0.79419182094E+03  0.41800000000E+01 0. -1.
         -5    1    3    3    0  502 -0.69063002021E+02  0.63281758704E+01  0.20122835998E+03  0.21288510826E+03  0.41800000000E+01 0. -1.
        -11    1    4    4    0    0  0.16982195881E+02  0.18104517473E+01  0.18377292087E+01  0.17177018400E+02  0.00000000000E+00 0.  1.
         11    1    4    4    0    0  0.78269863658E+02 -0.85340159682E+02  0.32456972064E+03  0.34460791919E+03  0.00000000000E+00 0. -1.
</event>
<event>
 8    1  0.7232317E-009  0.1027917E+03  0.7561462E-02  0.1274533E+00
         -2   -1    0    0    0  501 -0.00000000000E+00  0.00000000000E+00  0.16157528808E+02  0.16157528808E+02  0.00000000000E+00 0.  1.
          2   -1    0    0  501    0  0.00000000000E+00 -0.00000000000E+00 -0.94995473911E+03  0.94995473911E+03  0.00000000000E+00 0. -1.
         25    2    1    2    0    0  0.34400766593E+02  0.29373417381E+02 -0.67899032992E+03  0.69189509401E+03  0.12507894543E+03 0.  0.
         23    2    1    2    0    0 -0.34400766593E+02 -0.29373417381E+02 -0.25480688038E+03  0.27421717391E+03  0.90676908801E+02 0.  0.
          5    1    3    3  502    0  0.74494965687E+02  0.36474752406E+02 -0.32089295567E+03  0.33146593924E+03  0.41800000000E+01 0. -1.
         -5    1    3    3    0  502 -0.40094199093E+02 -0.71013350242E+01 -0.35809737425E+03  0.36042915477E+03  0.41800000000E+01 0. -1.
        -11    1    4    4    0    0 -0.50557921216E+02 -0.29687560691E+01 -0.67593687383E+02  0.84461964719E+02  0.00000000000E+00 0.  1.
         11    1    4    4    0    0  0.16157154622E+02 -0.26404661312E+02 -0.18721319299E+03  0.18975520919E+03  0.00000000000E+00 0. -1.
</event>
<event>
 8    1  0.7232317E-009  0.9956661E+02  0.7561462E-02  0.1281210E+00
         -2   -1    0    0    0  501 -0.00000000000E+00  0.00000000000E+00  0.65002004551E+02  0.65002004551E+02  0.00000000000E+00 0.  1.
          2   -1    0    0  501    0  0.00000000000E+00 -0.00000000000E+00 -0.23441289549E+03  0.23441289549E+03  0.00000000000E+00 0. -1.
         25    2    1    2    0    0  0.31354231809E+02 -0.41501607890E+02 -0.12464485437E+03  0.18409638471E+03  0.12509863242E+03 0.  0.
         23    2    1    2    0    0 -0.31354231809E+02  0.41501607890E+02 -0.44766036577E+02  0.11531851534E+03  0.92676267938E+02 0.  0.
          5    1    3    3  502    0  0.67979767489E+02 -0.59862930670E+02 -0.64802816982E+02  0.11145266594E+03  0.41800000000E+01 0. -1.
         -5    1    3    3    0  502 -0.36625535680E+02  0.18361322780E+02 -0.59842037383E+02  0.72643718766E+02  0.41800000000E+01 0. -1.
        -11    1    4    4    0    0 -0.25400764714E+02  0.54476507591E-01  0.23910052301E+02  0.34883985104E+02  0.00000000000E+00 0.  1.
         11    1    4    4    0    0 -0.59534670956E+01  0.41447131382E+02 -0.68676088878E+02  0.80434530233E+02  0.00000000000E+00 0. -1.
</event>
<event>
 8    1  0.7232317E-009  0.1973039E+03  0.7561462E-02  0.1152034E+00
          2   -1    0    0  501    0  0.00000000000E+00  0.00000000000E+00  0.52916695699E+02  0.52916695699E+02  0.00000000000E+00 0. -1.
         -2   -1    0    0    0  501 -0.00000000000E+00 -0.00000000000E+00 -0.88562539802E+03  0.88562539802E+03  0.00000000000E+00 0.  1.
         25    2    1    2    0    0 -0.14943272067E+03 -0.97132601813E+02 -0.56048768334E+03  0.60129770207E+03  0.12509037932E+03 0.  0.
         23    2    1    2    0    0  0.14943272067E+03  0.97132601813E+02 -0.27222101897E+03  0.33724439164E+03  0.88682671258E+02 0.  0.
          5    1    3    3  502    0 -0.15564127405E+03 -0.11706869526E+03 -0.47953683816E+03  0.51759282950E+03  0.41800000000E+01 0. -1.
         -5    1    3    3    0  502  0.62085533809E+01  0.19936093443E+02 -0.80950845181E+02  0.83704872573E+02  0.41800000000E+01 0. -1.
        -11    1    4    4    0    0  0.76462406706E+02  0.43670604488E+02 -0.20925879866E+03  0.22703054013E+03  0.00000000000E+00 0.  1.
         11    1    4    4    0    0  0.72970313962E+02  0.53461997325E+02 -0.62962220311E+02  0.11021385151E+03  0.00000000000E+00 0. -1.
</event>
<event>
 8    1  0.7232317E-009  0.1436532E+03  0.7561462E-02  0.1208496E+00
          1   -1    0    0  501    0  0.00000000000E+00  0.00000000000E+00  0.34062247881E+02  0.34062247881E+02  0.00000000000E+00 0. -1.
         -1   -1    0    0    0  501 -0.00000000000E+00 -0.00000000000E+00 -0.83342372925E+03  0.83342372925E+03  0.00000000000E+00 0.  1.
         25    2    1    2    0    0  0.82553599140E+01  0.12820414534E+03 -0.42420608172E+03  0.46054887209E+03  0.12509999988E+03 0.  0.
         23    2    1    2    0    0 -0.82553599140E+01 -0.12820414534E+03 -0.37515539965E+03  0.40693710504E+03  0.91388072101E+02 0.  0.
          5    1    3    3  502    0 -0.10767494732E+01  0.99626560035E+02 -0.12545197878E+03  0.16025692569E+03  0.41800000000E+01 0. -1.
         -5    1    3    3    0  502  0.93321093872E+01  0.28577585301E+02 -0.29875410294E+03  0.30029194640E+03  0.41800000000E+01 0. -1.
        -11    1    4    4    0    0  0.41368679931E+02 -0.56060785195E+02 -0.18116603227E+03  0.19410128944E+03  0.00000000000E+00 0.  1.
         11    1    4    4    0    0 -0.49624039845E+02 -0.72143360141E+02 -0.19398936739E+03  0.21283581560E+03  0.00000000000E+00 0. -1.
</event>
<event>
 8    1  0.7232317E-009  0.1057775E+03  0.7561462E-02  0.1268595E+00
         -1   -1    0    0    0  501 -0.00000000000E+00  0.00000000000E+00  0.33128887030E+03  0.33128887030E+03  0.00000000000E+00 0.  1.
          1   -1    0    0  501    0  0.00000000000E+00 -0.00000000000E+00 -0.54588603410E+02  0.54588603410E+02  0.00000000000E+00 0. -1.
         25    2    1    2    0    0 -0.43150661302E+01  0.18973938122E+02  0.26234878496E+03  0.29129487519E+03  0.12508872539E+03 0.  0.
         23    2    1    2    0    0  0.43150661302E+01 -0.18973938122E+02  0.14351481926E+02  0.94582598515E+02  0.91439995542E+02 0.  0.
          5    1    3    3  502    0  0.57887724656E+02 -0.28934372823E+01  0.94826271618E+02  0.11121535341E+03  0.41800000000E+01 0.  1.
         -5    1    3    3    0  502 -0.62202790786E+02  0.21867375404E+02  0.16752251334E+03  0.18007952178E+03  0.41800000000E+01 0.  1.
        -11    1    4    4    0    0 -0.26652509002E+02  0.23008105537E+02  0.22496094296E+02  0.41782812436E+02  0.00000000000E+00 0.  1.
         11    1    4    4    0    0  0.30967575132E+02 -0.41982043658E+02 -0.81446123696E+01  0.52799786079E+02  0.00000000000E+00 0. -1.
</event>
<event>
 8    1  0.7232317E-009  0.1914288E+03  0.7561462E-02  0.1157179E+00
          2   -1    0    0  501    0  0.00000000000E+00  0.00000000000E+00  0.10155217425E+04  0.10155217425E+04  0.00000000000E+00 0. -1.
         -2   -1    0    0    0  501 -0.00000000000E+00 -0.00000000000E+00 -0.41127832805E+02  0.41127832805E+02  0.00000000000E+00 0.  1.
         25    2    1    2    0    0 -0.15756987356E+03 -0.68610747805E+02  0.54460121267E+03  0.58461398191E+03  0.12508927705E+03 0.  0.
         23    2    1    2    0    0  0.15756987356E+03  0.68610747805E+02  0.42979269702E+03  0.47203559339E+03  0.92521020585E+02 0.  0.
          5    1    3    3  502    0 -0.58632130731E+02  0.18803476906E+02  0.30340021781E+03  0.30961340744E+03  0.41800000000E+01 0. -1.
         -5    1    3    3    0  502 -0.98937742826E+02 -0.87414224711E+02  0.24120099486E+03  0.27500057447E+03  0.41800000000E+01 0. -1.
        -11    1    4    4    0    0  0.93886155504E+02 -0.20778118596E+01  0.27225338812E+03  0.28799450488E+03  0.00000000000E+00 0.  1.
         11    1    4    4    0    0  0.63683718053E+02  0.70688559665E+02  0.15753930890E+03  0.18404108851E+03  0.00000000000E+00 0. -1.
</event>
<event>
 8    1  0.7232317E-009  0.6795042E+02  0.7561462E-02  0.1367205E+00
          2   -1    0    0  501    0  0.00000000000E+00  0.00000000000E+00  0.42538846944E+03  0.42538846944E+03  0.00000000000E+00 0. -1.
         -2   -1    0    0    0  501 -0.00000000000E+00 -0.00000000000E+00 -0.27025637263E+02  0.27025637263E+02  0.00000000000E+00 0.  1.
         25    2    1    2    0    0  0.25909228133E+02  0.23298526969E+02  0.25936194442E+03  0.29004763968E+03  0.12507959710E+03 0.  0.
         23    2    1    2    0    0 -0.25909228133E+02 -0.23298526969E+02  0.13900088776E+03  0.16236646702E+03  0.76338151368E+02 0.  0.
          5    1    3    3  502    0  0.21305517735E+00 -0.18249186166E+02  0.23418246060E+03  0.23492972447E+03  0.41800000000E+01 0.  1.
         -5    1    3    3    0  502  0.25696172956E+02  0.41547713135E+02  0.25179483816E+02  0.55117915205E+02  0.41800000000E+01 0.  1.
        -11    1    4    4    0    0 -0.18284490994E+02  0.18292182838E+02  0.12000674484E+02  0.28512150953E+02  0.00000000000E+00 0.  1.
         11    1    4    4    0    0 -0.76247371390E+01 -0.41590709807E+02  0.12700021327E+03  0.13385431607E+03  0.00000000000E+00 0. -1.
</event>
<event>
 8    1  0.7232317E-009  0.6446635E+02  0.7561462E-02  0.1379990E+00
         -2   -1    0    0    0  501 -0.00000000000E+00  0.00000000000E+00  0.16354925811E+03  0.16354925811E+03  0.00000000000E+00 0.  1.
          2   -1    0    0  501    0  0.00000000000E+00 -0.00000000000E+00 -0.87033857717E+02  0.87033857717E+02  0.00000000000E+00 0. -1.
         25    2    1    2    0    0  0.19306380801E+02  0.23887168473E+01  0.91617088895E+02  0.15624597654E+03  0.12506267189E+03 0.  0.
         23    2    1    2    0    0 -0.19306380801E+02 -0.23887168473E+01 -0.15101688497E+02  0.94337139292E+02  0.91065869273E+02 0.  0.
          5    1    3    3  502    0  0.37466153770E+02 -0.10901171296E+02  0.11620578883E+03  0.12265319389E+03  0.41800000000E+01 0.  1.
         -5    1    3    3    0  502 -0.18159772969E+02  0.13289888144E+02 -0.24588699939E+02  0.33592782645E+02  0.41800000000E+01 0.  1.
        -11    1    4    4    0    0 -0.19747557174E+02  0.29177553896E+02 -0.40600712835E+02  0.53756055923E+02  0.00000000000E+00 0. -1.
         11    1    4    4    0    0  0.44117637340E+00 -0.31566270743E+02  0.25499024338E+02  0.40581083369E+02  0.00000000000E+00 0.  1.
</event>
<event>
 8    1  0.7232317E-009  0.7636084E+02  0.7561462E-02  0.1339708E+00
         -1   -1    0    0    0  501 -0.00000000000E+00  0.00000000000E+00  0.21979739386E+02  0.21979739386E+02  0.00000000000E+00 0.  1.
          1   -1    0    0  501    0  0.00000000000E+00 -0.00000000000E+00 -0.62665353324E+03  0.62665353324E+03  0.00000000000E+00 0. -1.
         25    2    1    2    0    0  0.27823787902E+02  0.25297455069E+01 -0.25170693102E+03  0.28246223188E+03  0.12509184837E+03 0.  0.
         23    2    1    2    0    0 -0.27823787902E+02 -0.25297455069E+01 -0.35296686284E+03  0.36617104075E+03  0.93354496607E+02 0.  0.
          5    1    3    3  502    0  0.37744177963E+02 -0.10991533152E+02 -0.26021313264E+03  0.26319913292E+03  0.41800000000E+01 0. -1.
         -5    1    3    3    0  502 -0.99203900616E+01  0.13521278659E+02  0.85062016200E+01  0.19263098960E+02  0.41800000000E+01 0. -1.
        -11    1    4    4    0    0  0.73103427972E+01 -0.42248667882E+02 -0.12613594453E+03  0.13322412527E+03  0.00000000000E+00 0. -1.
         11    1    4    4    0    0 -0.35134130699E+02  0.39718922375E+02 -0.22683091830E+03  0.23294691548E+03  0.00000000000E+00 0.  1.
</event>
<event>
 8    1  0.7232317E-009  0.9850572E+02  0.7561462E-02  0.1283470E+00
         -2   -1    0    0    0  501 -0.00000000000E+00  0.00000000000E+00  0.37367066400E+02  0.37367066400E+02  0.00000000000E+00 0.  1.
          2   -1    0    0  501    0  0.00000000000E+00 -0.00000000000E+00 -0.45972962836E+03  0.45972962836E+03  0.00000000000E+00 0. -1.
         25    2    1    2    0    0 -0.59459503865E+02  0.38202958621E+02 -0.21285616146E+03  0.25680650604E+03  0.12508771892E+03 0.  0.
         23    2    1    2    0    0  0.59459503865E+02 -0.38202958621E+02 -0.20950640050E+03  0.24029018872E+03  0.94082646107E+02 0.  0.
          5    1    3    3  502    0 -0.31260407759E+02 -0.21472867808E+01 -0.20422090360E+03  0.20665302756E+03  0.41800000000E+01 0.  1.
         -5    1    3    3    0  502 -0.28199096106E+02  0.40350245402E+02 -0.86352578648E+01  0.50153478479E+02  0.41800000000E+01 0.  1.
        -11    1    4    4    0    0  0.58995872333E+02 -0.65811055982E+02 -0.17538318642E+03  0.19639467946E+03  0.00000000000E+00 0. -1.
         11    1    4    4    0    0  0.46363153197E+00  0.27608097361E+02 -0.34123214077E+02  0.43895509259E+02  0.00000000000E+00 0.  1.
</event>
<event>
 8    1  0.7232317E-009  0.8167166E+02  0.7561462E-02  0.1324373E+00
         -3   -1    0    0    0  501 -0.00000000000E+00  0.00000000000E+00  0.79506685904E+02  0.79506685904E+02  0.00000000000E+00 0.  1.
          3   -1    0    0  501    0  0.00000000000E+00 -0.00000000000E+00 -0.14933611156E+03  0.14933611156E+03  0.00000000000E+00 0. -1.
         25    2    1    2    0    0 -0.11381246441E+02  0.51321066098E+01 -0.39391963074E+02  0.13174009069E+03  0.12509138041E+03 0.  0.
         23    2    1    2    0    0  0.11381246441E+02 -0.51321066098E+01 -0.30437462584E+02  0.97102706772E+02  0.91359866709E+02 0.  0.
          5    1    3    3  502    0 -0.74238037017E+01  0.38074554135E+02 -0.73974492850E+02  0.83633022942E+02  0.41800000000E+01 0. -1.
         -5    1    3    3    0  502 -0.39574427395E+01 -0.32942447526E+02  0.34582529776E+02  0.48107067752E+02  0.41800000000E+01 0. -1.
        -11    1    4    4    0    0  0.21520717066E+02  0.39572382507E+02 -0.68938178458E+01  0.45570159588E+02  0.00000000000E+00 0. -1.
         11    1    4    4    0    0 -0.10139470625E+02 -0.44704489117E+02 -0.23543644738E+02  0.51532547185E+02  0.00000000000E+00 0.  1.
</event>
<event>
 8    1  0.7232317E-009  0.2120611E+03  0.7561462E-02  0.1139944E+00
          1   -1    0    0  501    0  0.00000000000E+00  0.00000000000E+00  0.11542396297E+04  0.11542396297E+04  0.00000000000E+00 0. -1.
         -1   -1    0    0    0  501 -0.00000000000E+00 -0.00000000000E+00 -0.42492039617E+02  0.42492039617E+02  0.00000000000E+00 0.  1.
         25    2    1    2    0    0 -0.17866665060E+03 -0.71900735182E+02  0.58438076379E+03  0.62788472628E+03  0.12508742804E+03 0.  0.
         23    2    1    2    0    0  0.17866665060E+03  0.71900735182E+02  0.52736682625E+03  0.56884694299E+03  0.91540086106E+02 0.  0.
          5    1    3    3  502    0  0.18709366294E+02 -0.12809328882E+02  0.47126278866E+02  0.52464062494E+02  0.41800000000E+01 0. -1.
         -5    1    3    3    0  502 -0.19737601690E+03 -0.59091406299E+02  0.53725448493E+03  0.57542066379E+03  0.41800000000E+01 0. -1.
        -11    1    4    4    0    0  0.42476302467E+02  0.35841221163E+01  0.40891858563E+02  0.59069673262E+02  0.00000000000E+00 0.  1.
         11    1    4    4    0    0  0.13619034814E+03  0.68316613065E+02  0.48647496769E+03  0.50977726973E+03  0.00000000000E+00 0. -1.
</event>
<event>
 8    1  0.7232317E-009  0.1021011E+03  0.7561462E-02  0.1275939E+00
          1   -1    0    0  501    0  0.00000000000E+00  0.00000000000E+00  0.46046253781E+02  0.46046253781E+02  0.00000000000E+00 0. -1.
         -1   -1    0    0    0  501 -0.00000000000E+00 -0.00000000000E+00 -0.31497647875E+03  0.31497647875E+03  0.00000000000E+00 0.  1.
         25    2    1    2    0    0 -0.48385350641E+02 -0.17817091567E+02 -0.16399220477E+03  0.21260094851E+03  0.12508848538E+03 0.  0.
         23    2    1    2    0    0  0.48385350641E+02  0.17817091567E+02 -0.10493802020E+03  0.14842178402E+03  0.91424542541E+02 0.  0.
          5    1    3    3  502    0  0.17058244579E+02 -0.56402419943E+02 -0.66925980445E+02  0.89268000661E+02  0.41800000000E+01 0.  1.
         -5    1    3    3    0  502 -0.65443595221E+02  0.38585328376E+02 -0.97066224321E+02  0.12333294785E+03  0.41800000000E+01 0.  1.
        -11    1    4    4    0    0  0.41004925898E+02 -0.83565727962E+01 -0.11263619936E+03  0.12015885179E+03  0.00000000000E+00 0.  1.
         11    1    4    4    0    0  0.73804247428E+01  0.26173664363E+02  0.76981791631E+01  0.28262932226E+02  0.00000000000E+00 0. -1.
</event>
<event>
 8    1  0.7232317E-009  0.1089009E+03  0.7561462E-02  0.1262619E+00
          1   -1    0    0  501    0  0.00000000000E+00  0.00000000000E+00  0.31955772864E+03  0.31955772864E+03  0.00000000000E+00 0. -1.
         -1   -1    0    0    0  501 -0.00000000000E+00 -0.00000000000E+00 -0.55243579158E+02  0.55243579158E+02  0.00000000000E+00 0.  1.
         25    2    1    2    0    0 -0.33892978547E+02 -0.43425657389E+02  0.22239214659E+03  0.26103745576E+03  0.12509102576E+03 0.  0.
         23    2    1    2    0    0  0.33892978547E+02  0.43425657389E+02  0.41922002884E+02  0.11376385204E+03  0.90278668524E+02 0.  0.
          5    1    3    3  502    0 -0.61136404783E+02 -0.69743033082E+02  0.18813251035E+03  0.20979290861E+03  0.41800000000E+01 0. -1.
         -5    1    3    3    0  502  0.27243426237E+02  0.26317375693E+02  0.34259636248E+02  0.51244547148E+02  0.41800000000E+01 0. -1.
        -11    1    4    4    0    0  0.39036690533E+02 -0.39162568637E+01 -0.12757550451E+02  0.41254761774E+02  0.00000000000E+00 0.  1.
         11    1    4    4    0    0 -0.51437119857E+01  0.47341914252E+02  0.54679553335E+02  0.72509090264E+02  0.00000000000E+00 0. -1.
</event>
<event>
 8    1  0.7232317E-009  0.9072782E+02  0.7561462E-02  0.1301099E+00
         -1   -1    0    0    0  501 -0.00000000000E+00  0.00000000000E+00  0.10129479077E+02  0.10129479077E+02  0.00000000000E+00 0.  1.
          1   -1    0    0  501    0  0.00000000000E+00 -0.00000000000E+00 -0.14500519704E+04  0.14500519704E+04  0.00000000000E+00 0. -1.
         25    2    1    2    0    0  0.91612394251E+01  0.46629048476E+02 -0.98899672768E+03  0.99800725461E+03  0.12508299812E+03 0.  0.
         23    2    1    2    0    0 -0.91612394251E+01 -0.46629048476E+02 -0.45092576365E+03  0.46217419488E+03  0.89513940906E+02 0.  0.
          5    1    3    3  502    0  0.51875803709E+01 -0.17108818510E+02 -0.20988234511E+02  0.27885498898E+02  0.41800000000E+01 0.  1.
         -5    1    3    3    0  502  0.39736590542E+01  0.63737866986E+02 -0.96800849317E+03  0.97012175571E+03  0.41800000000E+01 0.  1.
        -11    1    4    4    0    0 -0.21824677051E+02 -0.69559204951E+02 -0.37002786294E+03  0.37714111268E+03  0.00000000000E+00 0.  1.
         11    1    4    4    0    0  0.12663437626E+02  0.22930156475E+02 -0.80897900710E+02  0.85033082196E+02  0.00000000000E+00 0. -1.
</event>
<event>
 8    1  0.7232317E-009  0.9487023E+02  0.7561462E-02  0.1291469E+00
         -1   -1    0    0    0  501 -0.00000000000E+00  0.00000000000E+00  0.38194283194E+02  0.38194283194E+02  0.00000000000E+00 0.  1.
          1   -1    0    0  501    0  0.00000000000E+00 -0.00000000000E+00 -0.38352899223E+03  0.38352899223E+03  0.00000000000E+00 0. -1.
         25    2    1    2    0    0  0.17408906379E+02 -0.12239367838E+02 -0.29158976851E+03  0.31800124705E+03  0.12508927962E+03 0.  0.
         23    2    1    2    0    0 -0.17408906379E+02  0.12239367838E+02 -0.53744940530E+02  0.10372202838E+03  0.86121242401E+02 0.  0.
          5    1    3    3  502    0 -0.33610152751E+02  0.25937957855E+02 -0.40162364592E+02  0.58591022821E+02  0.41800000000E+01 0.  1.
         -5    1    3    3    0  502  0.51019059130E+02 -0.38177325692E+02 -0.25142740392E+03  0.25941022422E+03  0.41800000000E+01 0.  1.
        -11    1    4    4    0    0 -0.36451935436E+01 -0.34400592449E+02 -0.40618543959E+02  0.53353109657E+02  0.00000000000E+00 0. -1.
         11    1    4    4    0    0 -0.13763712836E+02  0.46639960287E+02 -0.13126396572E+02  0.50368918725E+02  0.00000000000E+00 0.  1.
</event>
<event>
 8    1  0.7232317E-009  0.2009030E+03  0.7561462E-02  0.1148979E+00
         -1   -1    0    0    0  501 -0.00000000000E+00  0.00000000000E+00  0.53391782233E+02  0.53391782233E+02  0.00000000000E+00 0.  1.
          1   -1    0    0  501    0  0.00000000000E+00 -0.00000000000E+00 -0.10809400905E+04  0.10809400905E+04  0.00000000000E+00 0. -1.
         25    2    1    2    0    0  0.17846769746E+03 -0.35162006181E+02 -0.26364348948E+03  0.34386451745E+03  0.12509129107E+03 0.  0.
         23    2    1    2    0    0 -0.17846769746E+03  0.35162006181E+02 -0.76390481876E+03  0.79046735526E+03  0.90559272754E+02 0.  0.
          5    1    3    3  502    0  0.13494293622E+03  0.18708897018E+02 -0.22856488918E+03  0.26611839439E+03  0.41800000000E+01 0.  1.
         -5    1    3    3    0  502  0.43524761239E+02 -0.53870903199E+02 -0.35078600295E+02  0.77746123061E+02  0.41800000000E+01 0.  1.
        -11    1    4    4    0    0 -0.10071841591E+03 -0.17489874160E+02 -0.29380106178E+03  0.31107741626E+03  0.00000000000E+00 0.  1.
         11    1    4    4    0    0 -0.77749281549E+02  0.52651880341E+02 -0.47010375699E+03  0.47938993900E+03  0.00000000000E+00 0. -1.
</event>
<event>
 8    1  0.7232317E-009  0.7943084E+02  0.7561462E-02  0.1330674E+00
         -2   -1    0    0    0  501 -0.00000000000E+00  0.00000000000E+00  0.31591193527E+02  0.31591193527E+02  0.00000000000E+00 0.  1.
          2   -1    0    0  501    0  0.00000000000E+00 -0.00000000000E+00 -0.44227060760E+03  0.44227060760E+03  0.00000000000E+00 0. -1.
         25    2    1    2    0    0  0.11401450039E+01  0.55222622765E+01 -0.32051294133E+03  0.34410169545E+03  0.12508251651E+03 0.  0.
         23    2    1    2    0    0 -0.11401450039E+01 -0.55222622765E+01 -0.90166472734E+02  0.12976010567E+03  0.93144494779E+02 0.  0.
          5    1    3    3  502    0  0.31762249954E+02 -0.14831834331E+02 -0.18550415676E+02  0.39879996910E+02  0.41800000000E+01 0.  1.
         -5    1    3    3    0  502 -0.30622104950E+02  0.20354096608E+02 -0.30196252566E+03  0.30422169854E+03  0.41800000000E+01 0.  1.
        -11    1    4    4    0    0 -0.21540602706E+02 -0.40607614458E+02 -0.23286249297E+02  0.51528878537E+02  0.00000000000E+00 0.  1.
         11    1    4    4    0    0  0.20400457702E+02  0.35085352182E+02 -0.66880223437E+02  0.78231227136E+02  0.00000000000E+00 0. -1.
</event>
<event>
 8    1  0.7232317E-009  0.2076083E+03  0.7561462E-02  0.1143474E+00
          2   -1    0    0  501    0  0.00000000000E+00  0.00000000000E+00  0.16357738915E+04  0.16357738915E+04  0.00000000000E+00 0. -1.
         -2   -1    0    0    0  501 -0.00000000000E+00 -0.00000000000E+00 -0.37431087081E+02  0.37431087081E+02  0.00000000000E+00 0.  1.
         25    2    1    2    0    0  0.18779164397E+03 -0.62096547850E+02  0.48206686955E+03  0.53587147194E+03  0.12509230561E+03 0.  0.
         23    2    1    2    0    0 -0.18779164397E+03  0.62096547850E+02  0.11162759348E+04  0.11373335066E+04  0.91289976245E+02 0.  0.
          5    1    3    3  502    0  0.86498439509E+02 -0.31966751350E+02  0.86838435360E+02  0.12673689078E+03  0.41800000000E+01 0.  1.
         -5    1    3    3    0  502  0.10129320446E+03 -0.30129796500E+02  0.39522843419E+03  0.40913458116E+03  0.41800000000E+01 0.  1.
        -11    1    4    4    0    0 -0.13882240399E+03  0.85321462072E+02  0.79642051369E+03  0.81291884366E+03  0.00000000000E+00 0.  1.
         11    1    4    4    0    0 -0.48969239981E+02 -0.23224914222E+02  0.31985542114E+03  0.32441466295E+03  0.00000000000E+00 0. -1.
</event>
<event>
 8    1  0.7232317E-009  0.1126509E+03  0.7561462E-02  0.1255738E+00
          2   -1    0    0  501    0  0.00000000000E+00  0.00000000000E+00  0.11819270349E+03  0.11819270349E+03  0.00000000000E+00 0. -1.
         -2   -1    0    0    0  501 -0.00000000000E+00 -0.00000000000E+00 -0.11091852797E+03  0.11091852797E+03  0.00000000000E+00 0.  1.
         25    2    1    2    0    0 -0.21497314603E+02 -0.23124292076E+02  0.19560191307E+02  0.13048773702E+03  0.12509029142E+03 0.  0.
         23    2    1    2    0    0  0.21497314603E+02  0.23124292076E+02 -0.12286015794E+02  0.98623494442E+02  0.92621704005E+02 0.  0.
          5    1    3    3  502    0  0.44623395074E+02  0.19415423093E+02 -0.19036140728E+01  0.48880488831E+02  0.41800000000E+01 0.  1.
         -5    1    3    3    0  502 -0.66120709677E+02 -0.42539715169E+02  0.21463805379E+02  0.81607248184E+02  0.41800000000E+01 0.  1.
        -11    1    4    4    0    0  0.22047168884E+02 -0.34040682320E+02 -0.76145775427E+01  0.41265330482E+02  0.00000000000E+00 0. -1.
         11    1    4    4    0    0 -0.54985428172E+00  0.57164974397E+02 -0.46714382508E+01  0.57358163960E+02  0.00000000000E+00 0.  1.
</event>
<event>
 8    1  0.7232317E-009  0.9830652E+02  0.7561462E-02  0.1283898E+00
         -2   -1    0    0    0  501 -0.00000000000E+00  0.00000000000E+00  0.17083705579E+03  0.17083705579E+03  0.00000000000E+00 0.  1.
          2   -1    0    0  501    0  0.00000000000E+00 -0.00000000000E+00 -0.12461700170E+03  0.12461700170E+03  0.00000000000E+00 0. -1.
         25    2    1    2    0    0  0.62407761652E+01 -0.53208591058E+02 -0.56743053001E+02  0.14743729225E+03  0.12509148505E+03 0.  0.
         23    2    1    2    0    0 -0.62407761652E+01  0.53208591058E+02  0.10296310709E+03  0.14801676525E+03  0.91855647202E+02 0.  0.
          5    1    3    3  502    0  0.43673432894E+02 -0.63554357656E+02  0.15794760749E+01  0.77243072586E+02  0.41800000000E+01 0. -1.
         -5    1    3    3    0  502 -0.37432656729E+02  0.10345766597E+02 -0.58322529076E+02  0.70194219663E+02  0.41800000000E+01 0. -1.
        -11    1    4    4    0    0  0.26807657508E+02  0.19750409860E+02 -0.16298940780E+01  0.33337452593E+02  0.00000000000E+00 0. -1.
         11    1    4    4    0    0 -0.33048433673E+02  0.33458181199E+02  0.10459300117E+03  0.11467931265E+03  0.00000000000E+00 0.  1.
</event>
<event>
 8    1  0.7232317E-009  0.1907607E+03  0.7561462E-02  0.1157777E+00
         -2   -1    0    0    0  501 -0.00000000000E+00  0.00000000000E+00  0.17742298071E+03  0.17742298071E+03  0.00000000000E+00 0.  1.
          2   -1    0    0  501    0  0.00000000000E+00 -0.00000000000E+00 -0.26652475742E+03  0.26652475742E+03  0.00000000000E+00 0. -1.
         25    2    1    2    0    0 -0.15200319742E+03 -0.81004577859E+02 -0.12163095275E+03  0.24516875380E+03  0.12508763135E+03 0.  0.
         23    2    1    2    0    0  0.15200319742E+03  0.81004577859E+02  0.32529176030E+02  0.19877898433E+03  0.93745526062E+02 0.  0.
          5    1    3    3  502    0 -0.15331140144E+03 -0.48783348236E+02 -0.13494787416E+03  0.21003000266E+03  0.41800000000E+01 0.  1.
         -5    1    3    3    0  502  0.13082040162E+01 -0.32221229624E+02  0.13316921415E+02  0.35138751147E+02  0.41800000000E+01 0.  1.
        -11    1    4    4    0    0  0.97809002874E+02  0.90251873515E+02 -0.33517911346E+01  0.13312864538E+03  0.00000000000E+00 0. -1.
         11    1    4    4    0    0  0.54194194545E+02 -0.92472956558E+01  0.35880967165E+02  0.65650338948E+02  0.00000000000E+00 0.  1.
</event>
<event>
 8    1  0.7232317E-009  0.2199685E+03  0.7561462E-02  0.1133907E+00
          4   -1    0    0  501    0  0.00000000000E+00  0.00000000000E+00  0.32786108196E+03  0.32786108196E+03  0.00000000000E+00 0. -1.
         -4   -1    0    0    0  501 -0.00000000000E+00 -0.00000000000E+00 -0.24782898497E+03  0.24782898497E+03  0.00000000000E+00 0.  1.
         25    2    1    2    0    0 -0.18913432024E+03  0.10437199792E+03  0.19306753706E+03  0.31557470678E+03  0.12508803559E+03 0.  0.
         23    2    1    2    0    0  0.18913432024E+03 -0.10437199792E+03 -0.11303544008E+03  0.26011536014E+03  0.90651446911E+02 0.  0.
          5    1    3    3  502    0 -0.55404580962E+02  0.20506099840E+02  0.13484138926E+03  0.14727471059E+03  0.41800000000E+01 0.  1.
         -5    1    3    3    0  502 -0.13372973928E+03  0.83865898081E+02  0.58226147801E+02  0.16829999619E+03  0.41800000000E+01 0.  1.
        -11    1    4    4    0    0  0.37596514064E+02  0.20158266128E+01  0.85497671657E+01  0.38609065584E+02  0.00000000000E+00 0. -1.
         11    1    4    4    0    0  0.15153780618E+03 -0.10638782453E+03 -0.12158520724E+03  0.22150629456E+03  0.00000000000E+00 0.  1.
</event>
<event>
 8    1  0.7232317E-009  0.1124014E+03  0.7561462E-02  0.1256186E+00
          2   -1    0    0  501    0  0.00000000000E+00  0.00000000000E+00  0.78303762551E+02  0.78303762551E+02  0.00000000000E+00 0. -1.
         -2   -1    0    0    0  501 -0.00000000000E+00 -0.00000000000E+00 -0.28251303733E+03  0.28251303733E+03  0.00000000000E+00 0.  1.
         25    2    1    2    0    0  0.95590079376E+01  0.52546633378E+02 -0.59168049145E+01  0.13614357606E+03  0.12509013314E+03 0.  0.
         23    2    1    2    0    0 -0.95590079376E+01 -0.52546633378E+02 -0.19829246986E+03  0.22467322382E+03  0.91135232408E+02 0.  0.
          5    1    3    3  502    0 -0.53325869830E+02  0.22040516732E+01  0.84937584791E+01  0.54204451570E+02  0.41800000000E+01 0.  1.
         -5    1    3    3    0  502  0.62884877767E+02  0.50342581705E+02 -0.14410563394E+02  0.81939124488E+02  0.41800000000E+01 0.  1.
        -11    1    4    4    0    0  0.28270033736E+02 -0.43219357313E+02 -0.52025567314E+02  0.73305984123E+02  0.00000000000E+00 0. -1.
         11    1    4    4    0    0 -0.37829041673E+02 -0.93272760656E+01 -0.14626690255E+03  0.15136723970E+03  0.00000000000E+00 0.  1.
</event>
<event>
 8    1  0.7232317E-009  0.1189135E+03  0.7561462E-02  0.1244900E+00
         -1   -1    0    0    0  501 -0.00000000000E+00  0.00000000000E+00  0.20001403397E+02  0.20001403397E+02  0.00000000000E+00 0.  1.
          1   -1    0    0  501    0  0.00000000000E+00 -0.00000000000E+00 -0.90631762349E+03  0.90631762349E+03  0.00000000000E+00 0. -1.
         25    2    1    2    0    0  0.60900642743E+02 -0.14764346153E+02 -0.65483304470E+03  0.66961144491E+03  0.12508515705E+03 0.  0.
         23    2    1    2    0    0 -0.60900642743E+02  0.14764346153E+02 -0.23148317540E+03  0.25670758199E+03  0.91583011265E+02 0.  0.
          5    1    3    3  502    0  0.37323708690E+02  0.48427451826E+02 -0.18360694032E+03  0.19356461002E+03  0.41800000000E+01 0. -1.
         -5    1    3    3    0  502  0.23576934053E+02 -0.63191797979E+02 -0.47122610438E+03  0.47604683488E+03  0.41800000000E+01 0. -1.
        -11    1    4    4    0    0 -0.48002563884E+02  0.51278945124E+02 -0.17129816064E+03  0.18514004481E+03  0.00000000000E+00 0. -1.
         11    1    4    4    0    0 -0.12898078859E+02 -0.36514598971E+02 -0.60185014757E+02  0.71567537177E+02  0.00000000000E+00 0.  1.
</event>
<event>
 8    1  0.7232317E-009  0.6225221E+02  0.7561462E-02  0.1388616E+00
         -1   -1    0    0    0  501 -0.00000000000E+00  0.00000000000E+00  0.20482657441E+02  0.20482657441E+02  0.00000000000E+00 0.  1.
          1   -1    0    0  501    0  0.00000000000E+00 -0.00000000000E+00 -0.77166214093E+03  0.77166214093E+03  0.00000000000E+00 0. -1.
         25    2    1    2    0    0 -0.11285962297E+02 -0.45521925285E+02 -0.55313363123E+03  0.56904249372E+03  0.12511165828E+03 0.  0.
         23    2    1    2    0    0  0.11285962297E+02  0.45521925285E+02 -0.19804585226E+03  0.22310230465E+03  0.91393982930E+02 0.  0.
          5    1    3    3  502    0 -0.19731665722E+02 -0.12951936337E+02 -0.11924490581E+02  0.26772320831E+02  0.41800000000E+01 0.  1.
         -5    1    3    3    0  502  0.84457034251E+01 -0.32569988947E+02 -0.54120914065E+03  0.54227017289E+03  0.41800000000E+01 0.  1.
        -11    1    4    4    0    0  0.28195739423E+02  0.15508661767E+02 -0.18248721636E+03  0.18530273189E+03  0.00000000000E+00 0. -1.
         11    1    4    4    0    0 -0.16909777127E+02  0.30013263517E+02 -0.15558635895E+02  0.37799572754E+02  0.00000000000E+00 0.  1.
</event>
<event>
 8    1  0.7232317E-009  0.2043455E+03  0.7561462E-02  0.1146124E+00
          2   -1    0    0  501    0  0.00000000000E+00  0.00000000000E+00  0.32197857249E+03  0.32197857249E+03  0.00000000000E+00 0. -1.
         -2   -1    0    0    0  501 -0.00000000000E+00 -0.00000000000E+00 -0.21027326772E+03  0.21027326772E+03  0.00000000000E+00 0.  1.
         25    2    1    2    0    0 -0.16809444189E+03 -0.72275341638E+02  0.21019439012E+03  0.30546260158E+03  0.12508498280E+03 0.  0.
         23    2    1    2    0    0  0.16809444189E+03  0.72275341638E+02 -0.98489085345E+02  0.22678923863E+03  0.90850384823E+02 0.  0.
          5    1    3    3  502    0 -0.73705270758E+02  0.29647722042E+02  0.52753299439E+02  0.95455944611E+02  0.41800000000E+01 0.  1.
         -5    1    3    3    0  502 -0.94389171134E+02 -0.10192306368E+03  0.15744109068E+03  0.21000665697E+03  0.41800000000E+01 0.  1.
        -11    1    4    4    0    0  0.13965034074E+03  0.36290578799E+02 -0.35015511963E+02  0.14847663067E+03  0.00000000000E+00 0. -1.
         11    1    4    4    0    0  0.28444101152E+02  0.35984762838E+02 -0.63473573383E+02  0.78312607956E+02  0.00000000000E+00 0.  1.
</event>
<event>
 7    1  0.7232317E-009  0.1076259E+03  0.7561462E-02  0.1265030E+00
          1   -1    0    0  501    0  0.00000000000E+00  0.00000000000E+00  0.36261731592E+03  0.36261731592E+03  0.00000000000E+00 0. -1.
         -1   -1    0    0    0  501 -0.00000000000E+00 -0.00000000000E+00 -0.37902896919E+02  0.37902896919E+02  0.00000000000E+00 0.  1.
         23    2    1    2    0    0  0.16482173186E+02 -0.15819822089E+02  0.75297178438E+02  0.12064374532E+03  0.91451185883E+02 0.  0.
          5    1    1    2  502    0  0.20033279412E+02 -0.48590266492E+02  0.10884252589E+03  0.12094012619E+03  0.41800000000E+01 0. -1.
         -5    1    1    2    0  502 -0.36515452598E+02  0.64410088581E+02  0.14057471467E+03  0.15893634133E+03  0.41800000000E+01 0. -1.
        -11    1    3    3    0    0  0.51426783843E+02 -0.14360339054E+02  0.65133615124E+02  0.84221857338E+02  0.00000000000E+00 0. -1.
         11    1    3    3    0    0 -0.34944610657E+02 -0.14594830345E+01  0.10163563314E+02  0.36421887979E+02  0.00000000000E+00 0.  1.
</event>
<event>
 8    1  0.7232317E-009  0.7784703E+02  0.7561462E-02  0.1335275E+00
          2   -1    0    0  501    0  0.00000000000E+00  0.00000000000E+00  0.16510477900E+03  0.16510477900E+03  0.00000000000E+00 0.  1.
         -2   -1    0    0    0  501 -0.00000000000E+00 -0.00000000000E+00 -0.85679637311E+02  0.85679637311E+02  0.00000000000E+00 0. -1.
         25    2    1    2    0    0  0.31225588741E+02  0.68674701199E+01  0.83952620193E+02  0.15401369256E+03  0.12509986219E+03 0.  0.
         23    2    1    2    0    0 -0.31225588741E+02 -0.68674701199E+01 -0.45274785039E+01  0.96770723753E+02  0.91224313513E+02 0.  0.
          5    1    3    3  502    0 -0.15536346058E+02  0.94959101829E+01 -0.27386814921E+02  0.33152079732E+02  0.41800000000E+01 0.  1.
         -5    1    3    3    0  502  0.46761934799E+02 -0.26284400630E+01  0.11133943511E+03  0.12086161283E+03  0.41800000000E+01 0.  1.
        -11    1    4    4    0    0 -0.43649162106E+00  0.36666211441E+02 -0.19304373846E+02  0.41439841167E+02  0.00000000000E+00 0. -1.
         11    1    4    4    0    0 -0.30789097120E+02 -0.43533681561E+02  0.14776895342E+02  0.55330882586E+02  0.00000000000E+00 0.  1.
</event>
<event>
 8    1  0.7232317E-009  0.2439482E+03  0.7561462E-02  0.1117190E+00
         -1   -1    0    0    0  501 -0.00000000000E+00  0.00000000000E+00  0.58085142114E+02  0.58085142114E+02  0.00000000000E+00 0.  1.
          1   -1    0    0  501    0  0.00000000000E+00 -0.00000000000E+00 -0.11499471055E+04  0.11499471055E+04  0.00000000000E+00 0. -1.
         25    2    1    2    0    0  0.22054391792E+03 -0.75623011044E+02 -0.62805293740E+03  0.68151121439E+03  0.12509429894E+03 0.  0.
         23    2    1    2    0    0 -0.22054391792E+03  0.75623011044E+02 -0.46380902598E+03  0.52652103323E+03  0.88017761366E+02 0.  0.
          5    1    3    3  502    0  0.21068272277E+03 -0.91302501319E+02 -0.47849392621E+03  0.53075160503E+03  0.41800000000E+01 0. -1.
         -5    1    3    3    0  502  0.98611951449E+01  0.15679490275E+02 -0.14955901119E+03  0.15075960936E+03  0.41800000000E+01 0. -1.
        -11    1    4    4    0    0 -0.20997795904E+02 -0.85627574447E+01 -0.10495269629E+03  0.10737456266E+03  0.00000000000E+00 0.  1.
         11    1    4    4    0    0 -0.19954612201E+03  0.84185768489E+02 -0.35885632969E+03  0.41914647057E+03  0.00000000000E+00 0. -1.
</event>
<event>
 8    1  0.7232317E-009  0.1787853E+03  0.7561462E-02  0.1168984E+00
          1   -1    0    0  501    0  0.00000000000E+00  0.00000000000E+00  0.12988402418E+03  0.12988402418E+03  0.00000000000E+00 0. -1.
         -1   -1    0    0    0  501 -0.00000000000E+00 -0.00000000000E+00 -0.30632260664E+03  0.30632260664E+03  0.00000000000E+00 0.  1.
         25    2    1    2    0    0  0.10106117506E+03 -0.11480658488E+03 -0.16547301233E+03  0.25772359906E+03  0.12508486186E+03 0.  0.
         23    2    1    2    0    0 -0.10106117506E+03  0.11480658488E+03 -0.10965570133E+02  0.17848303176E+03  0.91334746178E+02 0.  0.
          5    1    3    3  502    0  0.11715438684E+03 -0.11361801944E+03 -0.10292005155E+03  0.19298760092E+03  0.41800000000E+01 0.  1.
         -5    1    3    3    0  502 -0.16093211782E+02 -0.11885654412E+01 -0.62552960775E+02  0.64735998139E+02  0.41800000000E+01 0.  1.
        -11    1    4    4    0    0 -0.76432896543E+02  0.19045331200E+02 -0.11493313453E+02  0.79604073819E+02  0.00000000000E+00 0. -1.
         11    1    4    4    0    0 -0.24628278518E+02  0.95761253683E+02  0.52774331939E+00  0.98878957937E+02  0.00000000000E+00 0.  1.
</event>
<event>
 8    1  0.7232317E-009  0.1905205E+03  0.7561462E-02  0.1157993E+00
         -1   -1    0    0    0  501 -0.00000000000E+00  0.00000000000E+00  0.14842670857E+03  0.14842670857E+03  0.00000000000E+00 0.  1.
          1   -1    0    0  501    0  0.00000000000E+00 -0.00000000000E+00 -0.29484675151E+03  0.29484675151E+03  0.00000000000E+00 0. -1.
         25    2    1    2    0    0 -0.17173464095E+03  0.53716201630E+00 -0.33067813890E+02  0.21503457114E+03  0.12511319284E+03 0.  0.
         23    2    1    2    0    0  0.17173464095E+03 -0.53716201630E+00 -0.11335222905E+03  0.22823888894E+03  0.98748099467E+02 0.  0.
          5    1    3    3  502    0 -0.42839816822E+02 -0.34178839467E+02 -0.57190423227E+02  0.79319984125E+02  0.41800000000E+01 0.  1.
         -5    1    3    3    0  502 -0.12889482413E+03  0.34716001483E+02  0.24122609337E+02  0.13571458701E+03  0.41800000000E+01 0.  1.
        -11    1    4    4    0    0  0.10595708141E+03 -0.42871035081E+02 -0.93145687649E+02  0.14744811927E+03  0.00000000000E+00 0.  1.
         11    1    4    4    0    0  0.65777559544E+02  0.42333873065E+02 -0.20206541404E+02  0.80790769670E+02  0.00000000000E+00 0. -1.
</event>
<event>
 8    1  0.7232317E-009  0.2897902E+03  0.7561462E-02  0.1090459E+00
          1   -1    0    0  501    0  0.00000000000E+00  0.00000000000E+00  0.18959703700E+04  0.18959703700E+04  0.00000000000E+00 0. -1.
         -1   -1    0    0    0  501 -0.00000000000E+00 -0.00000000000E+00 -0.49672192540E+02  0.49672192540E+02  0.00000000000E+00 0.  1.
         25    2    1    2    0    0 -0.25555858527E+03 -0.12096965415E+03  0.78351281891E+03  0.84230861568E+03  0.12509044300E+03 0.  0.
         23    2    1    2    0    0  0.25555858527E+03  0.12096965415E+03  0.10627853586E+04  0.11033339469E+04  0.88821349942E+02 0.  0.
          5    1    3    3  502    0 -0.70985244977E+02 -0.67154844919E+02  0.14075879048E+03  0.17140358134E+03  0.41800000000E+01 0. -1.
         -5    1    3    3    0  502 -0.18457334029E+03 -0.53814809230E+02  0.64275402843E+03  0.67090503434E+03  0.41800000000E+01 0. -1.
        -11    1    4    4    0    0  0.21281848507E+03  0.72456076378E+02  0.71232503251E+03  0.74695953206E+03  0.00000000000E+00 0.  1.
         11    1    4    4    0    0  0.42740100196E+02  0.48513577771E+02  0.35046032609E+03  0.35637441484E+03  0.00000000000E+00 0. -1.
</event>
<event>
 8    1  0.7232317E-009  0.1119768E+03  0.7561462E-02  0.1256952E+00
         -1   -1    0    0    0  501 -0.00000000000E+00  0.00000000000E+00  0.19345293346E+03  0.19345293346E+03  0.00000000000E+00 0.  1.
          1   -1    0    0  501    0  0.00000000000E+00 -0.00000000000E+00 -0.11633046184E+03  0.11633046184E+03  0.00000000000E+00 0. -1.
         25    2    1    2    0    0 -0.56449990235E+02  0.76553621418E+02 -0.12248986821E+01  0.15714964094E+03  0.12508977145E+03 0.  0.
         23    2    1    2    0    0  0.56449990235E+02 -0.76553621418E+02  0.78347370294E+02  0.15263375436E+03  0.90064944275E+02 0.  0.
          5    1    3    3  502    0 -0.32952198415E+02  0.45296437105E+02  0.61389531901E+02  0.83209143859E+02  0.41800000000E+01 0. -1.
         -5    1    3    3    0  502 -0.23497791820E+02  0.31257184313E+02 -0.62614430584E+02  0.73940497083E+02  0.41800000000E+01 0. -1.
        -11    1    4    4    0    0 -0.20873905949E+02 -0.34797630652E+02  0.11368496092E+02  0.42140689980E+02  0.00000000000E+00 0. -1.
         11    1    4    4    0    0  0.77323896184E+02 -0.41755990766E+02  0.66978874202E+02  0.11049306438E+03  0.00000000000E+00 0.  1.
</event>
<event>
 8    1  0.7232317E-009  0.2166555E+03  0.7561462E-02  0.1136401E+00
          2   -1    0    0  501    0  0.00000000000E+00  0.00000000000E+00  0.24888695258E+03  0.24888695258E+03  0.00000000000E+00 0. -1.
         -2   -1    0    0    0  501 -0.00000000000E+00 -0.00000000000E+00 -0.22093242334E+03  0.22093242334E+03  0.00000000000E+00 0.  1.
         25    2    1    2    0    0  0.11446434240E+03 -0.16277112128E+03  0.72967778158E+02  0.24610814538E+03  0.12509356086E+03 0.  0.
         23    2    1    2    0    0 -0.11446434240E+03  0.16277112128E+03 -0.45013248922E+02  0.22371123053E+03  0.91782342977E+02 0.  0.
          5    1    3    3  502    0  0.39088741785E+02 -0.14742866236E+03  0.23042148610E+02  0.15430992590E+03  0.41800000000E+01 0.  1.
         -5    1    3    3    0  502  0.75375600618E+02 -0.15342458925E+02  0.49925629548E+02  0.91798219482E+02  0.41800000000E+01 0.  1.
        -11    1    4    4    0    0 -0.26108367624E+02  0.73904755153E+02 -0.58310998933E+02  0.97692027775E+02  0.00000000000E+00 0.  1.
         11    1    4    4    0    0 -0.88355974779E+02  0.88866366130E+02  0.13297750011E+02  0.12601920276E+03  0.00000000000E+00 0. -1.
</event>
<event>
 8    1  0.7232317E-009  0.1287948E+03  0.7561462E-02  0.1229255E+00
         -1   -1    0    0    0  501 -0.00000000000E+00  0.00000000000E+00  0.74924546570E+02  0.74924546570E+02  0.00000000000E+00 0.  1.
          1   -1    0    0  501    0  0.00000000000E+00 -0.00000000000E+00 -0.34655000111E+03  0.34655000111E+03  0.00000000000E+00 0. -1.
         25    2    1    2    0    0  0.76282029485E+02 -0.90278899171E+02 -0.15046244485E+03  0.22859162142E+03  0.12508378957E+03 0.  0.
         23    2    1    2    0    0 -0.76282029485E+02  0.90278899171E+02 -0.12116300969E+03  0.19288292627E+03  0.92488489393E+02 0.  0.
          5    1    3    3  502    0  0.59485811701E+02 -0.86187932484E+02 -0.17153358654E+03  0.20101782312E+03  0.41800000000E+01 0.  1.
         -5    1    3    3    0  502  0.16796217785E+02 -0.40909666868E+01  0.21071141691E+02  0.27573798296E+02  0.41800000000E+01 0.  1.
        -11    1    4    4    0    0 -0.22991765272E+02  0.76605366492E+02 -0.28099817455E+02  0.84773835508E+02  0.00000000000E+00 0.  1.
         11    1    4    4    0    0 -0.53290264213E+02  0.13673532679E+02 -0.93063192234E+02  0.10810909076E+03  0.00000000000E+00 0. -1.
</event>
<event>
 8    1  0.7232317E-009  0.1413337E+03  0.7561462E-02  0.1211546E+00
          1   -1    0    0  501    0  0.00000000000E+00  0.00000000000E+00  0.28866699315E+03  0.28866699315E+03  0.00000000000E+00 0. -1.
         -1   -1    0    0    0  501 -0.00000000000E+00 -0.00000000000E+00 -0.11949953555E+03  0.11949953555E+03  0.00000000000E+00 0.  1.
         25    2    1    2    0    0  0.87520351500E+02  0.86553723105E+02 -0.48264891998E+01  0.17559000428E+03  0.12512871651E+03 0.  0.
         23    2    1    2    0    0 -0.87520351500E+02 -0.86553723105E+02  0.17399394680E+03  0.23257652443E+03  0.93094507261E+02 0.  0.
          5    1    3    3  502    0  0.62386215653E+02  0.10889429732E+03  0.27734626102E+02  0.12859506125E+03  0.41800000000E+01 0.  1.
         -5    1    3    3    0  502  0.25134135848E+02 -0.22340574212E+02 -0.32561115302E+02  0.46994943033E+02  0.41800000000E+01 0.  1.
        -11    1    4    4    0    0 -0.49515435235E+02 -0.52753130111E+02  0.16601191831E+03  0.18109287143E+03  0.00000000000E+00 0. -1.
         11    1    4    4    0    0 -0.38004916265E+02 -0.33800592994E+02  0.79820284913E+01  0.51483652997E+02  0.00000000000E+00 0.  1.
</event>
<event>
 8    1  0.7232317E-009  0.1103094E+03  0.7561462E-02  0.1259998E+00
          1   -1    0    0  501    0  0.00000000000E+00  0.00000000000E+00  0.44114257802E+03  0.44114257802E+03  0.00000000000E+00 0. -1.
         -1   -1    0    0    0  501 -0.00000000000E+00 -0.00000000000E+00 -0.29329491286E+02  0.29329491286E+02  0.00000000000E+00 0.  1.
         25    2    1    2    0    0 -0.35843177679E+01  0.55893422777E+02  0.25936011039E+03  0.29334631727E+03  0.12508985949E+03 0.  0.
         23    2    1    2    0    0  0.35843177679E+01 -0.55893422777E+02  0.15245297635E+03  0.17712575204E+03  0.70673191498E+02 0.  0.
          5    1    3    3  502    0  0.57538296268E+02  0.66863557633E+01  0.12141206616E+03  0.13458723973E+03  0.41800000000E+01 0.  1.
         -5    1    3    3    0  502 -0.61122614036E+02  0.49207067013E+02  0.13794804423E+03  0.15875907753E+03  0.41800000000E+01 0.  1.
        -11    1    4    4    0    0  0.32043979050E+02 -0.18600599608E+02  0.36356213362E+02  0.51909278064E+02  0.00000000000E+00 0.  1.
         11    1    4    4    0    0 -0.28459661282E+02 -0.37292823169E+02  0.11609676299E+03  0.12521647398E+03  0.00000000000E+00 0. -1.
</event>
<event>
 8    1  0.7232317E-009  0.8247422E+02  0.7561462E-02  0.1322173E+00
          1   -1    0    0  501    0  0.00000000000E+00  0.00000000000E+00  0.24016835849E+03  0.24016835849E+03  0.00000000000E+00 0. -1.
         -1   -1    0    0    0  501 -0.00000000000E+00 -0.00000000000E+00 -0.79388639980E+02  0.79388639980E+02  0.00000000000E+00 0.  1.
         25    2    1    2    0    0 -0.39085860159E+02 -0.57548646188E+02  0.33888889513E+02  0.14708841706E+03  0.12508794689E+03 0.  0.
         23    2    1    2    0    0  0.39085860159E+02  0.57548646188E+02  0.12689082900E+03  0.17246858141E+03  0.93832712574E+02 0.  0.
          5    1    3    3  502    0 -0.29830700058E+02 -0.30347337699E+02 -0.45570821463E+02  0.62490029126E+02  0.41800000000E+01 0.  1.
         -5    1    3    3    0  502 -0.92551601005E+01 -0.27201308489E+02  0.79459710975E+02  0.84598387930E+02  0.41800000000E+01 0.  1.
        -11    1    4    4    0    0 -0.16344211616E+02  0.58569091037E+01 -0.69145694785E+01  0.18688175638E+02  0.00000000000E+00 0.  1.
         11    1    4    4    0    0  0.55430071775E+02  0.51691737084E+02  0.13380539847E+03  0.15378040578E+03  0.00000000000E+00 0. -1.
</event>
<event>
 8    1  0.7232317E-009  0.1256238E+03  0.7561462E-02  0.1234098E+00
         -2   -1    0    0    0  501 -0.00000000000E+00  0.00000000000E+00  0.10297771413E+03  0.10297771413E+03  0.00000000000E+00 0.  1.
          2   -1    0    0  501    0  0.00000000000E+00 -0.00000000000E+00 -0.18831774607E+03  0.18831774607E+03  0.00000000000E+00 0. -1.
         25    2    1    2    0    0  0.42441642488E+02  0.66024094889E+02 -0.83859563075E+01  0.14791169293E+03  0.12508825092E+03 0.  0.
         23    2    1    2    0    0 -0.42441642488E+02 -0.66024094889E+02 -0.76954075638E+02  0.14338376727E+03  0.92067914254E+02 0.  0.
          5    1    3    3  502    0  0.55960511254E+01 -0.33441721060E+02 -0.22378243551E+02  0.40840209109E+02  0.41800000000E+01 0.  1.
         -5    1    3    3    0  502  0.36845591363E+02  0.99465815949E+02  0.13992287243E+02  0.10707148382E+03  0.41800000000E+01 0.  1.
        -11    1    4    4    0    0  0.16909121647E+02 -0.44824177714E+02 -0.56814919422E+01  0.48243182454E+02  0.00000000000E+00 0.  1.
         11    1    4    4    0    0 -0.59350764136E+02 -0.21199917175E+02 -0.71272583696E+02  0.95140584812E+02  0.00000000000E+00 0. -1.
</event>
<event>
 8    1  0.7232317E-009  0.1086411E+03  0.7561462E-02  0.1263107E+00
          1   -1    0    0  501    0  0.00000000000E+00  0.00000000000E+00  0.26082394471E+03  0.26082394471E+03  0.00000000000E+00 0. -1.
         -1   -1    0    0    0  501 -0.00000000000E+00 -0.00000000000E+00 -0.62971065856E+02  0.62971065856E+02  0.00000000000E+00 0.  1.
         25    2    1    2    0    0 -0.30954552079E+02  0.25896764290E+00  0.31543115486E+02  0.13266767764E+03  0.12508994043E+03 0.  0.
         23    2    1    2    0    0  0.30954552079E+02 -0.25896764290E+00  0.16630976337E+03  0.19112733292E+03  0.88952058106E+02 0.  0.
          5    1    3    3  502    0  0.36289589690E+01  0.57876571581E+02  0.29759614975E+02  0.65314423864E+02  0.41800000000E+01 0. -1.
         -5    1    3    3    0  502 -0.34583511048E+02 -0.57617603939E+02  0.17835005118E+01  0.67353253775E+02  0.41800000000E+01 0. -1.
        -11    1    4    4    0    0  0.12671779297E+01  0.40979456782E+02  0.95907129645E+02  0.10430292007E+03  0.00000000000E+00 0. -1.
         11    1    4    4    0    0  0.29687374149E+02 -0.41238424425E+02  0.70402633721E+02  0.86824412856E+02  0.00000000000E+00 0.  1.
</event>
<event>
 8    1  0.7232317E-009  0.1013329E+03  0.7561462E-02  0.1277518E+00
         -1   -1    0    0    0  501 -0.00000000000E+00  0.00000000000E+00  0.20629271857E+03  0.20629271857E+03  0.00000000000E+00 0.  1.
          1   -1    0    0  501    0  0.00000000000E+00 -0.00000000000E+00 -0.77854446624E+02  0.77854446624E+02  0.00000000000E+00 0. -1.
         25    2    1    2    0    0 -0.23078470726E+02  0.59569623002E+02  0.84901141938E+02  0.16411596808E+03  0.12507874032E+03 0.  0.
         23    2    1    2    0    0  0.23078470726E+02 -0.59569623002E+02  0.43537130010E+02  0.12003119712E+03  0.91819664539E+02 0.  0.
          5    1    3    3  502    0  0.31704378859E+02  0.66739649366E+02  0.79232674899E+02  0.10841880652E+03  0.41800000000E+01 0. -1.
         -5    1    3    3    0  502 -0.54782849585E+02 -0.71700263634E+01  0.56684670387E+01  0.55697161555E+02  0.41800000000E+01 0. -1.
        -11    1    4    4    0    0  0.25018700595E+01 -0.50838249802E+02  0.69260911028E+02  0.85952666003E+02  0.00000000000E+00 0.  1.
         11    1    4    4    0    0  0.20576600667E+02 -0.87313732003E+01 -0.25723781018E+02  0.34078531113E+02  0.00000000000E+00 0. -1.
</event>
<event>
 8    1  0.7232317E-009  0.1448267E+03  0.7561462E-02  0.1206978E+00
          2   -1    0    0  501    0  0.00000000000E+00  0.00000000000E+00  0.12287982607E+04  0.12287982607E+04  0.00000000000E+00 0. -1.
         -2   -1    0    0    0  501 -0.00000000000E+00 -0.00000000000E+00 -0.20152150136E+02  0.20152150136E+02  0.00000000000E+00 0.  1.
         25    2    1    2    0    0 -0.91608417642E+02 -0.60825906782E+02  0.53424257302E+03  0.55960217372E+03  0.12509025895E+03 0.  0.
         23    2    1    2    0    0  0.91608417642E+02  0.60825906782E+02  0.67440353756E+03  0.68934823713E+03  0.91043766661E+02 0.  0.
          5    1    3    3  502    0 -0.60230393241E+02 -0.86970897293E+02  0.23745683229E+03  0.25999010913E+03  0.41800000000E+01 0. -1.
         -5    1    3    3    0  502 -0.31378024402E+02  0.26144990510E+02  0.29678574074E+03  0.29961206459E+03  0.41800000000E+01 0. -1.
        -11    1    4    4    0    0  0.53672093259E+02  0.82955935383E+02  0.45951304245E+03  0.47001554973E+03  0.00000000000E+00 0.  1.
         11    1    4    4    0    0  0.37936324384E+02 -0.22130028601E+02  0.21489049511E+03  0.21933268740E+03  0.00000000000E+00 0. -1.
</event>
<event>
 8    1  0.7232317E-009  0.1482653E+03  0.7561462E-02  0.1202621E+00
         -2   -1    0    0    0  501 -0.00000000000E+00  0.00000000000E+00  0.17068767652E+03  0.17068767652E+03  0.00000000000E+00 0. -1.
          2   -1    0    0  501    0  0.00000000000E+00 -0.00000000000E+00 -0.16206611492E+03  0.16206611492E+03  0.00000000000E+00 0.  1.
         25    2    1    2    0    0 -0.50053656459E+02  0.11223270653E+03  0.30316775188E+02  0.17795517496E+03  0.12508952194E+03 0.  0.
         23    2    1    2    0    0  0.50053656459E+02 -0.11223270653E+03 -0.21695213585E+02  0.15479861647E+03  0.91599019806E+02 0.  0.
          5    1    3    3  502    0  0.31685591805E+02  0.78875060623E+02  0.19314740176E+01  0.85126111789E+02  0.41800000000E+01 0.  1.
         -5    1    3    3    0  502 -0.81739248265E+02  0.33357645909E+02  0.28385301171E+02  0.92829063175E+02  0.41800000000E+01 0.  1.
        -11    1    4    4    0    0  0.37970689567E+02 -0.91171979012E+02  0.25255652525E+02  0.10194091920E+03  0.00000000000E+00 0. -1.
         11    1    4    4    0    0  0.12082966893E+02 -0.21060727521E+02 -0.46950866110E+02  0.52857697274E+02  0.00000000000E+00 0.  1.
</event>
<event>
 8    1  0.7232317E-009  0.1807590E+03  0.7561462E-02  0.1167071E+00
         -2   -1    0    0    0  501 -0.00000000000E+00  0.00000000000E+00  0.14701482007E+02  0.14701482007E+02  0.00000000000E+00 0.  1.
          2   -1    0    0  501    0  0.00000000000E+00 -0.00000000000E+00 -0.32951098649E+04  0.32951098649E+04  0.00000000000E+00 0. -1.
         25    2    1    2    0    0  0.16568376695E+03 -0.13565450491E+02 -0.24141024600E+04  0.24230503970E+04  0.12508959409E+03 0.  0.
         23    2    1    2    0    0 -0.16568376695E+03  0.13565450491E+02 -0.86630592287E+03  0.88676094997E+03  0.90685711700E+02 0.  0.
          5    1    3    3  502    0  0.12069485749E+02  0.11197567065E+02 -0.35438324917E+02  0.39298921962E+02  0.41800000000E+01 0.  1.
         -5    1    3    3    0  502  0.15361428121E+03 -0.24763017557E+02 -0.23786641351E+04  0.23837514750E+04  0.41800000000E+01 0.  1.
        -11    1    4    4    0    0 -0.77669442485E+02  0.51336040237E+02 -0.45881149812E+03  0.46816228183E+03  0.00000000000E+00 0. -1.
         11    1    4    4    0    0 -0.88014324469E+02 -0.37770589746E+02 -0.40749442475E+03  0.41859866814E+03  0.00000000000E+00 0.  1.
</event>
<event>
 8    1  0.7232317E-009  0.2199373E+03  0.7561462E-02  0.1133930E+00
         -2   -1    0    0    0  501 -0.00000000000E+00  0.00000000000E+00  0.95015918747E+03  0.95015918747E+03  0.00000000000E+00 0.  1.
          2   -1    0    0  501    0  0.00000000000E+00 -0.00000000000E+00 -0.11127968980E+03  0.11127968980E+03  0.00000000000E+00 0. -1.
         25    2    1    2    0    0 -0.21021762868E+03 -0.12297656129E+02  0.78948229496E+03  0.82660177209E+03  0.12508202032E+03 0.  0.
         23    2    1    2    0    0  0.21021762868E+03  0.12297656129E+02  0.49397202708E+02  0.23483710519E+03  0.91464192892E+02 0.  0.
          5    1    3    3  502    0 -0.14052929783E+02  0.74052271068E+01  0.27704403087E+03  0.27753052024E+03  0.41800000000E+01 0.  1.
         -5    1    3    3    0  502 -0.19616469890E+03 -0.19702883236E+02  0.51243826409E+03  0.54907125185E+03  0.41800000000E+01 0.  1.
        -11    1    4    4    0    0  0.12856230457E+03  0.47870820330E+02  0.10316877690E+02  0.13757296086E+03  0.00000000000E+00 0. -1.
         11    1    4    4    0    0  0.81655324115E+02 -0.35573164202E+02  0.39080325018E+02  0.97264144325E+02  0.00000000000E+00 0.  1.
</event>
<event>
 8    1  0.7232317E-009  0.1257644E+03  0.7561462E-02  0.1233879E+00
          1   -1    0    0  501    0  0.00000000000E+00  0.00000000000E+00  0.87937197009E+03  0.87937197009E+03  0.00000000000E+00 0. -1.
         -1   -1    0    0    0  501 -0.00000000000E+00 -0.00000000000E+00 -0.20300490970E+02  0.20300490970E+02  0.00000000000E+00 0.  1.
         25    2    1    2    0    0  0.37295573828E+02  0.63400962132E+02  0.44783412400E+03  0.47075932668E+03  0.12509316213E+03 0.  0.
         23    2    1    2    0    0 -0.37295573828E+02 -0.63400962132E+02  0.41123735511E+03  0.42891313437E+03  0.97157978420E+02 0.  0.
          5    1    3    3  502    0 -0.26414115166E+01 -0.36047855754E+02  0.14496877089E+03  0.14946518623E+03  0.41800000000E+01 0.  1.
         -5    1    3    3    0  502  0.39936985344E+02  0.99448817886E+02  0.30286535311E+03  0.32129414046E+03  0.41800000000E+01 0.  1.
        -11    1    4    4    0    0  0.16208832068E+02 -0.50246244481E+02  0.10250264643E+03  0.11530049370E+03  0.00000000000E+00 0.  1.
         11    1    4    4    0    0 -0.53504405895E+02 -0.13154717651E+02  0.30873470868E+03  0.31361264067E+03  0.00000000000E+00 0. -1.
</event>
<event>
 8    1  0.7232317E-009  0.4092307E+02  0.7561462E-02  0.1501526E+00
         -4   -1    0    0    0  501 -0.00000000000E+00  0.00000000000E+00  0.88359578579E+02  0.88359578579E+02  0.00000000000E+00 0.  1.
          4   -1    0    0  501    0  0.00000000000E+00 -0.00000000000E+00 -0.13986481080E+03  0.13986481080E+03  0.00000000000E+00 0. -1.
         25    2    1    2    0    0 -0.72877288319E+01 -0.37293226326E+00 -0.39159718546E+02  0.13127901498E+03  0.12508975237E+03 0.  0.
         23    2    1    2    0    0  0.72877288319E+01  0.37293226326E+00 -0.12345513669E+02  0.96945374392E+02  0.95878797647E+02 0.  0.
          5    1    3    3  502    0  0.12396392686E+02 -0.22997885628E+01  0.43863308390E+02  0.45830358955E+02  0.41800000000E+01 0. -1.
         -5    1    3    3    0  502 -0.19684121518E+02  0.19268562996E+01 -0.83023026937E+02  0.85448656027E+02  0.41800000000E+01 0. -1.
        -11    1    4    4    0    0  0.39568978683E+01  0.24082741451E+02  0.35711447103E+02  0.43254397819E+02  0.00000000000E+00 0.  1.
         11    1    4    4    0    0  0.33308309636E+01 -0.23709809187E+02 -0.48056960773E+02  0.53690976573E+02  0.00000000000E+00 0. -1.
</event>
<event>
 8    1  0.7232317E-009  0.2214874E+03  0.7561462E-02  0.1132779E+00
          2   -1    0    0  501    0  0.00000000000E+00  0.00000000000E+00  0.54567566284E+03  0.54567566284E+03  0.00000000000E+00 0.  1.
         -2   -1    0    0    0  501 -0.00000000000E+00 -0.00000000000E+00 -0.97811596309E+02  0.97811596309E+02  0.00000000000E+00 0. -1.
         25    2    1    2    0    0  0.18173178732E+03 -0.91191654042E+02  0.23979382998E+03  0.33836503178E+03  0.12508978195E+03 0.  0.
         23    2    1    2    0    0 -0.18173178732E+03  0.91191654042E+02  0.20807023654E+03  0.30512222736E+03  0.91999945680E+02 0.  0.
          5    1    3    3  502    0  0.19450650362E+03 -0.68362064274E+02  0.18303205591E+03  0.27572514879E+03  0.41800000000E+01 0.  1.
         -5    1    3    3    0  502 -0.12774716305E+02 -0.22829589768E+02  0.56761774078E+02  0.62639882999E+02  0.41800000000E+01 0.  1.
        -11    1    4    4    0    0 -0.98648837150E+02  0.19557002108E+02  0.15110526852E+03  0.18151273117E+03  0.00000000000E+00 0.  1.
         11    1    4    4    0    0 -0.83082950169E+02  0.71634651934E+02  0.56964968024E+02  0.12360949619E+03  0.00000000000E+00 0. -1.
</event>
<event>
 8    1  0.7232317E-009  0.6843431E+02  0.7561462E-02  0.1365500E+00
          2   -1    0    0  501    0  0.00000000000E+00  0.00000000000E+00  0.81700110708E+03  0.81700110708E+03  0.00000000000E+00 0. -1.
         -2   -1    0    0    0  501 -0.00000000000E+00 -0.00000000000E+00 -0.20231418733E+02  0.20231418733E+02  0.00000000000E+00 0.  1.
         25    2    1    2    0    0 -0.28573994434E+02  0.33428088027E+02  0.61653663903E+03  0.63063130154E+03  0.12507797961E+03 0.  0.
         23    2    1    2    0    0  0.28573994434E+02 -0.33428088027E+02  0.18023304931E+03  0.20660122427E+03  0.90918664637E+02 0.  0.
          5    1    3    3  502    0 -0.22230373818E+02  0.13385410483E+02  0.18337600126E+02  0.32048380806E+02  0.41800000000E+01 0.  1.
         -5    1    3    3    0  502 -0.63436206168E+01  0.20042677544E+02  0.59819903891E+03  0.59858292074E+03  0.41800000000E+01 0.  1.
        -11    1    4    4    0    0  0.45453858237E+02  0.63916493196E+01  0.43680532770E+02  0.63363201882E+02  0.00000000000E+00 0.  1.
         11    1    4    4    0    0 -0.16879863803E+02 -0.39819737347E+02  0.13655251654E+03  0.14323802239E+03  0.00000000000E+00 0. -1.
</event>
<event>
 8    1  0.7232317E-009  0.1432610E+03  0.7561462E-02  0.1209007E+00
         -3   -1    0    0    0  501 -0.00000000000E+00  0.00000000000E+00  0.84752015549E+03  0.84752015549E+03  0.00000000000E+00 0.  1.
          3   -1    0    0  501    0  0.00000000000E+00 -0.00000000000E+00 -0.47062981212E+02  0.47062981212E+02  0.00000000000E+00 0. -1.
         25    2    1    2    0    0  0.45602089885E+02  0.95371476018E+02  0.71024810635E+03  0.72888408954E+03  0.12507747349E+03 0.  0.
         23    2    1    2    0    0 -0.45602089885E+02 -0.95371476018E+02  0.90209067927E+02  0.16569904716E+03  0.90239842935E+02 0.  0.
          5    1    3    3  502    0 -0.96009383034E+01  0.10665594707E+03  0.45289308037E+03  0.46540013291E+03  0.41800000000E+01 0. -1.
         -5    1    3    3    0  502  0.55203028188E+02 -0.11284471050E+02  0.25735502597E+03  0.26348395663E+03  0.41800000000E+01 0. -1.
        -11    1    4    4    0    0  0.10211873299E+02  0.22003249262E+01 -0.10474348929E+02  0.14793098781E+02  0.00000000000E+00 0. -1.
         11    1    4    4    0    0 -0.55813963184E+02 -0.97571800944E+02  0.10068341686E+03  0.15090594838E+03  0.00000000000E+00 0.  1.
</event>
<event>
 8    1  0.7232317E-009  0.1029983E+03  0.7561462E-02  0.1274114E+00
         -2   -1    0    0    0  501 -0.00000000000E+00  0.00000000000E+00  0.78572689133E+01  0.78572689133E+01  0.00000000000E+00 0.  1.
          2   -1    0    0  501    0  0.00000000000E+00 -0.00000000000E+00 -0.23897413776E+04  0.23897413776E+04  0.00000000000E+00 0. -1.
         25    2    1    2    0    0 -0.69371599437E+01 -0.84752062212E+01 -0.20006049452E+04  0.20045418121E+04  0.12509107284E+03 0.  0.
         23    2    1    2    0    0  0.69371599437E+01  0.84752062212E+01 -0.38127916349E+03  0.39305683439E+03  0.94867914697E+02 0.  0.
          5    1    3    3  502    0  0.51495707957E+02 -0.39738724634E+01 -0.14259114005E+04  0.14268526183E+04  0.41800000000E+01 0.  1.
         -5    1    3    3    0  502 -0.58432867901E+02 -0.45013337578E+01 -0.57469354462E+03  0.57768919385E+03  0.41800000000E+01 0.  1.
        -11    1    4    4    0    0  0.30132045800E+02  0.43800622361E+02 -0.20470390619E+03  0.21149497373E+03  0.00000000000E+00 0.  1.
         11    1    4    4    0    0 -0.23194885857E+02 -0.35325416139E+02 -0.17657525730E+03  0.18156186066E+03  0.00000000000E+00 0. -1.
</event>
<event>
 8    1  0.7232317E-009  0.1368242E+03  0.7561462E-02  0.1217667E+00
         -1   -1    0    0    0  501 -0.00000000000E+00  0.00000000000E+00  0.39479051172E+03  0.39479051172E+03  0.00000000000E+00 0.  1.
          1   -1    0    0  501    0  0.00000000000E+00 -0.00000000000E+00 -0.55384139175E+02  0.55384139175E+02  0.00000000000E+00 0. -1.
         25    2    1    2    0    0  0.99281821280E+02 -0.92396073073E+01  0.16200630861E+03  0.22767444034E+03  0.12508939353E+03 0.  0.
         23    2    1    2    0    0 -0.99281821280E+02  0.92396073073E+01  0.17740006394E+03  0.22250021056E+03  0.89962829187E+02 0.  0.
          5    1    3    3  502    0  0.46029675873E+02 -0.53769858078E+02  0.13610163422E+03  0.15346353292E+03  0.41800000000E+01 0.  1.
         -5    1    3    3    0  502  0.53252145408E+02  0.44530250771E+02  0.25904674389E+02  0.74210907416E+02  0.41800000000E+01 0.  1.
        -11    1    4    4    0    0 -0.38751760025E+02 -0.39613791155E+02  0.60065762011E+02  0.81724213797E+02  0.00000000000E+00 0.  1.
         11    1    4    4    0    0 -0.60530061255E+02  0.48853398462E+02  0.11733430193E+03  0.14077599677E+03  0.00000000000E+00 0. -1.
</event>
<event>
 8    1  0.7232317E-009  0.4654547E+02  0.7561462E-02  0.1464918E+00
          2   -1    0    0  501    0  0.00000000000E+00  0.00000000000E+00  0.76765008043E+02  0.76765008043E+02  0.00000000000E+00 0. -1.
         -2   -1    0    0    0  501 -0.00000000000E+00 -0.00000000000E+00 -0.25811003057E+03  0.25811003057E+03  0.00000000000E+00 0.  1.
         25    2    1    2    0    0 -0.12266878404E+02 -0.22265810459E+02 -0.20370605312E+03  0.24039616574E+03  0.12509163762E+03 0.  0.
         23    2    1    2    0    0  0.12266878404E+02  0.22265810459E+02  0.22361030589E+02  0.94478872881E+02  0.88204303243E+02 0.  0.
          5    1    3    3  502    0  0.24266797302E+01  0.52953831674E+01 -0.20841169228E+03  0.20853497485E+03  0.41800000000E+01 0.  1.
         -5    1    3    3    0  502 -0.14693558134E+02 -0.27561193626E+02  0.47056391582E+01  0.31861190886E+02  0.41800000000E+01 0.  1.
        -11    1    4    4    0    0  0.26866744006E+02  0.27925432524E+02 -0.23975332516E+02  0.45568281560E+02  0.00000000000E+00 0.  1.
         11    1    4    4    0    0 -0.14599865601E+02 -0.56596220653E+01  0.46336363105E+02  0.48910591320E+02  0.00000000000E+00 0. -1.
</event>
<event>
 8    1  0.7232317E-009  0.1121767E+03  0.7561462E-02  0.1256591E+00
         -1   -1    0    0    0  501 -0.00000000000E+00  0.00000000000E+00  0.10882770424E+02  0.10882770424E+02  0.00000000000E+00 0. -1.
          1   -1    0    0  501    0  0.00000000000E+00 -0.00000000000E+00 -0.12750253139E+04  0.12750253139E+04  0.00000000000E+00 0.  1.
         25    2    1    2    0    0 -0.10969096668E+02 -0.26902213396E+02 -0.89420638929E+03  0.90338076656E+03  0.12509073737E+03 0.  0.
         23    2    1    2    0    0  0.10969096668E+02  0.26902213396E+02 -0.36993615418E+03  0.38252731776E+03  0.92899625908E+02 0.  0.
          5    1    3    3  502    0  0.27309101487E+02 -0.66979651536E+02 -0.47086722608E+03  0.47640893961E+03  0.41800000000E+01 0.  1.
         -5    1    3    3    0  502 -0.38278198155E+02  0.40077438140E+02 -0.42333916321E+03  0.42697182695E+03  0.41800000000E+01 0.  1.
        -11    1    4    4    0    0  0.35336723265E+02  0.51003498128E+02 -0.26359765679E+03  0.27080207809E+03  0.00000000000E+00 0.  1.
         11    1    4    4    0    0 -0.24367626597E+02 -0.24101284732E+02 -0.10633849739E+03  0.11172523967E+03  0.00000000000E+00 0. -1.
</event>
<event>
 8    1  0.7232317E-009  0.1201419E+03  0.7561462E-02  0.1242863E+00
          1   -1    0    0  501    0  0.00000000000E+00  0.00000000000E+00  0.71388335726E+03  0.71388335726E+03  0.00000000000E+00 0. -1.
         -1   -1    0    0    0  501 -0.00000000000E+00 -0.00000000000E+00 -0.29874055343E+02  0.29874055343E+02  0.00000000000E+00 0.  1.
         25    2    1    2    0    0  0.64672599944E+02 -0.74890099138E+02  0.36469335280E+03  0.39804595992E+03  0.12509305536E+03 0.  0.
         23    2    1    2    0    0 -0.64672599944E+02  0.74890099138E+02  0.31931594911E+03  0.34571145268E+03  0.88105964740E+02 0.  0.
          5    1    3    3  502    0  0.77807798651E+02 -0.91067930320E+02  0.35499920265E+03  0.37468563856E+03  0.41800000000E+01 0. -1.
         -5    1    3    3    0  502 -0.13135198707E+02  0.16177831182E+02  0.96941501534E+01  0.23360321359E+02  0.41800000000E+01 0. -1.
        -11    1    4    4    0    0 -0.33593852489E+02  0.43989478211E+02  0.55871068083E+02  0.78646025754E+02  0.00000000000E+00 0.  1.
         11    1    4    4    0    0 -0.31078747455E+02  0.30900620928E+02  0.26344488103E+03  0.26706542692E+03  0.00000000000E+00 0. -1.
</event>
<event>
 8    1  0.7232317E-009  0.1923106E+03  0.7561462E-02  0.1156394E+00
          1   -1    0    0  501    0  0.00000000000E+00  0.00000000000E+00  0.26902811248E+03  0.26902811248E+03  0.00000000000E+00 0. -1.
         -1   -1    0    0    0  501 -0.00000000000E+00 -0.00000000000E+00 -0.21204970676E+03  0.21204970676E+03  0.00000000000E+00 0.  1.
         25    2    1    2    0    0  0.13051175352E+03  0.92250267500E+02 -0.11143208328E+03  0.23153648834E+03  0.12509439072E+03 0.  0.
         23    2    1    2    0    0 -0.13051175352E+03 -0.92250267500E+02  0.16841048900E+03  0.24954133089E+03  0.91462305667E+02 0.  0.
          5    1    3    3  502    0  0.13633686985E+03  0.31966550184E+02 -0.92756180943E+02  0.16802018900E+03  0.41800000000E+01 0. -1.
         -5    1    3    3    0  502 -0.58251163215E+01  0.60283717316E+02 -0.18675902336E+02  0.63516299338E+02  0.41800000000E+01 0. -1.
        -11    1    4    4    0    0 -0.10566302581E+03 -0.20167443219E+02  0.10583172810E+03  0.15090313271E+03  0.00000000000E+00 0. -1.
         11    1    4    4    0    0 -0.24848727714E+02 -0.72082824281E+02  0.62578760904E+02  0.98638198187E+02  0.00000000000E+00 0.  1.
</event>
<event>
 8    1  0.7232317E-009  0.1116709E+03  0.7561462E-02  0.1257507E+00
         -4   -1    0    0    0  501 -0.00000000000E+00  0.00000000000E+00  0.14807893121E+03  0.14807893121E+03  0.00000000000E+00 0.  1.
          4   -1    0    0  501    0  0.00000000000E+00 -0.00000000000E+00 -0.90911407771E+02  0.90911407771E+02  0.00000000000E+00 0. -1.
         25    2    1    2    0    0  0.27908750639E+02  0.28356065771E+02  0.45373474333E+02  0.13888301477E+03  0.12508706883E+03 0.  0.
         23    2    1    2    0    0 -0.27908750639E+02 -0.28356065771E+02  0.11794049104E+02  0.10010732421E+03  0.91101108328E+02 0.  0.
          5    1    3    3  502    0  0.74131785863E+02  0.16389141098E+02  0.49573609657E+02  0.90769712986E+02  0.41800000000E+01 0. -1.
         -5    1    3    3    0  502 -0.46223035224E+02  0.11966924673E+02 -0.42001353236E+01  0.48113301780E+02  0.41800000000E+01 0. -1.
        -11    1    4    4    0    0  0.24150878433E+02 -0.39347516180E+02  0.41594099223E+01  0.46355071454E+02  0.00000000000E+00 0.  1.
         11    1    4    4    0    0 -0.52059629072E+02  0.10991450410E+02  0.76346391819E+01  0.53752252759E+02  0.00000000000E+00 0. -1.
</event>
<event>
 8    1  0.7232317E-009  0.2518651E+03  0.7561462E-02  0.1112132E+00
         -1   -1    0    0    0  501 -0.00000000000E+00  0.00000000000E+00  0.31375755499E+03  0.31375755499E+03  0.00000000000E+00 0.  1.
          1   -1    0    0  501    0  0.00000000000E+00 -0.00000000000E+00 -0.26109199706E+03  0.26109199706E+03  0.00000000000E+00 0. -1.
         25    2    1    2    0    0  0.11811468837E+03 -0.20908639792E+03 -0.84632972102E+02  0.28368759289E+03  0.12509080298E+03 0.  0.
         23    2    1    2    0    0 -0.11811468837E+03  0.20908639792E+03  0.13729853003E+03  0.29116195916E+03  0.90863626984E+02 0.  0.
          5    1    3    3  502    0  0.13337925563E+03 -0.17435342288E+03 -0.10158726948E+03  0.24192268934E+03  0.41800000000E+01 0. -1.
         -5    1    3    3    0  502 -0.15264567257E+02 -0.34732975043E+02  0.16954297373E+02  0.41764903547E+02  0.41800000000E+01 0. -1.
        -11    1    4    4    0    0 -0.21872882896E+02  0.83988405257E+01  0.43954668965E+02  0.49809401243E+02  0.00000000000E+00 0.  1.
         11    1    4    4    0    0 -0.96241805473E+02  0.20068755739E+03  0.93343861063E+02  0.24135255791E+03  0.00000000000E+00 0. -1.
</event>
<event>
 8    1  0.7232317E-009  0.1924612E+03  0.7561462E-02  0.1156260E+00
          3   -1    0    0  501    0  0.00000000000E+00  0.00000000000E+00  0.35692004324E+02  0.35692004324E+02  0.00000000000E+00 0. -1.
         -3   -1    0    0    0  501 -0.00000000000E+00 -0.00000000000E+00 -0.12534269111E+04  0.12534269111E+04  0.00000000000E+00 0.  1.
         25    2    1    2    0    0 -0.56457103666E+02 -0.16682650849E+03 -0.51325668706E+03  0.55686521193E+03  0.12509176214E+03 0.  0.
         23    2    1    2    0    0  0.56457103666E+02  0.16682650849E+03 -0.70447821975E+03  0.73225370353E+03  0.94273197350E+02 0.  0.
          5    1    3    3  502    0 -0.32910239190E+02 -0.17440438741E+03 -0.49490179126E+03  0.52578059073E+03  0.41800000000E+01 0.  1.
         -5    1    3    3    0  502 -0.23546864477E+02  0.75778789167E+01 -0.18354895801E+02  0.31084621204E+02  0.41800000000E+01 0.  1.
        -11    1    4    4    0    0  0.65369677774E+01  0.92730574852E+02 -0.50773278058E+03  0.51617271135E+03  0.00000000000E+00 0.  1.
         11    1    4    4    0    0  0.49920135889E+02  0.74095933642E+02 -0.19674543917E+03  0.21608099218E+03  0.00000000000E+00 0. -1.
</event>
<event>
 8    1  0.7232317E-009  0.1393703E+03  0.7561462E-02  0.1214179E+00
          1   -1    0    0  501    0  0.00000000000E+00  0.00000000000E+00  0.16020313936E+03  0.16020313936E+03  0.00000000000E+00 0. -1.
         -1   -1    0    0    0  501 -0.00000000000E+00 -0.00000000000E+00 -0.23804115572E+03  0.23804115572E+03  0.00000000000E+00 0.  1.
         25    2    1    2    0    0  0.94907485755E+02 -0.78268275462E+02  0.63982640112E+02  0.18674864580E+03  0.12509166510E+03 0.  0.
         23    2    1    2    0    0 -0.94907485755E+02  0.78268275462E+02 -0.14182065647E+03  0.21149564928E+03  0.97385611194E+02 0.  0.
          5    1    3    3  502    0 -0.88275158285E+01  0.13304398432E+02 -0.19142211594E+02  0.25275061188E+02  0.41800000000E+01 0.  1.
         -5    1    3    3    0  502  0.10373500158E+03 -0.91572673894E+02  0.83124851706E+02  0.16147358462E+03  0.41800000000E+01 0.  1.
        -11    1    4    4    0    0 -0.24889594616E+02  0.28839517948E+02 -0.11583120480E+03  0.12193472730E+03  0.00000000000E+00 0. -1.
         11    1    4    4    0    0 -0.70017891139E+02  0.49428757513E+02 -0.25989451671E+02  0.89560921986E+02  0.00000000000E+00 0.  1.
</event>
<event>
 8    1  0.7232317E-009  0.1830809E+03  0.7561462E-02  0.1164854E+00
          1   -1    0    0  501    0  0.00000000000E+00  0.00000000000E+00  0.69841111417E+03  0.69841111417E+03  0.00000000000E+00 0. -1.
         -1   -1    0    0    0  501 -0.00000000000E+00 -0.00000000000E+00 -0.49976413576E+02  0.49976413576E+02  0.00000000000E+00 0.  1.
         25    2    1    2    0    0 -0.15100249556E+03  0.94837323745E+01  0.30581756339E+03  0.36340458305E+03  0.12508722580E+03 0.  0.
         23    2    1    2    0    0  0.15100249556E+03 -0.94837323745E+01  0.34261713721E+03  0.38498294470E+03  0.89071152198E+02 0.  0.
          5    1    3    3  502    0  0.46402282819E+01 -0.29443925773E+02  0.86860895490E+02  0.91928037338E+02  0.41800000000E+01 0. -1.
         -5    1    3    3    0  502 -0.15564272385E+03  0.38927658147E+02  0.21895666790E+03  0.27147654571E+03  0.41800000000E+01 0. -1.
        -11    1    4    4    0    0  0.28214266529E+02  0.35015821438E+02  0.87954835130E+02  0.98783630271E+02  0.00000000000E+00 0.  1.
         11    1    4    4    0    0  0.12278822904E+03 -0.44499553813E+02  0.25466230208E+03  0.28619931443E+03  0.00000000000E+00 0. -1.
</event>
<event>
 8    1  0.7232317E-009  0.1294160E+03  0.7561462E-02  0.1228325E+00
          1   -1    0    0  501    0  0.00000000000E+00  0.00000000000E+00  0.12312377423E+04  0.12312377423E+04  0.00000000000E+00 0. -1.
         -1   -1    0    0    0  501 -0.00000000000E+00 -0.00000000000E+00 -0.16993947306E+02  0.16993947306E+02  0.00000000000E+00 0.  1.
         25    2    1    2    0    0  0.39105142919E+02  0.86867235026E+02  0.64242809420E+03  0.66139046280E+03  0.12509340250E+03 0.  0.
         23    2    1    2    0    0 -0.39105142919E+02 -0.86867235026E+02  0.57181570077E+03  0.58684122678E+03  0.91292393293E+02 0.  0.
          5    1    3    3  502    0  0.15381651371E+00  0.88294082307E+02  0.21920900897E+03  0.23635974836E+03  0.41800000000E+01 0. -1.
         -5    1    3    3    0  502  0.38951326406E+02 -0.14268472815E+01  0.42321908523E+03  0.42503071444E+03  0.41800000000E+01 0. -1.
        -11    1    4    4    0    0 -0.25960894332E+02 -0.10538150988E+03  0.49392519680E+03  0.50570874097E+03  0.00000000000E+00 0.  1.
         11    1    4    4    0    0 -0.13144248588E+02  0.18514274856E+02  0.77890503970E+02  0.81132485806E+02  0.00000000000E+00 0. -1.
</event>
<event>
 8    1  0.7232317E-009  0.1076730E+03  0.7561462E-02  0.1264941E+00
         -2   -1    0    0    0  501 -0.00000000000E+00  0.00000000000E+00  0.91664383015E+02  0.91664383015E+02  0.00000000000E+00 0.  1.
          2   -1    0    0  501    0  0.00000000000E+00 -0.00000000000E+00 -0.21252716028E+03  0.21252716028E+03  0.00000000000E+00 0. -1.
         25    2    1    2    0    0 -0.54663601026E+02 -0.57973023498E+02 -0.37141745474E+02  0.15288279136E+03  0.12507860691E+03 0.  0.
         23    2    1    2    0    0  0.54663601026E+02  0.57973023498E+02 -0.83721031793E+02  0.15130875194E+03  0.97653195128E+02 0.  0.
          5    1    3    3  502    0 -0.35106099369E+02  0.36647664867E+01  0.39088050771E+02  0.52831967968E+02  0.41800000000E+01 0. -1.
         -5    1    3    3    0  502 -0.19557501657E+02 -0.61637789985E+02 -0.76229796245E+02  0.10005082339E+03  0.41800000000E+01 0. -1.
        -11    1    4    4    0    0  0.25719095568E+02 -0.19514431367E+02  0.17941236752E+01  0.32334251007E+02  0.00000000000E+00 0.  1.
         11    1    4    4    0    0  0.28944505458E+02  0.77487454865E+02 -0.85515155469E+02  0.11897450093E+03  0.00000000000E+00 0. -1.
</event>
<event>
 8    1  0.7232317E-009  0.1690708E+03  0.7561462E-02  0.1178820E+00
          2   -1    0    0  501    0  0.00000000000E+00  0.00000000000E+00  0.37596884599E+03  0.37596884599E+03  0.00000000000E+00 0.  1.
         -2   -1    0    0    0  501 -0.00000000000E+00 -0.00000000000E+00 -0.93977858347E+02  0.93977858347E+02  0.00000000000E+00 0. -1.
         25    2    1    2    0    0  0.11525390048E+03  0.70432902724E+02  0.23841441792E+03  0.30121883527E+03  0.12508835553E+03 0.  0.
         23    2    1    2    0    0 -0.11525390048E+03 -0.70432902724E+02  0.43576569729E+02  0.16872786907E+03  0.91246484911E+02 0.  0.
          5    1    3    3  502    0  0.81615568765E+02  0.10534960953E+03  0.19355352982E+03  0.23503208845E+03  0.41800000000E+01 0. -1.
         -5    1    3    3    0  502  0.33638331718E+02 -0.34916706803E+02  0.44860888095E+02  0.66186746826E+02  0.41800000000E+01 0. -1.
        -11    1    4    4    0    0 -0.34494934805E+02 -0.66948481059E+02  0.45278749919E+02  0.87875849001E+02  0.00000000000E+00 0. -1.
         11    1    4    4    0    0 -0.80758965678E+02 -0.34844216652E+01 -0.17021801908E+01  0.80852020069E+02  0.00000000000E+00 0.  1.
</event>
<event>
 8    1  0.7232317E-009  0.1113745E+03  0.7561462E-02  0.1258045E+00
          1   -1    0    0  501    0  0.00000000000E+00  0.00000000000E+00  0.24875302214E+03  0.24875302214E+03  0.00000000000E+00 0. -1.
         -1   -1    0    0    0  501 -0.00000000000E+00 -0.00000000000E+00 -0.56395229999E+02  0.56395229999E+02  0.00000000000E+00 0.  1.
         25    2    1    2    0    0 -0.11142054715E+02 -0.46072967746E+02  0.12405721356E+03  0.18244652338E+03  0.12509867273E+03 0.  0.
         23    2    1    2    0    0  0.11142054715E+02  0.46072967746E+02  0.68300578578E+02  0.12270172875E+03  0.90243456631E+02 0.  0.
          5    1    3    3  502    0  0.45615985610E+02 -0.49141928020E+02  0.10025270068E+03  0.12068066799E+03  0.41800000000E+01 0.  1.
         -5    1    3    3    0  502 -0.56758040325E+02  0.30689602738E+01  0.23804512876E+02  0.61765855389E+02  0.41800000000E+01 0.  1.
        -11    1    4    4    0    0 -0.36798507331E+02  0.87668405563E+01  0.41949609765E+02  0.56486789559E+02  0.00000000000E+00 0.  1.
         11    1    4    4    0    0  0.47940562046E+02  0.37306127189E+02  0.26350968813E+02  0.66214939195E+02  0.00000000000E+00 0. -1.
</event>
<event>
 8    1  0.7232317E-009  0.1558239E+03  0.7561462E-02  0.1193494E+00
          1   -1    0    0  501    0  0.00000000000E+00  0.00000000000E+00  0.35207129103E+03  0.35207129103E+03  0.00000000000E+00 0. -1.
         -1   -1    0    0    0  501 -0.00000000000E+00 -0.00000000000E+00 -0.18223208043E+03  0.18223208043E+03  0.00000000000E+00 0.  1.
         25    2    1    2    0    0 -0.33120259078E+02 -0.13747647794E+03  0.27017784768E+03  0.32960724047E+03  0.12509248596E+03 0.  0.
         23    2    1    2    0    0  0.33120259078E+02  0.13747647794E+03 -0.10033863708E+03  0.20469613099E+03  0.10879306230E+03 0.  0.
          5    1    3    3  502    0 -0.66462903443E+02 -0.92356329936E+02  0.24029122796E+03  0.26590290681E+03  0.41800000000E+01 0. -1.
         -5    1    3    3    0  502  0.33342644365E+02 -0.45120148003E+02  0.29886619722E+02  0.63704333663E+02  0.41800000000E+01 0. -1.
        -11    1    4    4    0    0  0.13883945468E+02  0.69950880221E+02  0.11904095766E+02  0.72302123630E+02  0.00000000000E+00 0. -1.
         11    1    4    4    0    0  0.19236313610E+02  0.67525597718E+02 -0.11224273285E+03  0.13239400736E+03  0.00000000000E+00 0.  1.
</event>
<event>
 8    1  0.7232317E-009  0.7779311E+02  0.7561462E-02  0.1335434E+00
         -2   -1    0    0    0  501 -0.00000000000E+00  0.00000000000E+00  0.29151636846E+03  0.29151636846E+03  0.00000000000E+00 0.  1.
          2   -1    0    0  501    0  0.00000000000E+00 -0.00000000000E+00 -0.53399014544E+02  0.53399014544E+02  0.00000000000E+00 0. -1.
         25    2    1    2    0    0  0.12830032303E+02 -0.50554654524E+02  0.18099245714E+03  0.22611029233E+03  0.12508881618E+03 0.  0.
         23    2    1    2    0    0 -0.12830032303E+02  0.50554654524E+02  0.57124896776E+02  0.11880509068E+03  0.90172129374E+02 0.  0.
          5    1    3    3  502    0 -0.37577242175E+02 -0.24700528459E+02  0.10449138418E+02  0.46355389431E+02  0.41800000000E+01 0. -1.
         -5    1    3    3    0  502  0.50407274478E+02 -0.25854126065E+02  0.17054331872E+03  0.17975490290E+03  0.41800000000E+01 0. -1.
        -11    1    4    4    0    0 -0.11574642867E+02  0.20530040675E+02 -0.23182847497E+02  0.33059028202E+02  0.00000000000E+00 0. -1.
         11    1    4    4    0    0 -0.12553894365E+01  0.30024613849E+02  0.80307744274E+02  0.85746062474E+02  0.00000000000E+00 0.  1.
</event>
<event>
 8    1  0.7232317E-009  0.1084277E+03  0.7561462E-02  0.1263509E+00
          2   -1    0    0  501    0  0.00000000000E+00  0.00000000000E+00  0.19495036893E+03  0.19495036893E+03  0.00000000000E+00 0.  1.
         -2   -1    0    0    0  501 -0.00000000000E+00 -0.00000000000E+00 -0.80394448694E+02  0.80394448694E+02  0.00000000000E+00 0. -1.
         25    2    1    2    0    0  0.60466968881E+02 -0.94261639557E+01  0.54794772098E+02  0.14964958650E+03  0.12508966704E+03 0.  0.
         23    2    1    2    0    0 -0.60466968881E+02  0.94261639557E+01  0.59761148138E+02  0.12569523112E+03  0.92102059733E+02 0.  0.
          5    1    3    3  502    0  0.44157133001E+02 -0.48706725554E+02 -0.15229772356E+02  0.67613725493E+02  0.41800000000E+01 0. -1.
         -5    1    3    3    0  502  0.16309835881E+02  0.39280561598E+02  0.70024544454E+02  0.82035861011E+02  0.41800000000E+01 0. -1.
        -11    1    4    4    0    0  0.20416294158E+02 -0.13128665845E+02  0.24910532601E+02  0.34781051860E+02  0.00000000000E+00 0.  1.
         11    1    4    4    0    0 -0.80883263040E+02  0.22554829800E+02  0.34850615537E+02  0.90914179260E+02  0.00000000000E+00 0. -1.
</event>
<event>
 8    1  0.7232317E-009  0.2427276E+03  0.7561462E-02  0.1117989E+00
         -2   -1    0    0    0  501 -0.00000000000E+00  0.00000000000E+00  0.99829098556E+02  0.99829098556E+02  0.00000000000E+00 0.  1.
          2   -1    0    0  501    0  0.00000000000E+00 -0.00000000000E+00 -0.69978974649E+03  0.69978974649E+03  0.00000000000E+00 0. -1.
         25    2    1    2    0    0  0.15217894774E+03 -0.18192051459E+03 -0.36920641667E+03  0.45630450702E+03  0.12508764629E+03 0.  0.
         23    2    1    2    0    0 -0.15217894774E+03  0.18192051459E+03 -0.23075423126E+03  0.34331433802E+03  0.91453341575E+02 0.  0.
          5    1    3    3  502    0  0.14941416206E+03 -0.13632028458E+03 -0.21410518174E+03  0.29456122125E+03  0.41800000000E+01 0. -1.
         -5    1    3    3    0  502  0.27647856744E+01 -0.45600230006E+02 -0.15510123493E+03  0.16174328577E+03  0.41800000000E+01 0. -1.
        -11    1    4    4    0    0 -0.36888880306E+02  0.48844155133E+02 -0.11779690182E+02  0.62332191375E+02  0.00000000000E+00 0.  1.
         11    1    4    4    0    0 -0.11529006743E+03  0.13307635945E+03 -0.21897454108E+03  0.28098214665E+03  0.00000000000E+00 0. -1.
</event>
<event>
 7    1  0.7232317E-009  0.9952960E+02  0.7561462E-02  0.1281288E+00
          3   -1    0    0  501    0  0.00000000000E+00  0.00000000000E+00  0.42638536761E+03  0.42638536761E+03  0.00000000000E+00 0. -1.
         -3   -1    0    0    0  501 -0.00000000000E+00 -0.00000000000E+00 -0.41567990050E+02  0.41567990050E+02  0.00000000000E+00 0.  1.
         23    2    1    2    0    0  0.70805216850E+01 -0.46446791223E+02  0.84273452607E+02  0.13908073982E+03  0.10016985161E+03 0.  0.
          5    1    1    2  502    0 -0.65328910564E+02  0.24080677714E+02  0.18068907998E+03  0.19368469640E+03  0.41800000000E+01 0. -1.
         -5    1    1    2    0  502  0.58248388879E+02  0.22366113509E+02  0.11985484497E+03  0.13518792144E+03  0.41800000000E+01 0. -1.
        -11    1    3    3    0    0  0.21990696754E+02 -0.46960450973E+02 -0.16412420227E+01  0.51880327434E+02  0.00000000000E+00 0.  1.
         11    1    3    3    0    0 -0.14910175069E+02  0.51365975038E+00  0.85914694630E+02  0.87200412386E+02  0.00000000000E+00 0. -1.
</event>
<event>
 8    1  0.7232317E-009  0.1155709E+03  0.7561462E-02  0.1250588E+00
         -2   -1    0    0    0  501 -0.00000000000E+00  0.00000000000E+00  0.76661950332E+02  0.76661950332E+02  0.00000000000E+00 0.  1.
          2   -1    0    0  501    0  0.00000000000E+00 -0.00000000000E+00 -0.24145865182E+03  0.24145865182E+03  0.00000000000E+00 0. -1.
         25    2    1    2    0    0  0.79304404340E+02  0.19973933617E+02 -0.85262931952E+02  0.17206138205E+03  0.12508878869E+03 0.  0.
         23    2    1    2    0    0 -0.79304404340E+02 -0.19973933617E+02 -0.79533769533E+02  0.14605922010E+03  0.91211450528E+02 0.  0.
          5    1    3    3  502    0  0.10372857086E+03  0.45461263465E+02 -0.71156828819E+02  0.13381744870E+03  0.41800000000E+01 0. -1.
         -5    1    3    3    0  502 -0.24424166518E+02 -0.25487329847E+02 -0.14106103134E+02  0.38243933355E+02  0.41800000000E+01 0. -1.
        -11    1    4    4    0    0 -0.39616624860E+02 -0.14564857295E+02 -0.94342783005E+02  0.10335459708E+03  0.00000000000E+00 0. -1.
         11    1    4    4    0    0 -0.39687779480E+02 -0.54090763220E+01  0.14809013471E+02  0.42704623014E+02  0.00000000000E+00 0.  1.
</event>
<event>
 8    1  0.7232317E-009  0.8538451E+02  0.7561462E-02  0.1314430E+00
          2   -1    0    0  501    0  0.00000000000E+00  0.00000000000E+00  0.26483364098E+03  0.26483364098E+03  0.00000000000E+00 0. -1.
         -2   -1    0    0    0  501 -0.00000000000E+00 -0.00000000000E+00 -0.52617884182E+02  0.52617884182E+02  0.00000000000E+00 0.  1.
         25    2    1    2    0    0 -0.32001629833E+02 -0.31823573419E+01  0.10034340078E+03  0.16355583545E+03  0.12508989376E+03 0.  0.
         23    2    1    2    0    0  0.32001629833E+02  0.31823573419E+01  0.11187235602E+03  0.15389568970E+03  0.10066890065E+03 0.  0.
          5    1    3    3  502    0  0.13647062440E+02 -0.12544600908E+02 -0.24052291823E+02  0.30652805208E+02  0.41800000000E+01 0. -1.
         -5    1    3    3    0  502 -0.45648692273E+02  0.93622435662E+01  0.12439569260E+03  0.13290303025E+03  0.41800000000E+01 0. -1.
        -11    1    4    4    0    0 -0.36464618642E+02  0.81494071343E+00  0.47519510814E+02  0.59903559569E+02  0.00000000000E+00 0. -1.
         11    1    4    4    0    0  0.68466248475E+02  0.23674166285E+01  0.64352845203E+02  0.93992130136E+02  0.00000000000E+00 0.  1.
</event>
<event>
 8    1  0.7232317E-009  0.1219066E+03  0.7561462E-02  0.1239985E+00
         -2   -1    0    0    0  501 -0.00000000000E+00  0.00000000000E+00  0.49050625211E+02  0.49050625211E+02  0.00000000000E+00 0.  1.
          2   -1    0    0  501    0  0.00000000000E+00 -0.00000000000E+00 -0.49371924923E+03  0.49371924923E+03  0.00000000000E+00 0. -1.
         25    2    1    2    0    0  0.80045910037E+02 -0.61886938431E+02 -0.15812606000E+03  0.22558195403E+03  0.12508407680E+03 0.  0.
         23    2    1    2    0    0 -0.80045910037E+02  0.61886938431E+02 -0.28654256402E+03  0.31718792041E+03  0.90907617933E+02 0.  0.
          5    1    3    3  502    0 -0.16985339995E+02 -0.39075657325E+02 -0.10313017405E+03  0.11166339584E+03  0.41800000000E+01 0. -1.
         -5    1    3    3    0  502  0.97031250033E+02 -0.22811281105E+02 -0.54995885944E+02  0.11391855819E+03  0.41800000000E+01 0. -1.
        -11    1    4    4    0    0 -0.42949845860E+02  0.31061202387E+02 -0.25286776599E+03  0.25836329970E+03  0.00000000000E+00 0. -1.
         11    1    4    4    0    0 -0.37096064178E+02  0.30825736044E+02 -0.33674798032E+02  0.58824620718E+02  0.00000000000E+00 0.  1.
</event>
<event>
 8    1  0.7232317E-009  0.2067404E+03  0.7561462E-02  0.1144174E+00
          1   -1    0    0  501    0  0.00000000000E+00  0.00000000000E+00  0.10299835173E+04  0.10299835173E+04  0.00000000000E+00 0. -1.
         -1   -1    0    0    0  501 -0.00000000000E+00 -0.00000000000E+00 -0.54160138148E+02  0.54160138148E+02  0.00000000000E+00 0.  1.
         25    2    1    2    0    0 -0.10844236318E+03 -0.17257238963E+03  0.39096849792E+03  0.45830673894E+03  0.12509086616E+03 0.  0.
         23    2    1    2    0    0  0.10844236318E+03  0.17257238963E+03  0.58485488124E+03  0.62583691651E+03  0.89864554572E+02 0.  0.
          5    1    3    3  502    0 -0.84559304517E+02 -0.10440220068E+03  0.35053250229E+03  0.37542056823E+03  0.41800000000E+01 0.  1.
         -5    1    3    3    0  502 -0.23883058666E+02 -0.68170188947E+02  0.40435995625E+02  0.82886170707E+02  0.41800000000E+01 0.  1.
        -11    1    4    4    0    0  0.29770804445E+02  0.79224903140E+02  0.13188647839E+03  0.15670650674E+03  0.00000000000E+00 0.  1.
         11    1    4    4    0    0  0.78671558738E+02  0.93347486487E+02  0.45296840285E+03  0.46913040977E+03  0.00000000000E+00 0. -1.
</event>
<event>
 8    1  0.7232317E-009  0.8354507E+02  0.7561462E-02  0.1319282E+00
         -2   -1    0    0    0  501 -0.00000000000E+00  0.00000000000E+00  0.61402298214E+02  0.61402298214E+02  0.00000000000E+00 0.  1.
          2   -1    0    0  501    0  0.00000000000E+00 -0.00000000000E+00 -0.21736862290E+03  0.21736862290E+03  0.00000000000E+00 0. -1.
         25    2    1    2    0    0 -0.15084255397E+02  0.11228562971E+02 -0.13178656710E+03  0.18267109592E+03  0.12508962639E+03 0.  0.
         23    2    1    2    0    0  0.15084255397E+02 -0.11228562971E+02 -0.24179757581E+02  0.96099825189E+02  0.91087322595E+02 0.  0.
          5    1    3    3  502    0  0.28070908269E+02  0.26651210282E+02  0.41532864833E+01  0.39153353485E+02  0.41800000000E+01 0.  1.
         -5    1    3    3    0  502 -0.43155163666E+02 -0.15422647310E+02 -0.13593985359E+03  0.14351774244E+03  0.41800000000E+01 0.  1.
        -11    1    4    4    0    0  0.50634286526E+01 -0.45833627365E+02 -0.35655427939E+02  0.58289529495E+02  0.00000000000E+00 0. -1.
         11    1    4    4    0    0  0.10020826745E+02  0.34605064394E+02  0.11475670358E+02  0.37810295695E+02  0.00000000000E+00 0.  1.
</event>
<event>
 8    1  0.7232317E-009  0.9858641E+02  0.7561462E-02  0.1283297E+00
         -2   -1    0    0    0  501 -0.00000000000E+00  0.00000000000E+00  0.12367785485E+03  0.12367785485E+03  0.00000000000E+00 0. -1.
          2   -1    0    0  501    0  0.00000000000E+00 -0.00000000000E+00 -0.14169314446E+03  0.14169314446E+03  0.00000000000E+00 0.  1.
         25    2    1    2    0    0 -0.35794896373E+02  0.61950581695E+02  0.17748544562E+02  0.14519649574E+03  0.12509141602E+03 0.  0.
         23    2    1    2    0    0  0.35794896373E+02 -0.61950581695E+02 -0.35763834165E+02  0.12017450357E+03  0.89686734219E+02 0.  0.
          5    1    3    3  502    0  0.27348623694E+02  0.68750048991E+01  0.48157779672E+02  0.55962997179E+02  0.41800000000E+01 0.  1.
         -5    1    3    3    0  502 -0.63143520067E+02  0.55075576796E+02 -0.30409235110E+02  0.89233498563E+02  0.41800000000E+01 0.  1.
        -11    1    4    4    0    0 -0.84937645436E+01 -0.27149597244E+02  0.24603263961E+02  0.37610706776E+02  0.00000000000E+00 0. -1.
         11    1    4    4    0    0  0.44288660916E+02 -0.34800984451E+02 -0.60367098126E+02  0.82563796792E+02  0.00000000000E+00 0.  1.
</event>
<event>
 8    1  0.7232317E-009  0.1408302E+03  0.7561462E-02  0.1212216E+00
         -2   -1    0    0    0  501 -0.00000000000E+00  0.00000000000E+00  0.13979582064E+03  0.13979582064E+03  0.00000000000E+00 0.  1.
          2   -1    0    0  501    0  0.00000000000E+00 -0.00000000000E+00 -0.17959639890E+03  0.17959639890E+03  0.00000000000E+00 0. -1.
         25    2    1    2    0    0 -0.31225365062E+02 -0.10779261710E+03 -0.30382815807E+02  0.17077843954E+03  0.12509151925E+03 0.  0.
         23    2    1    2    0    0  0.31225365062E+02  0.10779261710E+03 -0.94177624499E+01  0.14861378001E+03  0.96969529409E+02 0.  0.
          5    1    3    3  502    0  0.23157602314E+02 -0.19600257231E+02  0.36299293842E+02  0.47492691668E+02  0.41800000000E+01 0. -1.
         -5    1    3    3    0  502 -0.54382967375E+02 -0.88192359872E+02 -0.66682109649E+02  0.12328574787E+03  0.41800000000E+01 0. -1.
        -11    1    4    4    0    0 -0.13338447486E+02 -0.12977029641E+02  0.44657794437E+01  0.19137937864E+02  0.00000000000E+00 0.  1.
         11    1    4    4    0    0  0.44563812548E+02  0.12076964674E+03 -0.13883541894E+02  0.12947584214E+03  0.00000000000E+00 0. -1.
</event>
<event>
 8    1  0.7232317E-009  0.1365497E+03  0.7561462E-02  0.1218048E+00
         -1   -1    0    0    0  501 -0.00000000000E+00  0.00000000000E+00  0.28209567250E+03  0.28209567250E+03  0.00000000000E+00 0.  1.
          1   -1    0    0  501    0  0.00000000000E+00 -0.00000000000E+00 -0.11034238270E+03  0.11034238270E+03  0.00000000000E+00 0. -1.
         25    2    1    2    0    0  0.90390508629E+02 -0.93470677781E+02  0.14330683887E+03  0.23041465025E+03  0.12508736678E+03 0.  0.
         23    2    1    2    0    0 -0.90390508629E+02  0.93470677781E+02  0.28446450933E+02  0.16202340495E+03  0.92385992038E+02 0.  0.
          5    1    3    3  502    0  0.93897036030E+02 -0.70352176012E+02  0.16208316058E+03  0.20013621708E+03  0.41800000000E+01 0.  1.
         -5    1    3    3    0  502 -0.35065274001E+01 -0.23118501769E+02 -0.18776321705E+02  0.30278433170E+02  0.41800000000E+01 0.  1.
        -11    1    4    4    0    0 -0.52002290203E+02  0.37671347317E+02 -0.31547200622E+02  0.71544353111E+02  0.00000000000E+00 0.  1.
         11    1    4    4    0    0 -0.38388218427E+02  0.55799330465E+02  0.59993651555E+02  0.90479051836E+02  0.00000000000E+00 0. -1.
</event>
<event>
 8    1  0.7232317E-009  0.1510425E+03  0.7561462E-02  0.1199198E+00
         -2   -1    0    0    0  501 -0.00000000000E+00  0.00000000000E+00  0.40818487715E+02  0.40818487715E+02  0.00000000000E+00 0.  1.
          2   -1    0    0  501    0  0.00000000000E+00 -0.00000000000E+00 -0.12061019405E+04  0.12061019405E+04  0.00000000000E+00 0. -1.
         25    2    1    2    0    0 -0.21757826412E+02 -0.14023405368E+03 -0.97200898638E+03  0.99024580130E+03  0.12508510929E+03 0.  0.
         23    2    1    2    0    0  0.21757826412E+02  0.14023405368E+03 -0.19327446639E+03  0.25667462690E+03  0.91585216689E+02 0.  0.
          5    1    3    3  502    0 -0.32707974424E+02 -0.13426204250E+03 -0.96589629687E+03  0.97574035294E+03  0.41800000000E+01 0. -1.
         -5    1    3    3    0  502  0.10950148012E+02 -0.59720111787E+01 -0.61126895050E+01  0.14505448355E+02  0.41800000000E+01 0. -1.
        -11    1    4    4    0    0 -0.55734477746E+01  0.10913136203E+03 -0.78185063217E+02  0.13436376598E+03  0.00000000000E+00 0.  1.
         11    1    4    4    0    0  0.27331274187E+02  0.31102691649E+02 -0.11508940318E+03  0.12231086093E+03  0.00000000000E+00 0. -1.
</event>
<event>
 8    1  0.7232317E-009  0.1856686E+03  0.7561462E-02  0.1162427E+00
          2   -1    0    0  501    0  0.00000000000E+00  0.00000000000E+00  0.10094932478E+03  0.10094932478E+03  0.00000000000E+00 0.  1.
         -2   -1    0    0    0  501 -0.00000000000E+00 -0.00000000000E+00 -0.48328178409E+03  0.48328178409E+03  0.00000000000E+00 0. -1.
         25    2    1    2    0    0 -0.11168303612E+03 -0.14073885645E+03 -0.10793642782E+03  0.24408785052E+03  0.12509228612E+03 0.  0.
         23    2    1    2    0    0  0.11168303612E+03  0.14073885645E+03 -0.27439603149E+03  0.34014325835E+03  0.90131724892E+02 0.  0.
          5    1    3    3  502    0 -0.10434208966E+03 -0.83423159039E+02 -0.14896368264E+02  0.13448445756E+03  0.41800000000E+01 0. -1.
         -5    1    3    3    0  502 -0.73409464602E+01 -0.57315697413E+02 -0.93040059556E+02  0.10960339295E+03  0.41800000000E+01 0. -1.
        -11    1    4    4    0    0  0.89571529380E+02  0.10939667518E+03 -0.26545086107E+03  0.30075712969E+03  0.00000000000E+00 0. -1.
         11    1    4    4    0    0  0.22111506740E+02  0.31342181268E+02 -0.89451704183E+01  0.39386128659E+02  0.00000000000E+00 0.  1.
</event>
<event>
 8    1  0.7232317E-009  0.3710488E+03  0.7561462E-02  0.1054293E+00
         -2   -1    0    0    0  501 -0.00000000000E+00  0.00000000000E+00  0.22611838013E+03  0.22611838013E+03  0.00000000000E+00 0.  1.
          2   -1    0    0  501    0  0.00000000000E+00 -0.00000000000E+00 -0.65155430933E+03  0.65155430933E+03  0.00000000000E+00 0. -1.
         25    2    1    2    0    0  0.29454850153E+03  0.22097606995E+03 -0.20451373329E+03  0.43938888242E+03  0.12508988629E+03 0.  0.
         23    2    1    2    0    0 -0.29454850153E+03 -0.22097606995E+03 -0.22092219591E+03  0.43828380703E+03  0.87731611295E+02 0.  0.
          5    1    3    3  502    0  0.11015294124E+03  0.72112749573E+02 -0.14318840510E+03  0.19456184330E+03  0.41800000000E+01 0. -1.
         -5    1    3    3    0  502  0.18439556029E+03  0.14886332037E+03 -0.61325328195E+02  0.24482703912E+03  0.41800000000E+01 0. -1.
        -11    1    4    4    0    0 -0.83489314720E+02 -0.30003609580E+02 -0.84988107126E+02  0.12285625997E+03  0.00000000000E+00 0. -1.
         11    1    4    4    0    0 -0.21105918681E+03 -0.19097246037E+03 -0.13593408878E+03  0.31542754706E+03  0.00000000000E+00 0.  1.
</event>
<event>
 8    1  0.7232317E-009  0.1011990E+03  0.7561462E-02  0.1277795E+00
          1   -1    0    0  501    0  0.00000000000E+00  0.00000000000E+00  0.13329937438E+03  0.13329937438E+03  0.00000000000E+00 0. -1.
         -1   -1    0    0    0  501 -0.00000000000E+00 -0.00000000000E+00 -0.10635449432E+03  0.10635449432E+03  0.00000000000E+00 0.  1.
         25    2    1    2    0    0  0.50851024654E+02  0.11080895672E+02 -0.20406962799E+00  0.13548979014E+03  0.12509527821E+03 0.  0.
         23    2    1    2    0    0 -0.50851024654E+02 -0.11080895672E+02  0.27148949685E+02  0.10416407856E+03  0.86049269821E+02 0.  0.
          5    1    3    3  502    0 -0.35462367623E+02  0.25731749846E+02  0.15068648657E+02  0.46521382610E+02  0.41800000000E+01 0.  1.
         -5    1    3    3    0  502  0.86313392277E+02 -0.14650854175E+02 -0.15272718285E+02  0.88968407529E+02  0.41800000000E+01 0.  1.
        -11    1    4    4    0    0 -0.44181287292E+02  0.12754864019E+02 -0.20594176771E+02  0.50386434878E+02  0.00000000000E+00 0.  1.
         11    1    4    4    0    0 -0.66697373623E+01 -0.23835759691E+02  0.47743126456E+02  0.53777643685E+02  0.00000000000E+00 0. -1.
</event>
<event>
 8    1  0.7232317E-009  0.1484048E+03  0.7561462E-02  0.1202447E+00
          2   -1    0    0  501    0  0.00000000000E+00  0.00000000000E+00  0.12769914348E+04  0.12769914348E+04  0.00000000000E+00 0. -1.
         -2   -1    0    0    0  501 -0.00000000000E+00 -0.00000000000E+00 -0.20823913190E+02  0.20823913190E+02  0.00000000000E+00 0.  1.
         25    2    1    2    0    0 -0.66922626781E+02  0.84482734378E+02  0.89570142055E+03  0.91079347698E+03  0.12509097712E+03 0.  0.
         23    2    1    2    0    0  0.66922626781E+02 -0.84482734378E+02  0.36046610108E+03  0.38702187103E+03  0.90742207614E+02 0.  0.
          5    1    3    3  502    0 -0.75826689679E+01  0.10255139322E+03  0.56682322919E+03  0.57609055770E+03  0.41800000000E+01 0. -1.
         -5    1    3    3    0  502 -0.59339957814E+02 -0.18068658841E+02  0.32887819135E+03  0.33470291928E+03  0.41800000000E+01 0. -1.
        -11    1    4    4    0    0  0.80933896605E+02 -0.85429454168E+02  0.35069766431E+03  0.36991531330E+03  0.00000000000E+00 0. -1.
         11    1    4    4    0    0 -0.14011269824E+02  0.94671979059E+00  0.97684367679E+01  0.17106557729E+02  0.00000000000E+00 0.  1.
</event>
<event>
 8    1  0.7232317E-009  0.1333446E+03  0.7561462E-02  0.1222576E+00
          3   -1    0    0  501    0  0.00000000000E+00  0.00000000000E+00  0.13469947175E+03  0.13469947175E+03  0.00000000000E+00 0. -1.
         -3   -1    0    0    0  501 -0.00000000000E+00 -0.00000000000E+00 -0.15022487576E+03  0.15022487576E+03  0.00000000000E+00 0.  1.
         25    2    1    2    0    0 -0.29487771651E+02 -0.84568190719E+02 -0.29353469563E+02  0.15662034698E+03  0.12508796646E+03 0.  0.
         23    2    1    2    0    0  0.29487771651E+02  0.84568190719E+02  0.13828065549E+02  0.12830400054E+03  0.90826172433E+02 0.  0.
          5    1    3    3  502    0 -0.44976257430E+02  0.15291224689E+02 -0.28343766511E+02  0.55475461106E+02  0.41800000000E+01 0. -1.
         -5    1    3    3    0  502  0.15488485778E+02 -0.99859415408E+02 -0.10097030521E+01  0.10114488587E+03  0.41800000000E+01 0. -1.
        -11    1    4    4    0    0  0.42144448967E+02  0.11472768691E+02 -0.18434513577E+02  0.47408968466E+02  0.00000000000E+00 0.  1.
         11    1    4    4    0    0 -0.12656677315E+02  0.73095422029E+02  0.32262579126E+02  0.80895032073E+02  0.00000000000E+00 0. -1.
</event>
<event>
 8    1  0.7232317E-009  0.9281889E+02  0.7561462E-02  0.1296165E+00
         -3   -1    0    0    0  501 -0.00000000000E+00  0.00000000000E+00  0.42683083731E+03  0.42683083731E+03  0.00000000000E+00 0.  1.
          3   -1    0    0  501    0  0.00000000000E+00 -0.00000000000E+00 -0.33151846730E+02  0.33151846730E+02  0.00000000000E+00 0. -1.
         25    2    1    2    0    0  0.15083400444E+02 -0.43398400002E+02  0.18624596336E+03  0.22900670406E+03  0.12508229909E+03 0.  0.
         23    2    1    2    0    0 -0.15083400444E+02  0.43398400002E+02  0.20743302723E+03  0.23097597998E+03  0.90611878107E+02 0.  0.
          5    1    3    3  502    0  0.39101659548E+02 -0.15098607346E+01  0.17484271591E+03  0.17921681608E+03  0.41800000000E+01 0.  1.
         -5    1    3    3    0  502 -0.24018259105E+02 -0.41888539268E+02  0.11403247445E+02  0.49789887976E+02  0.41800000000E+01 0.  1.
        -11    1    4    4    0    0  0.16691935576E+02 -0.20511204152E+02  0.87534371456E+02  0.91441765049E+02  0.00000000000E+00 0.  1.
         11    1    4    4    0    0 -0.31775336020E+02  0.63909604154E+02  0.11989865577E+03  0.13953421494E+03  0.00000000000E+00 0. -1.
</event>
<event>
 8    1  0.7232317E-009  0.9544342E+02  0.7561462E-02  0.1290181E+00
          2   -1    0    0  501    0  0.00000000000E+00  0.00000000000E+00  0.46034140676E+03  0.46034140676E+03  0.00000000000E+00 0. -1.
         -2   -1    0    0    0  501 -0.00000000000E+00 -0.00000000000E+00 -0.39919466502E+02  0.39919466502E+02  0.00000000000E+00 0.  1.
         25    2    1    2    0    0  0.58892901046E+02  0.52806044506E+02  0.27339803109E+03  0.31088698562E+03  0.12508949715E+03 0.  0.
         23    2    1    2    0    0 -0.58892901046E+02 -0.52806044506E+02  0.14702390917E+03  0.18937388764E+03  0.89384491503E+02 0.  0.
          5    1    3    3  502    0 -0.36852302736E+01  0.18494452504E+02  0.22199942238E+03  0.22283815121E+03  0.41800000000E+01 0. -1.
         -5    1    3    3    0  502  0.62578131320E+02  0.34311592002E+02  0.51398608708E+02  0.88048834418E+02  0.41800000000E+01 0. -1.
        -11    1    4    4    0    0 -0.48894061444E+02 -0.66861832251E+02  0.15048969715E+03  0.17177975086E+03  0.00000000000E+00 0. -1.
         11    1    4    4    0    0 -0.99988396024E+01  0.14055787744E+02 -0.34657879859E+01  0.17594136775E+02  0.00000000000E+00 0.  1.
</event>
<event>
 8    1  0.7232317E-009  0.1400044E+03  0.7561462E-02  0.1213323E+00
         -2   -1    0    0    0  501 -0.00000000000E+00  0.00000000000E+00  0.10720659110E+03  0.10720659110E+03  0.00000000000E+00 0.  1.
          2   -1    0    0  501    0  0.00000000000E+00 -0.00000000000E+00 -0.24200100743E+03  0.24200100743E+03  0.00000000000E+00 0. -1.
         25    2    1    2    0    0  0.68946336669E+02 -0.94234000506E+02 -0.97996022485E+02  0.19718451151E+03  0.12507944262E+03 0.  0.
         23    2    1    2    0    0 -0.68946336669E+02  0.94234000506E+02 -0.36798393842E+02  0.15202308702E+03  0.90129090780E+02 0.  0.
          5    1    3    3  502    0  0.37785838551E+02 -0.10281764178E+03 -0.11628846894E+03  0.15981150604E+03  0.41800000000E+01 0. -1.
         -5    1    3    3    0  502  0.31160498118E+02  0.85836412754E+01  0.18292446451E+02  0.37373005467E+02  0.41800000000E+01 0. -1.
        -11    1    4    4    0    0 -0.13834826376E+02  0.79576749930E+02  0.55958847988E+01  0.80964038171E+02  0.00000000000E+00 0.  1.
         11    1    4    4    0    0 -0.55111510293E+02  0.14657250576E+02 -0.42394278641E+02  0.71059048845E+02  0.00000000000E+00 0. -1.
</event>
<event>
 8    1  0.7232317E-009  0.1533042E+03  0.7561462E-02  0.1196471E+00
         -2   -1    0    0    0  501 -0.00000000000E+00  0.00000000000E+00  0.40464451434E+02  0.40464451434E+02  0.00000000000E+00 0.  1.
          2   -1    0    0  501    0  0.00000000000E+00 -0.00000000000E+00 -0.80472642770E+03  0.80472642770E+03  0.00000000000E+00 0. -1.
         25    2    1    2    0    0 -0.93470613892E+02  0.94917763848E+02 -0.52553387198E+03  0.55639853821E+03  0.12508934878E+03 0.  0.
         23    2    1    2    0    0  0.93470613892E+02 -0.94917763848E+02 -0.23872810429E+03  0.28879234092E+03  0.93079379245E+02 0.  0.
          5    1    3    3  502    0  0.89662854787E+01  0.19503662186E+00 -0.22297365246E+03  0.22319308772E+03  0.41800000000E+01 0.  1.
         -5    1    3    3    0  502 -0.10243689937E+03  0.94722727226E+02 -0.30256021951E+03  0.33320545049E+03  0.41800000000E+01 0.  1.
        -11    1    4    4    0    0  0.47039908286E+02 -0.99913262018E+02 -0.13073315704E+03  0.17113319739E+03  0.00000000000E+00 0.  1.
         11    1    4    4    0    0  0.46430705606E+02  0.49954981705E+01 -0.10799494725E+03  0.11765914353E+03  0.00000000000E+00 0. -1.
</event>
<event>
 8    1  0.7232317E-009  0.1497093E+03  0.7561462E-02  0.1200831E+00
         -1   -1    0    0    0  501 -0.00000000000E+00  0.00000000000E+00  0.80196344095E+02  0.80196344095E+02  0.00000000000E+00 0.  1.
          1   -1    0    0  501    0  0.00000000000E+00 -0.00000000000E+00 -0.59364769000E+03  0.59364769000E+03  0.00000000000E+00 0. -1.
         25    2    1    2    0    0  0.10405223640E+03 -0.43966712689E+02 -0.32441848182E+02  0.17163936553E+03  0.12509060140E+03 0.  0.
         23    2    1    2    0    0 -0.10405223640E+03  0.43966712689E+02 -0.48100949772E+03  0.50220466857E+03  0.89885774769E+02 0.  0.
          5    1    3    3  502    0  0.12714504991E+03 -0.22808087947E+02 -0.42801877772E+01  0.12931305039E+03  0.41800000000E+01 0.  1.
         -5    1    3    3    0  502 -0.23092813508E+02 -0.21158624743E+02 -0.28161660404E+02  0.42326315141E+02  0.41800000000E+01 0.  1.
        -11    1    4    4    0    0 -0.65093776614E+01  0.40451679479E+02 -0.85224241487E+02  0.94561523398E+02  0.00000000000E+00 0.  1.
         11    1    4    4    0    0 -0.97542858741E+02  0.35150332099E+01 -0.39578525623E+03  0.40764314517E+03  0.00000000000E+00 0. -1.
</event>
<event>
 8    1  0.7232317E-009  0.9300091E+02  0.7561462E-02  0.1295743E+00
          2   -1    0    0  501    0  0.00000000000E+00  0.00000000000E+00  0.70854008228E+02  0.70854008228E+02  0.00000000000E+00 0.  1.
         -2   -1    0    0    0  501 -0.00000000000E+00 -0.00000000000E+00 -0.25996857001E+03  0.25996857001E+03  0.00000000000E+00 0. -1.
         25    2    1    2    0    0  0.52425732411E+02  0.65089630537E+02 -0.88470514539E+02  0.17452752212E+03  0.12509079347E+03 0.  0.
         23    2    1    2    0    0 -0.52425732411E+02 -0.65089630537E+02 -0.10064404724E+03  0.15629505612E+03  0.85520774669E+02 0.  0.
          5    1    3    3  502    0 -0.11078758175E+01  0.11794115945E+01 -0.90907946566E+02  0.91018380284E+02  0.41800000000E+01 0. -1.
         -5    1    3    3    0  502  0.53533608228E+02  0.63910218943E+02  0.24374320273E+01  0.83509141836E+02  0.41800000000E+01 0. -1.
        -11    1    4    4    0    0 -0.53802195854E+02 -0.27484816068E+02 -0.14267753584E+02  0.62077855837E+02  0.00000000000E+00 0.  1.
         11    1    4    4    0    0  0.13764634429E+01 -0.37604814469E+02 -0.86376293661E+02  0.94217200285E+02  0.00000000000E+00 0. -1.
</event>
<event>
 8    1  0.7232317E-009  0.1139570E+03  0.7561462E-02  0.1253413E+00
         -1   -1    0    0    0  501 -0.00000000000E+00  0.00000000000E+00  0.25834824543E+03  0.25834824543E+03  0.00000000000E+00 0.  1.
          1   -1    0    0  501    0  0.00000000000E+00 -0.00000000000E+00 -0.51722184330E+02  0.51722184330E+02  0.00000000000E+00 0. -1.
         25    2    1    2    0    0 -0.91712362163E+00  0.39504332432E+02  0.10122534226E+03  0.16569631599E+03  0.12508903157E+03 0.  0.
         23    2    1    2    0    0  0.91712362163E+00 -0.39504332432E+02  0.10540071884E+03  0.14437411377E+03  0.90405419081E+02 0.  0.
          5    1    3    3  502    0 -0.35700334135E+02  0.72860539847E+02  0.50794743085E+02  0.95816232702E+02  0.41800000000E+01 0.  1.
         -5    1    3    3    0  502  0.34783210513E+02 -0.33356207416E+02  0.50430599178E+02  0.69880083287E+02  0.41800000000E+01 0.  1.
        -11    1    4    4    0    0  0.27610919506E+02 -0.59066866102E+02  0.63898720257E+02  0.91292409310E+02  0.00000000000E+00 0. -1.
         11    1    4    4    0    0 -0.26693795885E+02  0.19562533670E+02  0.41501998583E+02  0.53081704463E+02  0.00000000000E+00 0.  1.
</event>
<event>
 8    1  0.7232317E-009  0.1723660E+03  0.7561462E-02  0.1175403E+00
          1   -1    0    0  501    0  0.00000000000E+00  0.00000000000E+00  0.87702120610E+02  0.87702120610E+02  0.00000000000E+00 0. -1.
         -1   -1    0    0    0  501 -0.00000000000E+00 -0.00000000000E+00 -0.40462223486E+03  0.40462223486E+03  0.00000000000E+00 0.  1.
         25    2    1    2    0    0 -0.12629308211E+03  0.80947852776E+02 -0.12742535416E+03  0.23320821047E+03  0.12508537521E+03 0.  0.
         23    2    1    2    0    0  0.12629308211E+03 -0.80947852776E+02 -0.18949476009E+03  0.25911614500E+03  0.93436690018E+02 0.  0.
          5    1    3    3  502    0 -0.11972358833E+03  0.68053361465E+01 -0.88583743594E+02  0.14914624445E+03  0.41800000000E+01 0.  1.
         -5    1    3    3    0  502 -0.65694937767E+01  0.74142516629E+02 -0.38841610564E+02  0.84061966024E+02  0.41800000000E+01 0.  1.
        -11    1    4    4    0    0  0.11646872968E+03 -0.72161773152E+02 -0.19988362488E+03  0.24233396376E+03  0.00000000000E+00 0.  1.
         11    1    4    4    0    0  0.98243524317E+01 -0.87860796242E+01  0.10388864784E+02  0.16782181246E+02  0.00000000000E+00 0. -1.
</event>
<event>
 8    1  0.7232317E-009  0.1014076E+03  0.7561462E-02  0.1277363E+00
         -1   -1    0    0    0  501 -0.00000000000E+00  0.00000000000E+00  0.48509805018E+03  0.48509805018E+03  0.00000000000E+00 0.  1.
          1   -1    0    0  501    0  0.00000000000E+00 -0.00000000000E+00 -0.28987269679E+02  0.28987269679E+02  0.00000000000E+00 0. -1.
         25    2    1    2    0    0  0.22023786697E+02  0.36489413356E+02  0.29300019478E+03  0.32142170373E+03  0.12508506314E+03 0.  0.
         23    2    1    2    0    0 -0.22023786697E+02 -0.36489413356E+02  0.16311058572E+03  0.19266361612E+03  0.93261360365E+02 0.  0.
          5    1    3    3  502    0  0.21883549371E+02  0.67684005011E+02  0.84386464098E+02  0.11044710042E+03  0.41800000000E+01 0. -1.
         -5    1    3    3    0  502  0.14023732597E+00 -0.31194591655E+02  0.20861373068E+03  0.21097460332E+03  0.41800000000E+01 0. -1.
        -11    1    4    4    0    0 -0.54724342926E+02 -0.54437427000E+01  0.68393735663E+02  0.87761558334E+02  0.00000000000E+00 0. -1.
         11    1    4    4    0    0  0.32700556230E+02 -0.31045670656E+02  0.94716850055E+02  0.10490205779E+03  0.00000000000E+00 0.  1.
</event>
<event>
 8    1  0.7232317E-009  0.9925857E+02  0.7561462E-02  0.1281863E+00
         -1   -1    0    0    0  501 -0.00000000000E+00  0.00000000000E+00  0.97717593348E+02  0.97717593348E+02  0.00000000000E+00 0.  1.
          1   -1    0    0  501    0  0.00000000000E+00 -0.00000000000E+00 -0.20022388251E+03  0.20022388251E+03  0.00000000000E+00 0. -1.
         25    2    1    2    0    0 -0.74019867595E+02 -0.21488160552E+02 -0.91136883581E+02  0.17289674144E+03  0.12508664921E+03 0.  0.
         23    2    1    2    0    0  0.74019867595E+02  0.21488160552E+02 -0.11369405580E+02  0.12504473441E+03  0.97807159138E+02 0.  0.
          5    1    3    3  502    0  0.29490520175E+01  0.71843376006E+00 -0.92523335067E+02  0.92667432180E+02  0.41800000000E+01 0. -1.
         -5    1    3    3    0  502 -0.76968919612E+02 -0.22206594312E+02  0.13864514857E+01  0.80229309264E+02  0.41800000000E+01 0. -1.
        -11    1    4    4    0    0  0.45396238183E+02  0.53517765783E+02  0.18679993373E+02  0.72621703698E+02  0.00000000000E+00 0.  1.
         11    1    4    4    0    0  0.28623629411E+02 -0.32029605231E+02 -0.30049398953E+02  0.52423030715E+02  0.00000000000E+00 0. -1.
</event>
<event>
 8    1  0.7232317E-009  0.1553222E+03  0.7561462E-02  0.1194081E+00
          2   -1    0    0  501    0  0.00000000000E+00  0.00000000000E+00  0.87377750889E+03  0.87377750889E+03  0.00000000000E+00 0. -1.
         -2   -1    0    0    0  501 -0.00000000000E+00 -0.00000000000E+00 -0.36276678073E+02  0.36276678073E+02  0.00000000000E+00 0.  1.
         25    2    1    2    0    0 -0.11300697683E+03 -0.50637573248E+02  0.61501377033E+03  0.63970679760E+03  0.12509240011E+03 0.  0.
         23    2    1    2    0    0  0.11300697683E+03  0.50637573248E+02  0.22248706049E+03  0.27034738936E+03  0.90843151723E+02 0.  0.
          5    1    3    3  502    0 -0.88926855171E+02  0.14401293416E+02  0.47403226840E+03  0.48253439951E+03  0.41800000000E+01 0.  1.
         -5    1    3    3    0  502 -0.24080121656E+02 -0.65038866665E+02  0.14098150193E+03  0.15717239809E+03  0.41800000000E+01 0.  1.
        -11    1    4    4    0    0  0.72423356529E+02  0.74502209011E+02  0.12870156219E+03  0.16540802226E+03  0.00000000000E+00 0.  1.
         11    1    4    4    0    0  0.40583620298E+02 -0.23864635763E+02  0.93785498301E+02  0.10493936710E+03  0.00000000000E+00 0. -1.
</event>
<event>
 7    1  0.7232317E-009  0.9354751E+02  0.7561462E-02  0.1294481E+00
         -2   -1    0    0    0  501 -0.00000000000E+00  0.00000000000E+00  0.50759109388E+02  0.50759109388E+02  0.00000000000E+00 0.  1.
          2   -1    0    0  501    0  0.00000000000E+00 -0.00000000000E+00 -0.27180827189E+03  0.27180827189E+03  0.00000000000E+00 0. -1.
         23    2    1    2    0    0  0.15259732640E+02  0.38115381052E+02 -0.84991902284E+02  0.13319600869E+03  0.93978250479E+02 0.  0.
          5    1    1    2  502    0 -0.13571643991E+02  0.33469378323E+02 -0.90883206453E+00  0.36368766568E+02  0.41800000000E+01 0.  1.
         -5    1    1    2    0  502 -0.16880886487E+01 -0.71584759374E+02 -0.13514842815E+03  0.15300260602E+03  0.41800000000E+01 0.  1.
        -11    1    3    3    0    0 -0.79245923011E+01  0.51590214736E+02 -0.94605910196E+01  0.53045755741E+02  0.00000000000E+00 0.  1.
         11    1    3    3    0    0  0.23184324941E+02 -0.13474833685E+02 -0.75531311264E+02  0.80150252945E+02  0.00000000000E+00 0. -1.
</event>
<event>
 8    1  0.7232317E-009  0.9897972E+02  0.7561462E-02  0.1282456E+00
         -1   -1    0    0    0  501 -0.00000000000E+00  0.00000000000E+00  0.58552372380E+02  0.58552372380E+02  0.00000000000E+00 0.  1.
          1   -1    0    0  501    0  0.00000000000E+00 -0.00000000000E+00 -0.54281760776E+03  0.54281760776E+03  0.00000000000E+00 0. -1.
         25    2    1    2    0    0  0.33247148521E+02  0.38542911534E+02 -0.47652195008E+03  0.49528865006E+03  0.12508696598E+03 0.  0.
         23    2    1    2    0    0 -0.33247148521E+02 -0.38542911534E+02 -0.77432853020E+01  0.10608133008E+03  0.92748914872E+02 0.  0.
          5    1    3    3  502    0 -0.40082610769E+02 -0.11400326703E+02 -0.99683649562E+02  0.10812439838E+03  0.41800000000E+01 0. -1.
         -5    1    3    3    0  502  0.73329759290E+02  0.49943238237E+02 -0.37683830052E+03  0.38716425168E+03  0.41800000000E+01 0. -1.
        -11    1    4    4    0    0 -0.35355800598E+02 -0.74991395117E+01  0.36908493027E+02  0.51657589829E+02  0.00000000000E+00 0.  1.
         11    1    4    4    0    0  0.21086520769E+01 -0.31043772022E+02 -0.44651778329E+02  0.54423740251E+02  0.00000000000E+00 0. -1.
</event>
<event>
 8    1  0.7232317E-009  0.4021244E+03  0.7561462E-02  0.1043047E+00
         -1   -1    0    0    0  501 -0.00000000000E+00  0.00000000000E+00  0.11107081291E+03  0.11107081291E+03  0.00000000000E+00 0.  1.
          1   -1    0    0  501    0  0.00000000000E+00 -0.00000000000E+00 -0.16685300775E+04  0.16685300775E+04  0.00000000000E+00 0. -1.
         25    2    1    2    0    0 -0.25553614377E+03 -0.29072809761E+03 -0.11040313210E+04  0.11765858182E+04  0.12508989719E+03 0.  0.
         23    2    1    2    0    0  0.25553614377E+03  0.29072809761E+03 -0.45342794360E+03  0.60301507220E+03  0.90602040499E+02 0.  0.
          5    1    3    3  502    0 -0.11077617479E+03 -0.21833801458E+03 -0.66151514434E+03  0.70538117929E+03  0.41800000000E+01 0.  1.
         -5    1    3    3    0  502 -0.14475996899E+03 -0.72390083030E+02 -0.44251617665E+03  0.47120463892E+03  0.41800000000E+01 0.  1.
        -11    1    4    4    0    0  0.11649152467E+03  0.67933121384E+02 -0.14913010560E+03  0.20105962474E+03  0.00000000000E+00 0. -1.
         11    1    4    4    0    0  0.13904461910E+03  0.22279497623E+03 -0.30429783800E+03  0.40195544746E+03  0.00000000000E+00 0.  1.
</event>
<event>
 8    1  0.7232317E-009  0.1440661E+03  0.7561462E-02  0.1207960E+00
          1   -1    0    0  501    0  0.00000000000E+00  0.00000000000E+00  0.40352422177E+02  0.40352422177E+02  0.00000000000E+00 0. -1.
         -1   -1    0    0    0  501 -0.00000000000E+00 -0.00000000000E+00 -0.73799059479E+03  0.73799059479E+03  0.00000000000E+00 0.  1.
         25    2    1    2    0    0  0.10012836819E+03  0.85338949430E+02 -0.42152254678E+03  0.45894525673E+03  0.12506424277E+03 0.  0.
         23    2    1    2    0    0 -0.10012836819E+03 -0.85338949430E+02 -0.27611562583E+03  0.31939776024E+03  0.92014477192E+02 0.  0.
          5    1    3    3  502    0  0.28961659337E+02  0.48356862781E+02 -0.40455908456E+02  0.69507674530E+02  0.41800000000E+01 0.  1.
         -5    1    3    3    0  502  0.71166708853E+02  0.36982086649E+02 -0.38106663833E+03  0.38943758220E+03  0.41800000000E+01 0.  1.
        -11    1    4    4    0    0 -0.98603066668E+02 -0.40760869241E+02 -0.23763425205E+03  0.26048810139E+03  0.00000000000E+00 0. -1.
         11    1    4    4    0    0 -0.15253015213E+01 -0.44578080189E+02 -0.38481373780E+02  0.58909658851E+02  0.00000000000E+00 0.  1.
</event>
<event>
 8    1  0.7232317E-009  0.5729352E+02  0.7561462E-02  0.1409554E+00
          3   -1    0    0  501    0  0.00000000000E+00  0.00000000000E+00  0.75800360211E+02  0.75800360211E+02  0.00000000000E+00 0. -1.
         -3   -1    0    0    0  501 -0.00000000000E+00 -0.00000000000E+00 -0.18824139267E+03  0.18824139267E+03  0.00000000000E+00 0.  1.
         25    2    1    2    0    0 -0.30205400420E+02  0.12410308534E+02 -0.23610783319E+02  0.13141708320E+03  0.12508636495E+03 0.  0.
         23    2    1    2    0    0  0.30205400420E+02 -0.12410308534E+02 -0.88830249140E+02  0.13262466968E+03  0.92909137724E+02 0.  0.
          5    1    3    3  502    0 -0.17657677031E+02 -0.25268023676E+01  0.50996888948E+02  0.54187944883E+02  0.41800000000E+01 0.  1.
         -5    1    3    3    0  502 -0.12547723389E+02  0.14937110901E+02 -0.74607672267E+02  0.77229138318E+02  0.41800000000E+01 0.  1.
        -11    1    4    4    0    0 -0.22522307990E+02 -0.24492530657E+01  0.62024134343E+01  0.23488787329E+02  0.00000000000E+00 0. -1.
         11    1    4    4    0    0  0.52727708410E+02 -0.99610554680E+01 -0.95032662574E+02  0.10913588235E+03  0.00000000000E+00 0.  1.
</event>
<event>
 8    1  0.7232317E-009  0.1507375E+03  0.7561462E-02  0.1199570E+00
         -1   -1    0    0    0  501 -0.00000000000E+00  0.00000000000E+00  0.14529304579E+03  0.14529304579E+03  0.00000000000E+00 0.  1.
          1   -1    0    0  501    0  0.00000000000E+00 -0.00000000000E+00 -0.23088427469E+03  0.23088427469E+03  0.00000000000E+00 0. -1.
         25    2    1    2    0    0  0.11043457257E+03  0.65491780375E+02  0.29179334096E+02  0.18161582652E+03  0.12509159360E+03 0.  0.
         23    2    1    2    0    0 -0.11043457257E+03 -0.65491780375E+02 -0.11477056300E+03  0.19456149395E+03  0.90536869174E+02 0.  0.
          5    1    3    3  502    0 -0.21571530464E+01 -0.24968959266E+02 -0.16240042445E+02  0.30154827386E+02  0.41800000000E+01 0.  1.
         -5    1    3    3    0  502  0.11259172562E+03  0.90460739641E+02  0.45419376541E+02  0.15146099914E+03  0.41800000000E+01 0.  1.
        -11    1    4    4    0    0 -0.10031578955E+02 -0.17777097118E+02  0.13768012830E+02  0.24621452751E+02  0.00000000000E+00 0.  1.
         11    1    4    4    0    0 -0.10040299362E+03 -0.47714683256E+02 -0.12853857583E+03  0.16994004119E+03  0.00000000000E+00 0. -1.
</event>
<event>
 8    1  0.7232317E-009  0.7857267E+02  0.7561462E-02  0.1333151E+00
         -1   -1    0    0    0  501 -0.00000000000E+00  0.00000000000E+00  0.56966324767E+03  0.56966324767E+03  0.00000000000E+00 0.  1.
          1   -1    0    0  501    0  0.00000000000E+00 -0.00000000000E+00 -0.47984212739E+02  0.47984212739E+02  0.00000000000E+00 0. -1.
         25    2    1    2    0    0  0.46905676127E+01  0.69488259516E+02  0.47272702160E+03  0.49392820227E+03  0.12507442749E+03 0.  0.
         23    2    1    2    0    0 -0.46905676127E+01 -0.69488259516E+02  0.48952013327E+02  0.12371925814E+03  0.89774916261E+02 0.  0.
          5    1    3    3  502    0  0.22260303337E+02  0.11468976434E+02  0.39233118111E+03  0.39315173482E+03  0.41800000000E+01 0.  1.
         -5    1    3    3    0  502 -0.17569735724E+02  0.58019283083E+02  0.80395840498E+02  0.10077646745E+03  0.41800000000E+01 0.  1.
        -11    1    4    4    0    0 -0.95310939177E+01 -0.50881781863E+02  0.75131267652E+02  0.91238724541E+02  0.00000000000E+00 0.  1.
         11    1    4    4    0    0  0.48405263050E+01 -0.18606477653E+02 -0.26179254325E+02  0.32480533594E+02  0.00000000000E+00 0. -1.
</event>
<event>
 8    1  0.7232317E-009  0.1105926E+03  0.7561462E-02  0.1259476E+00
          1   -1    0    0  501    0  0.00000000000E+00  0.00000000000E+00  0.40293388777E+03  0.40293388777E+03  0.00000000000E+00 0. -1.
         -1   -1    0    0    0  501 -0.00000000000E+00 -0.00000000000E+00 -0.35789547468E+02  0.35789547468E+02  0.00000000000E+00 0.  1.
         25    2    1    2    0    0 -0.28155981691E+02  0.40986865148E+02  0.26961669515E+03  0.30135312944E+03  0.12509142217E+03 0.  0.
         23    2    1    2    0    0  0.28155981691E+02 -0.40986865148E+02  0.97527645158E+02  0.13737030580E+03  0.82983594323E+02 0.  0.
          5    1    3    3  502    0  0.43538238604E+01  0.79326667859E+02  0.20115783659E+03  0.21631833866E+03  0.41800000000E+01 0.  1.
         -5    1    3    3    0  502 -0.32509805551E+02 -0.38339802711E+02  0.68458858553E+02  0.85034790781E+02  0.41800000000E+01 0.  1.
        -11    1    4    4    0    0  0.83423042267E+01  0.22861548112E+02  0.49166388976E+02  0.54859622919E+02  0.00000000000E+00 0. -1.
         11    1    4    4    0    0  0.19813677464E+02 -0.63848413260E+02  0.48361256182E+02  0.82510682884E+02  0.00000000000E+00 0.  1.
</event>
<event>
 8    1  0.7232317E-009  0.1486553E+03  0.7561462E-02  0.1202135E+00
         -2   -1    0    0    0  501 -0.00000000000E+00  0.00000000000E+00  0.54349988481E+02  0.54349988481E+02  0.00000000000E+00 0. -1.
          2   -1    0    0  501    0  0.00000000000E+00 -0.00000000000E+00 -0.55849092327E+03  0.55849092327E+03  0.00000000000E+00 0.  1.
         25    2    1    2    0    0  0.27746176565E+02  0.12862615999E+03 -0.32502177487E+03  0.37228870280E+03  0.12508071291E+03 0.  0.
         23    2    1    2    0    0 -0.27746176565E+02 -0.12862615999E+03 -0.17911915992E+03  0.24055220895E+03  0.92017131209E+02 0.  0.
          5    1    3    3  502    0 -0.27289310718E+02  0.74416508284E+02 -0.25799420793E+03  0.26992778092E+03  0.41800000000E+01 0. -1.
         -5    1    3    3    0  502  0.55035487283E+02  0.54209651705E+02 -0.67027566941E+02  0.10236092188E+03  0.41800000000E+01 0. -1.
        -11    1    4    4    0    0  0.10290236094E+02 -0.54188236945E+01  0.74119638396E+01  0.13790932422E+02  0.00000000000E+00 0. -1.
         11    1    4    4    0    0 -0.38036412659E+02 -0.12320733629E+03 -0.18653112376E+03  0.22676127653E+03  0.00000000000E+00 0.  1.
</event>
<event>
 8    1  0.7232317E-009  0.1461373E+03  0.7561462E-02  0.1205301E+00
         -1   -1    0    0    0  501 -0.00000000000E+00  0.00000000000E+00  0.39651311578E+03  0.39651311578E+03  0.00000000000E+00 0.  1.
          1   -1    0    0  501    0  0.00000000000E+00 -0.00000000000E+00 -0.73717402340E+02  0.73717402340E+02  0.00000000000E+00 0. -1.
         25    2    1    2    0    0 -0.64912116412E+02  0.10930629695E+03  0.11575420174E+03  0.21262285029E+03  0.12509193353E+03 0.  0.
         23    2    1    2    0    0  0.64912116412E+02 -0.10930629695E+03  0.20704151170E+03  0.25760766783E+03  0.85639205656E+02 0.  0.
          5    1    3    3  502    0 -0.69030114892E+02  0.15349610808E+02  0.90926264639E+02  0.11526415451E+03  0.41800000000E+01 0. -1.
         -5    1    3    3    0  502  0.41179984796E+01  0.93956686147E+02  0.24827937100E+02  0.97358695779E+02  0.41800000000E+01 0. -1.
        -11    1    4    4    0    0  0.36675530774E+02 -0.68005653021E+02  0.18940715848E+03  0.20456034583E+03  0.00000000000E+00 0.  1.
         11    1    4    4    0    0  0.28236585638E+02 -0.41300643934E+02  0.17634353214E+02  0.53047321998E+02  0.00000000000E+00 0. -1.
</event>
<event>
 8    1  0.7232317E-009  0.6579214E+02  0.7561462E-02  0.1375016E+00
          1   -1    0    0  501    0  0.00000000000E+00  0.00000000000E+00  0.19055705662E+03  0.19055705662E+03  0.00000000000E+00 0. -1.
         -1   -1    0    0    0  501 -0.00000000000E+00 -0.00000000000E+00 -0.97179395224E+02  0.97179395224E+02  0.00000000000E+00 0.  1.
         25    2    1    2    0    0 -0.28448047935E+02 -0.44163175874E+02 -0.14665131606E+02  0.13646545366E+03  0.12509227164E+03 0.  0.
         23    2    1    2    0    0  0.28448047935E+02  0.44163175874E+02  0.10804279300E+03  0.15127099818E+03  0.91923839330E+02 0.  0.
          5    1    3    3  502    0 -0.10403003924E+02 -0.99136457523E+01  0.54813554811E+02  0.56819900156E+02  0.41800000000E+01 0.  1.
         -5    1    3    3    0  502 -0.18045044011E+02 -0.34249530122E+02 -0.69478686417E+02  0.79645553505E+02  0.41800000000E+01 0.  1.
        -11    1    4    4    0    0 -0.99969516208E+00  0.47976930324E+02  0.10250424343E+02  0.49069913725E+02  0.00000000000E+00 0.  1.
         11    1    4    4    0    0  0.29447743097E+02 -0.38137544501E+01  0.97792368660E+02  0.10220108446E+03  0.00000000000E+00 0. -1.
</event>
<event>
 8    1  0.7232317E-009  0.1095720E+03  0.7561462E-02  0.1261364E+00
          2   -1    0    0  501    0  0.00000000000E+00  0.00000000000E+00  0.35915155646E+02  0.35915155646E+02  0.00000000000E+00 0. -1.
         -2   -1    0    0    0  501 -0.00000000000E+00 -0.00000000000E+00 -0.42707043983E+03  0.42707043983E+03  0.00000000000E+00 0.  1.
         25    2    1    2    0    0 -0.58236454737E+02 -0.81799243049E+01 -0.20432315730E+03  0.24668093252E+03  0.12508051021E+03 0.  0.
         23    2    1    2    0    0  0.58236454737E+02  0.81799243049E+01 -0.18683212688E+03  0.21630466296E+03  0.91777272570E+02 0.  0.
          5    1    3    3  502    0 -0.79059284446E+02  0.26939441407E+02 -0.79892144932E+02  0.11565609012E+03  0.41800000000E+01 0. -1.
         -5    1    3    3    0  502  0.20822829709E+02 -0.35119365711E+02 -0.12443101237E+03  0.13102484240E+03  0.41800000000E+01 0. -1.
        -11    1    4    4    0    0  0.77953047649E+01  0.36024580623E+02 -0.25039129102E+02  0.44558895539E+02  0.00000000000E+00 0. -1.
         11    1    4    4    0    0  0.50441149972E+02 -0.27844656318E+02 -0.16179299778E+03  0.17174576742E+03  0.00000000000E+00 0.  1.
</event>
<event>
 8    1  0.7232317E-009  0.6005269E+02  0.7561462E-02  0.1397611E+00
          2   -1    0    0  501    0  0.00000000000E+00  0.00000000000E+00  0.18145545332E+03  0.18145545332E+03  0.00000000000E+00 0. -1.
         -2   -1    0    0    0  501 -0.00000000000E+00 -0.00000000000E+00 -0.93449709627E+02  0.93449709627E+02  0.00000000000E+00 0.  1.
         25    2    1    2    0    0 -0.50639659037E+02  0.23204055841E+02  0.98592549585E+02  0.16873509045E+03  0.12509291204E+03 0.  0.
         23    2    1    2    0    0  0.50639659037E+02 -0.23204055841E+02 -0.10586805896E+02  0.10617007249E+03  0.89761910401E+02 0.  0.
          5    1    3    3  502    0 -0.53330135616E+02  0.22077889167E+02 -0.11098861744E+02  0.58925322968E+02  0.41800000000E+01 0.  1.
         -5    1    3    3    0  502  0.26904765787E+01  0.11261666738E+01  0.10969141133E+03  0.10980976748E+03  0.41800000000E+01 0.  1.
        -11    1    4    4    0    0  0.14869312007E+02 -0.71758185949E+00 -0.47678028262E+02  0.49948030414E+02  0.00000000000E+00 0.  1.
         11    1    4    4    0    0  0.35770347031E+02 -0.22486473981E+02  0.37091222365E+02  0.56222042077E+02  0.00000000000E+00 0. -1.
</event>
<event>
 8    1  0.7232317E-009  0.1346015E+03  0.7561462E-02  0.1220783E+00
          2   -1    0    0  501    0  0.00000000000E+00  0.00000000000E+00  0.10461063385E+04  0.10461063385E+04  0.00000000000E+00 0. -1.
         -2   -1    0    0    0  501 -0.00000000000E+00 -0.00000000000E+00 -0.20094823239E+02  0.20094823239E+02  0.00000000000E+00 0.  1.
         25    2    1    2    0    0  0.70351145357E+02  0.58747295788E+02  0.65509089996E+03  0.67319693445E+03  0.12509794935E+03 0.  0.
         23    2    1    2    0    0 -0.70351145357E+02 -0.58747295788E+02  0.37092061527E+03  0.39300422726E+03  0.92030926284E+02 0.  0.
          5    1    3    3  502    0  0.47032971783E+02  0.89505492708E+02  0.57896667171E+03  0.58774417310E+03  0.41800000000E+01 0. -1.
         -5    1    3    3    0  502  0.23318173574E+02 -0.30758196920E+02  0.76124228250E+02  0.85452761355E+02  0.41800000000E+01 0. -1.
        -11    1    4    4    0    0 -0.45273982166E+02  0.17788407997E+02  0.12037252261E+03  0.12982952330E+03  0.00000000000E+00 0.  1.
         11    1    4    4    0    0 -0.25077163191E+02 -0.76535703785E+02  0.25054809266E+03  0.26317470396E+03  0.00000000000E+00 0. -1.
</event>
<event>
 8    1  0.7232317E-009  0.5457672E+02  0.7561462E-02  0.1422111E+00
         -1   -1    0    0    0  501 -0.00000000000E+00  0.00000000000E+00  0.50321021170E+02  0.50321021170E+02  0.00000000000E+00 0.  1.
          1   -1    0    0  501    0  0.00000000000E+00 -0.00000000000E+00 -0.23674922704E+03  0.23674922704E+03  0.00000000000E+00 0. -1.
         25    2    1    2    0    0  0.11026603072E+01  0.81611688316E+01 -0.16164026407E+03  0.20455130398E+03  0.12508333404E+03 0.  0.
         23    2    1    2    0    0 -0.11026603072E+01 -0.81611688316E+01 -0.24787941798E+02  0.82518944229E+02  0.78275881097E+02 0.  0.
          5    1    3    3  502    0 -0.10011921339E+02 -0.11887672574E+02  0.17573107581E+02  0.23829432184E+02  0.41800000000E+01 0. -1.
         -5    1    3    3    0  502  0.11114581647E+02  0.20048841406E+02 -0.17921337165E+03  0.18072187180E+03  0.41800000000E+01 0. -1.
        -11    1    4    4    0    0  0.26840486959E+02  0.17317653673E+02  0.74813986769E+01  0.32806770568E+02  0.00000000000E+00 0. -1.
         11    1    4    4    0    0 -0.27943147267E+02 -0.25478822504E+02 -0.32269340475E+02  0.49712173661E+02  0.00000000000E+00 0.  1.
</event>
<event>
 8    1  0.7232317E-009  0.1500754E+03  0.7561462E-02  0.1200380E+00
          2   -1    0    0  501    0  0.00000000000E+00  0.00000000000E+00  0.16013386646E+04  0.16013386646E+04  0.00000000000E+00 0. -1.
         -2   -1    0    0    0  501 -0.00000000000E+00 -0.00000000000E+00 -0.26934652502E+02  0.26934652502E+02  0.00000000000E+00 0.  1.
         25    2    1    2    0    0  0.12268411273E+03 -0.26483664733E+02  0.13082760493E+04  0.13202232695E+04  0.12510189578E+03 0.  0.
         23    2    1    2    0    0 -0.12268411273E+03  0.26483664733E+02  0.26612796287E+03  0.30805004760E+03  0.91202868340E+02 0.  0.
          5    1    3    3  502    0  0.14666178932E+03 -0.15694830336E+02  0.11817348977E+04  0.11909117722E+04  0.41800000000E+01 0.  1.
         -5    1    3    3    0  502 -0.23977676596E+02 -0.10788834397E+02  0.12654115154E+03  0.12931149738E+03  0.41800000000E+01 0.  1.
        -11    1    4    4    0    0 -0.68135285094E+02  0.20158268103E+02  0.54878785371E+02  0.89780030806E+02  0.00000000000E+00 0.  1.
         11    1    4    4    0    0 -0.54548827635E+02  0.63253966302E+01  0.21124917750E+03  0.21827001680E+03  0.00000000000E+00 0. -1.
</event>
<event>
 8    1  0.7232317E-009  0.9619562E+02  0.7561462E-02  0.1288506E+00
          3   -1    0    0  501    0  0.00000000000E+00  0.00000000000E+00  0.11705306814E+03  0.11705306814E+03  0.00000000000E+00 0. -1.
         -3   -1    0    0    0  501 -0.00000000000E+00 -0.00000000000E+00 -0.12424978794E+03  0.12424978794E+03  0.00000000000E+00 0.  1.
         25    2    1    2    0    0 -0.20775312588E+02 -0.37403335608E+01 -0.54760695119E+02  0.13817390593E+03  0.12509073044E+03 0.  0.
         23    2    1    2    0    0  0.20775312588E+02  0.37403335608E+01  0.47563975316E+02  0.10312895015E+03  0.89037323084E+02 0.  0.
          5    1    3    3  502    0  0.46576142192E+02  0.24801824163E+02 -0.16082653422E+02  0.55322614222E+02  0.41800000000E+01 0.  1.
         -5    1    3    3    0  502 -0.67351454780E+02 -0.28542157724E+02 -0.38678041697E+02  0.82851291710E+02  0.41800000000E+01 0.  1.
        -11    1    4    4    0    0 -0.22076380206E+02  0.71406940258E+01 -0.14700343263E+02  0.27467365476E+02  0.00000000000E+00 0.  1.
         11    1    4    4    0    0  0.42851692794E+02 -0.34003604650E+01  0.62264318578E+02  0.75661584669E+02  0.00000000000E+00 0. -1.
</event>
<event>
 8    1  0.7232317E-009  0.9208471E+02  0.7561462E-02  0.1297880E+00
          1   -1    0    0  501    0  0.00000000000E+00  0.00000000000E+00  0.39757393403E+02  0.39757393403E+02  0.00000000000E+00 0. -1.
         -1   -1    0    0    0  501 -0.00000000000E+00 -0.00000000000E+00 -0.65935526689E+03  0.65935526689E+03  0.00000000000E+00 0.  1.
         25    2    1    2    0    0  0.54731432212E+02 -0.13989102924E+02 -0.56483987818E+03  0.58127787974E+03  0.12509460746E+03 0.  0.
         23    2    1    2    0    0 -0.54731432212E+02  0.13989102924E+02 -0.54757995302E+02  0.11783478055E+03  0.87723273910E+02 0.  0.
          5    1    3    3  502    0 -0.89901749464E+01 -0.12549172152E+02 -0.44661391917E+03  0.44690017920E+03  0.41800000000E+01 0. -1.
         -5    1    3    3    0  502  0.63721607158E+02 -0.14399307721E+01 -0.11822595901E+03  0.13437770055E+03  0.41800000000E+01 0. -1.
        -11    1    4    4    0    0 -0.33295702948E+01  0.44435025316E+02 -0.21838588895E+02  0.49623396479E+02  0.00000000000E+00 0. -1.
         11    1    4    4    0    0 -0.51401861917E+02 -0.30445922392E+02 -0.32919406407E+02  0.68211384072E+02  0.00000000000E+00 0.  1.
</event>
<event>
 8    1  0.7232317E-009  0.8947754E+02  0.7561462E-02  0.1304122E+00
         -1   -1    0    0    0  501 -0.00000000000E+00  0.00000000000E+00  0.23248545445E+03  0.23248545445E+03  0.00000000000E+00 0.  1.
          1   -1    0    0  501    0  0.00000000000E+00 -0.00000000000E+00 -0.59049311201E+02  0.59049311201E+02  0.00000000000E+00 0. -1.
         25    2    1    2    0    0  0.33609637074E+02 -0.19895457223E+02  0.13327625754E+03  0.18690816374E+03  0.12508662569E+03 0.  0.
         23    2    1    2    0    0 -0.33609637074E+02  0.19895457223E+02  0.40159885707E+02  0.10462660191E+03  0.88365561648E+02 0.  0.
          5    1    3    3  502    0  0.75816718340E+02 -0.32286674261E+02  0.62659442011E+02  0.10360638102E+03  0.41800000000E+01 0.  1.
         -5    1    3    3    0  502 -0.42207081266E+02  0.12391217038E+02  0.70616815534E+02  0.83301782723E+02  0.41800000000E+01 0.  1.
        -11    1    4    4    0    0 -0.30642453724E+02 -0.14789031008E+01  0.64907327181E+02  0.71792118275E+02  0.00000000000E+00 0.  1.
         11    1    4    4    0    0 -0.29671833503E+01  0.21374360324E+02 -0.24747441473E+02  0.32834483638E+02  0.00000000000E+00 0. -1.
</event>
<event>
 8    1  0.7232317E-009  0.1065394E+03  0.7561462E-02  0.1267116E+00
          1   -1    0    0  501    0  0.00000000000E+00  0.00000000000E+00  0.10847960545E+04  0.10847960545E+04  0.00000000000E+00 0. -1.
         -1   -1    0    0    0  501 -0.00000000000E+00 -0.00000000000E+00 -0.11048727636E+02  0.11048727636E+02  0.00000000000E+00 0.  1.
         25    2    1    2    0    0  0.97281609177E+01 -0.92690117140E+01  0.71134624280E+03  0.72238603348E+03  0.12509017757E+03 0.  0.
         23    2    1    2    0    0 -0.97281609177E+01  0.92690117140E+01  0.36240108407E+03  0.37345874866E+03  0.89198315710E+02 0.  0.
          5    1    3    3  502    0  0.52732055174E+02  0.34706436885E+02  0.31724166336E+03  0.32348871970E+03  0.41800000000E+01 0.  1.
         -5    1    3    3    0  502 -0.43003894256E+02 -0.43975448599E+02  0.39410457944E+03  0.39889731378E+03  0.41800000000E+01 0.  1.
        -11    1    4    4    0    0  0.17398556497E+02  0.42112583487E+02  0.14754174224E+03  0.15441743801E+03  0.00000000000E+00 0. -1.
         11    1    4    4    0    0 -0.27126717414E+02 -0.32843571773E+02  0.21485934183E+03  0.21904131066E+03  0.00000000000E+00 0.  1.
</event>
<event>
 8    1  0.7232317E-009  0.9636345E+02  0.7561462E-02  0.1288134E+00
          2   -1    0    0  501    0  0.00000000000E+00  0.00000000000E+00  0.37122934943E+03  0.37122934943E+03  0.00000000000E+00 0. -1.
         -2   -1    0    0    0  501 -0.00000000000E+00 -0.00000000000E+00 -0.71594510857E+02  0.71594510857E+02  0.00000000000E+00 0.  1.
         25    2    1    2    0    0  0.93868966274E+02  0.99996760019E+01  0.26581398363E+03  0.30857091470E+03  0.12509020408E+03 0.  0.
         23    2    1    2    0    0 -0.93868966274E+02 -0.99996760019E+01  0.33820854939E+02  0.13425294558E+03  0.89267165404E+02 0.  0.
          5    1    3    3  502    0  0.46318775695E+02  0.43320825081E+01  0.25507606555E+03  0.25931731052E+03  0.41800000000E+01 0.  1.
         -5    1    3    3    0  502  0.47550190578E+02  0.56675934938E+01  0.10737918084E+02  0.49253604181E+02  0.41800000000E+01 0.  1.
        -11    1    4    4    0    0 -0.47513406941E+02  0.80755533092E+01 -0.27340425101E+02  0.55409721576E+02  0.00000000000E+00 0.  1.
         11    1    4    4    0    0 -0.46355559333E+02 -0.18075229311E+02  0.61161280039E+02  0.78843224007E+02  0.00000000000E+00 0. -1.
</event>
<event>
 8    1  0.7232317E-009  0.1369450E+03  0.7561462E-02  0.1217500E+00
         -1   -1    0    0    0  501 -0.00000000000E+00  0.00000000000E+00  0.11872615578E+03  0.11872615578E+03  0.00000000000E+00 0.  1.
          1   -1    0    0  501    0  0.00000000000E+00 -0.00000000000E+00 -0.16542559365E+03  0.16542559365E+03  0.00000000000E+00 0. -1.
         25    2    1    2    0    0  0.86573488635E+02  0.54046827962E+01 -0.77530893160E+01  0.15241899697E+03  0.12508901116E+03 0.  0.
         23    2    1    2    0    0 -0.86573488635E+02 -0.54046827962E+01 -0.38946348557E+02  0.13173275245E+03  0.91173024911E+02 0.  0.
          5    1    3    3  502    0  0.10477223911E+02 -0.53846194267E+02 -0.97097317439E+01  0.55865339419E+02  0.41800000000E+01 0.  1.
         -5    1    3    3    0  502  0.76096264724E+02  0.59250877063E+02  0.19566424280E+01  0.96553657555E+02  0.41800000000E+01 0.  1.
        -11    1    4    4    0    0 -0.36367792421E+02 -0.45387044305E+02 -0.31528868377E+01  0.58245521817E+02  0.00000000000E+00 0.  1.
         11    1    4    4    0    0 -0.50205696215E+02  0.39982361509E+02 -0.35793461719E+02  0.73487230633E+02  0.00000000000E+00 0. -1.
</event>
<event>
 8    1  0.7232317E-009  0.1215560E+03  0.7561462E-02  0.1240552E+00
          1   -1    0    0  501    0  0.00000000000E+00  0.00000000000E+00  0.40143474125E+03  0.40143474125E+03  0.00000000000E+00 0. -1.
         -1   -1    0    0    0  501 -0.00000000000E+00 -0.00000000000E+00 -0.42187209192E+02  0.42187209192E+02  0.00000000000E+00 0.  1.
         25    2    1    2    0    0 -0.55245251042E+02  0.28456727525E+02  0.24807755413E+03  0.28469743637E+03  0.12509330239E+03 0.  0.
         23    2    1    2    0    0  0.55245251042E+02 -0.28456727525E+02  0.11116997793E+03  0.15892451408E+03  0.95060055117E+02 0.  0.
          5    1    3    3  502    0 -0.90959697469E+02 -0.63993041967E+00  0.18785593555E+03  0.20876158889E+03  0.41800000000E+01 0.  1.
         -5    1    3    3    0  502  0.35714446426E+02  0.29096657945E+02  0.60221618588E+02  0.75935847479E+02  0.41800000000E+01 0.  1.
        -11    1    4    4    0    0 -0.10325938388E+02  0.21176918029E+02  0.53567307139E+02  0.58519597187E+02  0.00000000000E+00 0. -1.
         11    1    4    4    0    0  0.65571189431E+02 -0.49633645554E+02  0.57602670791E+02  0.10040491689E+03  0.00000000000E+00 0.  1.
</event>
<event>
 8    1  0.7232317E-009  0.9750892E+02  0.7561462E-02  0.1285623E+00
          2   -1    0    0  501    0  0.00000000000E+00  0.00000000000E+00  0.40178958720E+03  0.40178958720E+03  0.00000000000E+00 0. -1.
         -2   -1    0    0    0  501 -0.00000000000E+00 -0.00000000000E+00 -0.32209668062E+02  0.32209668062E+02  0.00000000000E+00 0.  1.
         25    2    1    2    0    0  0.28385071283E+02 -0.14437310313E+02  0.19535476327E+03  0.23414678930E+03  0.12508831761E+03 0.  0.
         23    2    1    2    0    0 -0.28385071283E+02  0.14437310313E+02  0.17422515586E+03  0.19985246597E+03  0.92587553250E+02 0.  0.
          5    1    3    3  502    0 -0.41208052982E+02 -0.29326787866E+02  0.45339988882E+02  0.68054030806E+02  0.41800000000E+01 0. -1.
         -5    1    3    3    0  502  0.69593124264E+02  0.14889477553E+02  0.15001477439E+03  0.16609275849E+03  0.41800000000E+01 0. -1.
        -11    1    4    4    0    0 -0.49936335801E+02  0.11287344971E+02  0.43076623408E+02  0.66907677242E+02  0.00000000000E+00 0.  1.
         11    1    4    4    0    0  0.21551264518E+02  0.31499653424E+01  0.13114853245E+03  0.13294478872E+03  0.00000000000E+00 0. -1.
</event>
<event>
 8    1  0.7232317E-009  0.1375912E+03  0.7561462E-02  0.1216607E+00
          2   -1    0    0  501    0  0.00000000000E+00  0.00000000000E+00  0.22559602066E+03  0.22559602066E+03  0.00000000000E+00 0. -1.
         -2   -1    0    0    0  501 -0.00000000000E+00 -0.00000000000E+00 -0.17518578033E+03  0.17518578033E+03  0.00000000000E+00 0.  1.
         25    2    1    2    0    0  0.52172949548E+02  0.11939311003E+03 -0.77815750459E+02  0.19666947352E+03  0.12508740707E+03 0.  0.
         23    2    1    2    0    0 -0.52172949548E+02 -0.11939311003E+03  0.12822599078E+03  0.20411232747E+03  0.90792103878E+02 0.  0.
          5    1    3    3  502    0  0.28131334467E+02  0.62898962243E+01  0.27612416155E+02  0.40135429477E+02  0.41800000000E+01 0. -1.
         -5    1    3    3    0  502  0.24041615081E+02  0.11310321381E+03 -0.10542816661E+03  0.15653404404E+03  0.41800000000E+01 0. -1.
        -11    1    4    4    0    0 -0.11345290794E+02 -0.22261294952E+02 -0.12799671879E+02  0.28073341026E+02  0.00000000000E+00 0.  1.
         11    1    4    4    0    0 -0.40827658754E+02 -0.97131815079E+02  0.14102566266E+03  0.17603898645E+03  0.00000000000E+00 0. -1.
</event>
<event>
 8    1  0.7232317E-009  0.1554941E+03  0.7561462E-02  0.1193880E+00
          1   -1    0    0  501    0  0.00000000000E+00  0.00000000000E+00  0.28546188269E+03  0.28546188269E+03  0.00000000000E+00 0. -1.
         -1   -1    0    0    0  501 -0.00000000000E+00 -0.00000000000E+00 -0.95160128875E+02  0.95160128875E+02  0.00000000000E+00 0.  1.
         25    2    1    2    0    0 -0.73313424474E+02 -0.93904207059E+02  0.61620349809E+02  0.18340474711E+03  0.12508946974E+03 0.  0.
         23    2    1    2    0    0  0.73313424474E+02  0.93904207059E+02  0.12868140401E+03  0.19721726446E+03  0.90237948517E+02 0.  0.
          5    1    3    3  502    0 -0.10606062824E+03 -0.48736834407E+02  0.41587551783E+02  0.12398037245E+03  0.41800000000E+01 0.  1.
         -5    1    3    3    0  502  0.32747203762E+02 -0.45167372652E+02  0.20032798026E+02  0.59424374656E+02  0.41800000000E+01 0.  1.
        -11    1    4    4    0    0  0.29348615393E+01  0.60095451997E+02  0.94402099134E+02  0.11194567023E+03  0.00000000000E+00 0.  1.
         11    1    4    4    0    0  0.70378562935E+02  0.33808755062E+02  0.34279304874E+02  0.85271594228E+02  0.00000000000E+00 0. -1.
</event>
<event>
 8    1  0.7232317E-009  0.1384504E+03  0.7561462E-02  0.1215429E+00
          1   -1    0    0  501    0  0.00000000000E+00  0.00000000000E+00  0.76803982210E+03  0.76803982210E+03  0.00000000000E+00 0. -1.
         -1   -1    0    0    0  501 -0.00000000000E+00 -0.00000000000E+00 -0.33058525116E+02  0.33058525116E+02  0.00000000000E+00 0.  1.
         25    2    1    2    0    0 -0.11671412938E+03 -0.24200455787E+01  0.39147276119E+03  0.42723049137E+03  0.12508767078E+03 0.  0.
         23    2    1    2    0    0  0.11671412938E+03  0.24200455787E+01  0.34350853579E+03  0.37386785585E+03  0.90282971023E+02 0.  0.
          5    1    3    3  502    0  0.44733099830E+01  0.10002226443E+02 -0.47718378702E+01  0.12660879617E+02  0.41800000000E+01 0.  1.
         -5    1    3    3    0  502 -0.12118743936E+03 -0.12422272021E+02  0.39624459906E+03  0.41456961175E+03  0.41800000000E+01 0.  1.
        -11    1    4    4    0    0  0.12923663844E+03  0.81811851917E+01  0.27470347480E+03  0.30369563641E+03  0.00000000000E+00 0.  1.
         11    1    4    4    0    0 -0.12522509061E+02 -0.57611396129E+01  0.68805060997E+02  0.70172219444E+02  0.00000000000E+00 0. -1.
</event>
<event>
 8    1  0.7232317E-009  0.1616033E+03  0.7561462E-02  0.1186898E+00
         -3   -1    0    0    0  501 -0.00000000000E+00  0.00000000000E+00  0.27863002584E+02  0.27863002584E+02  0.00000000000E+00 0.  1.
          3   -1    0    0  501    0  0.00000000000E+00 -0.00000000000E+00 -0.12231491087E+04  0.12231491087E+04  0.00000000000E+00 0. -1.
         25    2    1    2    0    0  0.14007505713E+03 -0.15948954573E+02 -0.46835912720E+03  0.50486256415E+03  0.12510214174E+03 0.  0.
         23    2    1    2    0    0 -0.14007505713E+03  0.15948954573E+02 -0.72692697896E+03  0.74614954718E+03  0.91874497155E+02 0.  0.
          5    1    3    3  502    0  0.11113046753E+03  0.21535795270E+02 -0.42724946468E+03  0.44201057540E+03  0.41800000000E+01 0. -1.
         -5    1    3    3    0  502  0.28944589608E+02 -0.37484749842E+02 -0.41109662518E+02  0.62851988757E+02  0.41800000000E+01 0. -1.
        -11    1    4    4    0    0 -0.68920556362E+02  0.48365104303E+02 -0.27823417855E+03  0.29069483056E+03  0.00000000000E+00 0.  1.
         11    1    4    4    0    0 -0.71154500772E+02 -0.32416149731E+02 -0.44869280042E+03  0.45545471662E+03  0.00000000000E+00 0. -1.
</event>
<event>
 8    1  0.7232317E-009  0.1018857E+03  0.7561462E-02  0.1276380E+00
         -2   -1    0    0    0  501 -0.00000000000E+00  0.00000000000E+00  0.18777146157E+02  0.18777146157E+02  0.00000000000E+00 0.  1.
          2   -1    0    0  501    0  0.00000000000E+00 -0.00000000000E+00 -0.11302898447E+04  0.11302898447E+04  0.00000000000E+00 0. -1.
         25    2    1    2    0    0  0.27708939795E+01  0.59537858618E+02 -0.91463081762E+03  0.92506754102E+03  0.12509192003E+03 0.  0.
         23    2    1    2    0    0 -0.27708939795E+01 -0.59537858618E+02 -0.19688188096E+03  0.22399944987E+03  0.88661401009E+02 0.  0.
          5    1    3    3  502    0 -0.33425022710E+02  0.50553692671E+02 -0.83312921485E+03  0.83534104953E+03  0.41800000000E+01 0. -1.
         -5    1    3    3    0  502  0.36195916689E+02  0.89841659469E+01 -0.81501602764E+02  0.89726491494E+02  0.41800000000E+01 0. -1.
        -11    1    4    4    0    0  0.30393505657E+00 -0.82413371526E+02 -0.16712161775E+03  0.18633757351E+03  0.00000000000E+00 0. -1.
         11    1    4    4    0    0 -0.30748290361E+01  0.22875512908E+02 -0.29760263208E+02  0.37661876355E+02  0.00000000000E+00 0.  1.
</event>
<event>
 8    1  0.7232317E-009  0.1016968E+03  0.7561462E-02  0.1276768E+00
          2   -1    0    0  501    0  0.00000000000E+00  0.00000000000E+00  0.59769824669E+03  0.59769824669E+03  0.00000000000E+00 0. -1.
         -2   -1    0    0    0  501 -0.00000000000E+00 -0.00000000000E+00 -0.32644217959E+02  0.32644217959E+02  0.00000000000E+00 0.  1.
         25    2    1    2    0    0 -0.75114986076E+01  0.18832420055E+02  0.50095288077E+03  0.51673197065E+03  0.12508820120E+03 0.  0.
         23    2    1    2    0    0  0.75114986076E+01 -0.18832420055E+02  0.64101147957E+02  0.11361049400E+03  0.91582228192E+02 0.  0.
          5    1    3    3  502    0 -0.30369430005E+02  0.62343345781E+02  0.19903882260E+03  0.21081489592E+03  0.41800000000E+01 0.  1.
         -5    1    3    3    0  502  0.22857931397E+02 -0.43510925726E+02  0.30191405817E+03  0.30591707472E+03  0.41800000000E+01 0.  1.
        -11    1    4    4    0    0 -0.27567843473E+02 -0.36158555632E+02  0.95197898071E+01  0.46454854828E+02  0.00000000000E+00 0.  1.
         11    1    4    4    0    0  0.35079342081E+02  0.17326135577E+02  0.54581358150E+02  0.67155639170E+02  0.00000000000E+00 0. -1.
</event>
<event>
 8    1  0.7232317E-009  0.9425205E+02  0.7561462E-02  0.1292870E+00
          1   -1    0    0  501    0  0.00000000000E+00  0.00000000000E+00  0.88357636057E+01  0.88357636057E+01  0.00000000000E+00 0. -1.
         -1   -1    0    0    0  501 -0.00000000000E+00 -0.00000000000E+00 -0.12533264667E+04  0.12533264667E+04  0.00000000000E+00 0.  1.
         25    2    1    2    0    0 -0.14828992336E+02 -0.41753784089E+01 -0.95219065918E+03  0.96049481591E+03  0.12508360064E+03 0.  0.
         23    2    1    2    0    0  0.14828992336E+02  0.41753784089E+01 -0.29230004388E+03  0.30166741436E+03  0.72983425792E+02 0.  0.
          5    1    3    3  502    0 -0.26994971312E+02 -0.59003984001E+02 -0.37825580926E+03  0.38380350212E+03  0.41800000000E+01 0. -1.
         -5    1    3    3    0  502  0.12165978977E+02  0.54828605592E+02 -0.57393484993E+03  0.57669131379E+03  0.41800000000E+01 0. -1.
        -11    1    4    4    0    0 -0.82915813509E+01 -0.27061597804E+02 -0.62574576070E+02  0.68677929259E+02  0.00000000000E+00 0. -1.
         11    1    4    4    0    0  0.23120573686E+02  0.31236976213E+02 -0.22972546781E+03  0.23298948511E+03  0.00000000000E+00 0.  1.
</event>
<event>
 8    1  0.7232317E-009  0.1315639E+03  0.7561462E-02  0.1225153E+00
         -2   -1    0    0    0  501 -0.00000000000E+00  0.00000000000E+00  0.64593577650E+02  0.64593577650E+02  0.00000000000E+00 0.  1.
          2   -1    0    0  501    0  0.00000000000E+00 -0.00000000000E+00 -0.31068734245E+03  0.31068734245E+03  0.00000000000E+00 0. -1.
         25    2    1    2    0    0 -0.96171378163E+02 -0.26056940421E+02 -0.12354285967E+03  0.20208593884E+03  0.12509192771E+03 0.  0.
         23    2    1    2    0    0  0.96171378163E+02  0.26056940421E+02 -0.12255090513E+03  0.17319498126E+03  0.71062501117E+02 0.  0.
          5    1    3    3  502    0 -0.57709593383E+02  0.48744865810E+02 -0.61074439846E+02  0.97231778312E+02  0.41800000000E+01 0.  1.
         -5    1    3    3    0  502 -0.38461784780E+02 -0.74801806230E+02 -0.62468419823E+02  0.10485416052E+03  0.41800000000E+01 0.  1.
        -11    1    4    4    0    0  0.76190806624E+02  0.85094462017E+01 -0.12484405849E+03  0.14650422734E+03  0.00000000000E+00 0. -1.
         11    1    4    4    0    0  0.19980571538E+02  0.17547494219E+02  0.22931533651E+01  0.26690753918E+02  0.00000000000E+00 0.  1.
</event>
<event>
 8    1  0.7232317E-009  0.1083517E+03  0.7561462E-02  0.1263653E+00
         -2   -1    0    0    0  501 -0.00000000000E+00  0.00000000000E+00  0.32249714439E+03  0.32249714439E+03  0.00000000000E+00 0.  1.
          2   -1    0    0  501    0  0.00000000000E+00 -0.00000000000E+00 -0.78421101465E+02  0.78421101465E+02  0.00000000000E+00 0. -1.
         25    2    1    2    0    0 -0.41616021470E+02 -0.97241323856E+02  0.70848471536E+02  0.17847774463E+03  0.12508809336E+03 0.  0.
         23    2    1    2    0    0  0.41616021470E+02  0.97241323856E+02  0.17322757138E+03  0.22244050122E+03  0.91017672938E+02 0.  0.
          5    1    3    3  502    0 -0.32367937749E+02 -0.45102860814E+02 -0.30919017776E+02  0.63682097233E+02  0.41800000000E+01 0. -1.
         -5    1    3    3    0  502 -0.92480837215E+01 -0.52138463042E+02  0.10176748931E+03  0.11479564740E+03  0.41800000000E+01 0. -1.
        -11    1    4    4    0    0  0.25101599435E+02  0.32307637629E+02  0.14336039293E+03  0.14908412392E+03  0.00000000000E+00 0.  1.
         11    1    4    4    0    0  0.16514422036E+02  0.64933686227E+02  0.29867178456E+02  0.73356377304E+02  0.00000000000E+00 0. -1.
</event>
<event>
 8    1  0.7232317E-009  0.1360611E+03  0.7561462E-02  0.1218729E+00
          3   -1    0    0  501    0  0.00000000000E+00  0.00000000000E+00  0.48777237978E+03  0.48777237978E+03  0.00000000000E+00 0. -1.
         -3   -1    0    0    0  501 -0.00000000000E+00 -0.00000000000E+00 -0.62188675140E+02  0.62188675140E+02  0.00000000000E+00 0.  1.
         25    2    1    2    0    0  0.67463271250E+01 -0.12006361444E+03  0.12873798141E+03  0.21606031421E+03  0.12509119504E+03 0.  0.
         23    2    1    2    0    0 -0.67463271250E+01  0.12006361444E+03  0.29684572323E+03  0.33390074071E+03  0.94400936469E+02 0.  0.
          5    1    3    3  502    0 -0.24874299439E+02 -0.68348475908E+02 -0.93284196352E+00  0.72860054390E+02  0.41800000000E+01 0.  1.
         -5    1    3    3    0  502  0.31620626564E+02 -0.51715138532E+02  0.12967082337E+03  0.14320025982E+03  0.41800000000E+01 0.  1.
        -11    1    4    4    0    0 -0.37638012891E+02  0.57331435938E+02  0.76574191274E+02  0.10279649960E+03  0.00000000000E+00 0.  1.
         11    1    4    4    0    0  0.30891685766E+02  0.62732178502E+02  0.22027153196E+03  0.23110424111E+03  0.00000000000E+00 0. -1.
</event>
<event>
 8    1  0.7232317E-009  0.1106798E+03  0.7561462E-02  0.1259316E+00
         -2   -1    0    0    0  501 -0.00000000000E+00  0.00000000000E+00  0.13851597898E+02  0.13851597898E+02  0.00000000000E+00 0.  1.
          2   -1    0    0  501    0  0.00000000000E+00 -0.00000000000E+00 -0.96220778800E+03  0.96220778800E+03  0.00000000000E+00 0. -1.
         25    2    1    2    0    0 -0.10383744753E+02  0.39772799982E+02 -0.56744206097E+03  0.58251850788E+03  0.12509045403E+03 0.  0.
         23    2    1    2    0    0  0.10383744753E+02 -0.39772799982E+02 -0.38091412913E+03  0.39354087802E+03  0.89939708283E+02 0.  0.
          5    1    3    3  502    0 -0.36996935807E+02 -0.29967529952E+02 -0.12541169816E+03  0.13421025499E+03  0.41800000000E+01 0. -1.
         -5    1    3    3    0  502  0.26613191054E+02  0.69740329934E+02 -0.44203036282E+03  0.44830825289E+03  0.41800000000E+01 0. -1.
        -11    1    4    4    0    0 -0.37451343322E+02 -0.13984696875E+01 -0.15249988576E+03  0.15703749231E+03  0.00000000000E+00 0.  1.
         11    1    4    4    0    0  0.47835088075E+02 -0.38374330295E+02 -0.22841424337E+03  0.23650338570E+03  0.00000000000E+00 0. -1.
</event>
<event>
 8    1  0.7232317E-009  0.1670356E+03  0.7561462E-02  0.1180975E+00
          1   -1    0    0  501    0  0.00000000000E+00  0.00000000000E+00  0.36050158282E+03  0.36050158282E+03  0.00000000000E+00 0. -1.
         -1   -1    0    0    0  501 -0.00000000000E+00 -0.00000000000E+00 -0.90649801854E+02  0.90649801854E+02  0.00000000000E+00 0.  1.
         25    2    1    2    0    0 -0.89880125644E+02 -0.95782502234E+02  0.68484280789E+02  0.19388367201E+03  0.12509219334E+03 0.  0.
         23    2    1    2    0    0  0.89880125644E+02  0.95782502234E+02  0.20136750018E+03  0.25726771267E+03  0.91570088641E+02 0.  0.
          5    1    3    3  502    0 -0.11896886410E+03 -0.57301724563E+02  0.58289980431E+02  0.14440315953E+03  0.41800000000E+01 0. -1.
         -5    1    3    3    0  502  0.29088738457E+02 -0.38480777671E+02  0.10194300357E+02  0.49480512477E+02  0.41800000000E+01 0. -1.
        -11    1    4    4    0    0  0.41932513722E+02 -0.47054695684E+01  0.26069862137E+02  0.49599544986E+02  0.00000000000E+00 0.  1.
         11    1    4    4    0    0  0.47947611921E+02  0.10048797180E+03  0.17529763804E+03  0.20766816768E+03  0.00000000000E+00 0. -1.
</event>
<event>
 8    1  0.7232317E-009  0.9964634E+02  0.7561462E-02  0.1281041E+00
          2   -1    0    0  501    0  0.00000000000E+00  0.00000000000E+00  0.37030318666E+03  0.37030318666E+03  0.00000000000E+00 0.  1.
         -2   -1    0    0    0  501 -0.00000000000E+00 -0.00000000000E+00 -0.54340469714E+02  0.54340469714E+02  0.00000000000E+00 0. -1.
         25    2    1    2    0    0 -0.70551163336E+02 -0.54809131921E+02  0.14493124657E+03  0.21126494466E+03  0.12508518306E+03 0.  0.
         23    2    1    2    0    0  0.70551163336E+02  0.54809131921E+02  0.17103147038E+03  0.21337871171E+03  0.91088984857E+02 0.  0.
          5    1    3    3  502    0 -0.55138167598E+02 -0.23675121864E+02 -0.20397366194E+01  0.60186060237E+02  0.41800000000E+01 0. -1.
         -5    1    3    3    0  502 -0.15412995738E+02 -0.31134010057E+02  0.14697098319E+03  0.15107888442E+03  0.41800000000E+01 0. -1.
        -11    1    4    4    0    0  0.35624487195E+02  0.59053420754E+02  0.44572388616E+02  0.82116432080E+02  0.00000000000E+00 0. -1.
         11    1    4    4    0    0  0.34926676141E+02 -0.42442888331E+01  0.12645908176E+03  0.13126227963E+03  0.00000000000E+00 0.  1.
</event>
<event>
 8    1  0.7232317E-009  0.1197216E+03  0.7561462E-02  0.1243557E+00
          1   -1    0    0  501    0  0.00000000000E+00  0.00000000000E+00  0.33635290356E+03  0.33635290356E+03  0.00000000000E+00 0. -1.
         -1   -1    0    0    0  501 -0.00000000000E+00 -0.00000000000E+00 -0.62115331227E+02  0.62115331227E+02  0.00000000000E+00 0.  1.
         25    2    1    2    0    0  0.17354679080E+02  0.53290369574E+02  0.45428546270E+02  0.14437506489E+03  0.12505741949E+03 0.  0.
         23    2    1    2    0    0 -0.17354679080E+02 -0.53290369574E+02  0.22880902607E+03  0.25409316990E+03  0.95229828347E+02 0.  0.
          5    1    3    3  502    0 -0.45783261643E+02 -0.10533466408E+02  0.15215933431E+02  0.49558631856E+02  0.41800000000E+01 0.  1.
         -5    1    3    3    0  502  0.63137940723E+02  0.63823835982E+02  0.30212612840E+02  0.94816433031E+02  0.41800000000E+01 0.  1.
        -11    1    4    4    0    0 -0.27170749215E+02 -0.74355485405E+02  0.12690153552E+03  0.14956934024E+03  0.00000000000E+00 0.  1.
         11    1    4    4    0    0  0.98160701345E+01  0.21065115832E+02  0.10190749055E+03  0.10452382966E+03  0.00000000000E+00 0. -1.
</event>
<event>
 8    1  0.7232317E-009  0.9011032E+02  0.7561462E-02  0.1302585E+00
         -3   -1    0    0    0  501 -0.00000000000E+00  0.00000000000E+00  0.11944755034E+03  0.11944755034E+03  0.00000000000E+00 0.  1.
          3   -1    0    0  501    0  0.00000000000E+00 -0.00000000000E+00 -0.15670228773E+03  0.15670228773E+03  0.00000000000E+00 0. -1.
         25    2    1    2    0    0 -0.75799590205E+02 -0.47338428311E+00  0.14753607795E+02  0.14700682962E+03  0.12509011569E+03 0.  0.
         23    2    1    2    0    0  0.75799590205E+02  0.47338428311E+00 -0.52008345187E+02  0.12914300845E+03  0.90704171320E+02 0.  0.
          5    1    3    3  502    0 -0.42474685437E+02  0.21750074281E+02 -0.50956568906E+02  0.69937178588E+02  0.41800000000E+01 0. -1.
         -5    1    3    3    0  502 -0.33324904768E+02 -0.22223458564E+02  0.65710176701E+02  0.77069651033E+02  0.41800000000E+01 0. -1.
        -11    1    4    4    0    0  0.43566013784E+01 -0.17781206209E+02  0.19274410435E+02  0.26582967619E+02  0.00000000000E+00 0.  1.
         11    1    4    4    0    0  0.71442988826E+02  0.18254590492E+02 -0.71282755622E+02  0.10256004083E+03  0.00000000000E+00 0. -1.
</event>
<event>
 8    1  0.7232317E-009  0.8752883E+02  0.7561462E-02  0.1308949E+00
         -2   -1    0    0    0  501 -0.00000000000E+00  0.00000000000E+00  0.39339470246E+02  0.39339470246E+02  0.00000000000E+00 0. -1.
          2   -1    0    0  501    0  0.00000000000E+00 -0.00000000000E+00 -0.35035777882E+03  0.35035777882E+03  0.00000000000E+00 0.  1.
         25    2    1    2    0    0  0.22984041775E+02  0.16131805115E+02 -0.11766484177E+03  0.17404127582E+03  0.12512733269E+03 0.  0.
         23    2    1    2    0    0 -0.22984041775E+02 -0.16131805115E+02 -0.19335346680E+03  0.21565597325E+03  0.91287646271E+02 0.  0.
          5    1    3    3  502    0 -0.92437176097E+01 -0.33192181011E+02  0.76163414167E+01  0.35533762143E+02  0.41800000000E+01 0. -1.
         -5    1    3    3    0  502  0.32227759385E+02  0.49323986126E+02 -0.12528118319E+03  0.13850751367E+03  0.41800000000E+01 0. -1.
        -11    1    4    4    0    0  0.27405866876E+02 -0.14174439326E+02 -0.24397262147E+02  0.39334751425E+02  0.00000000000E+00 0. -1.
         11    1    4    4    0    0 -0.50389908651E+02 -0.19573657892E+01 -0.16895620465E+03  0.17632122182E+03  0.00000000000E+00 0.  1.
</event>
<event>
 8    1  0.7232317E-009  0.1124297E+03  0.7561462E-02  0.1256136E+00
         -1   -1    0    0    0  501 -0.00000000000E+00  0.00000000000E+00  0.27182051621E+02  0.27182051621E+02  0.00000000000E+00 0.  1.
          1   -1    0    0  501    0  0.00000000000E+00 -0.00000000000E+00 -0.63571898515E+03  0.63571898515E+03  0.00000000000E+00 0. -1.
         25    2    1    2    0    0 -0.50420921925E+02 -0.23644836314E+02 -0.46469157546E+03  0.48444546326E+03  0.12509116244E+03 0.  0.
         23    2    1    2    0    0  0.50420921925E+02  0.23644836314E+02 -0.14384535807E+03  0.17845557351E+03  0.89741612567E+02 0.  0.
          5    1    3    3  502    0  0.33157670476E+02 -0.92514727655E+01 -0.26764717247E+03  0.26988423850E+03  0.41800000000E+01 0. -1.
         -5    1    3    3    0  502 -0.83578592401E+02 -0.14393363549E+02 -0.19704440299E+03  0.21456122476E+03  0.41800000000E+01 0. -1.
        -11    1    4    4    0    0  0.44660241699E+02  0.56440521101E+02 -0.91454863592E+02  0.11637895723E+03  0.00000000000E+00 0.  1.
         11    1    4    4    0    0  0.57606802258E+01 -0.32795684787E+02 -0.52390494480E+02  0.62076616283E+02  0.00000000000E+00 0. -1.
</event>
<event>
 8    1  0.7232317E-009  0.1589555E+03  0.7561462E-02  0.1189881E+00
          3   -1    0    0  501    0  0.00000000000E+00  0.00000000000E+00  0.48176053966E+03  0.48176053966E+03  0.00000000000E+00 0. -1.
         -3   -1    0    0    0  501 -0.00000000000E+00 -0.00000000000E+00 -0.73191157802E+02  0.73191157802E+02  0.00000000000E+00 0.  1.
         25    2    1    2    0    0 -0.13000717031E+03  0.50799321315E+01  0.99900399230E+02  0.20628941841E+03  0.12509022479E+03 0.  0.
         23    2    1    2    0    0  0.13000717031E+03 -0.50799321315E+01  0.30866898263E+03  0.34866227905E+03  0.96753159925E+02 0.  0.
          5    1    3    3  502    0 -0.89438930465E+02 -0.39847787886E+02  0.10948300998E+02  0.98612910802E+02  0.41800000000E+01 0. -1.
         -5    1    3    3    0  502 -0.40568239847E+02  0.44927720017E+02  0.88952098232E+02  0.10767650761E+03  0.41800000000E+01 0. -1.
        -11    1    4    4    0    0  0.65784805077E+02 -0.48479849025E+02  0.12540906501E+03  0.14968423406E+03  0.00000000000E+00 0.  1.
         11    1    4    4    0    0  0.64222365235E+02  0.43399916894E+02  0.18325991762E+03  0.19897804499E+03  0.00000000000E+00 0. -1.
</event>
<event>
 8    1  0.7232317E-009  0.1140386E+03  0.7561462E-02  0.1253269E+00
          2   -1    0    0  501    0  0.00000000000E+00  0.00000000000E+00  0.40420623065E+02  0.40420623065E+02  0.00000000000E+00 0. -1.
         -2   -1    0    0    0  501 -0.00000000000E+00 -0.00000000000E+00 -0.48588876868E+03  0.48588876868E+03  0.00000000000E+00 0.  1.
         25    2    1    2    0    0 -0.47501590602E+02  0.69657661153E+02 -0.28914795692E+03  0.32613273386E+03  0.12508968077E+03 0.  0.
         23    2    1    2    0    0  0.47501590602E+02 -0.69657661153E+02 -0.15632018870E+03  0.20017665789E+03  0.92336894586E+02 0.  0.
          5    1    3    3  502    0 -0.14092800000E+02  0.68262926181E+02 -0.53184697153E+02  0.87775386720E+02  0.41800000000E+01 0.  1.
         -5    1    3    3    0  502 -0.33408790603E+02  0.13947349723E+01 -0.23596325977E+03  0.23835734714E+03  0.41800000000E+01 0.  1.
        -11    1    4    4    0    0  0.49035241824E+02  0.55317212963E+01 -0.70697564842E+02  0.86216011018E+02  0.00000000000E+00 0.  1.
         11    1    4    4    0    0 -0.15336512215E+01 -0.75189382449E+02 -0.85622623856E+02  0.11396064687E+03  0.00000000000E+00 0. -1.
</event>
<event>
 8    1  0.7232317E-009  0.1074255E+03  0.7561462E-02  0.1265413E+00
         -1   -1    0    0    0  501 -0.00000000000E+00  0.00000000000E+00  0.10561571366E+03  0.10561571366E+03  0.00000000000E+00 0.  1.
          1   -1    0    0  501    0  0.00000000000E+00 -0.00000000000E+00 -0.11728820253E+03  0.11728820253E+03  0.00000000000E+00 0. -1.
         25    2    1    2    0    0 -0.73557181610E+01  0.27518012515E+02 -0.16550381322E+02  0.12936636890E+03  0.12510153747E+03 0.  0.
         23    2    1    2    0    0  0.73557181610E+01 -0.27518012515E+02  0.48778924512E+01  0.93537547294E+02  0.88961403521E+02 0.  0.
          5    1    3    3  502    0 -0.58541080816E+02  0.44553646172E+02 -0.15228329188E+02  0.75242673664E+02  0.41800000000E+01 0. -1.
         -5    1    3    3    0  502  0.51185362655E+02 -0.17035633657E+02 -0.13220521341E+01  0.54123695236E+02  0.41800000000E+01 0. -1.
        -11    1    4    4    0    0 -0.36618513089E+02 -0.22050555371E+02 -0.14549143798E+02  0.45153295320E+02  0.00000000000E+00 0.  1.
         11    1    4    4    0    0  0.43974231250E+02 -0.54674571444E+01  0.19427036249E+02  0.48384251974E+02  0.00000000000E+00 0. -1.
</event>
<event>
 8    1  0.7232317E-009  0.1004545E+03  0.7561462E-02  0.1279343E+00
          4   -1    0    0  501    0  0.00000000000E+00  0.00000000000E+00  0.70803713325E+03  0.70803713325E+03  0.00000000000E+00 0. -1.
         -4   -1    0    0    0  501 -0.00000000000E+00 -0.00000000000E+00 -0.20684817099E+02  0.20684817099E+02  0.00000000000E+00 0.  1.
         25    2    1    2    0    0 -0.16221799933E+02  0.45170868392E+02  0.45470553257E+03  0.47403498520E+03  0.12509393149E+03 0.  0.
         23    2    1    2    0    0  0.16221799933E+02 -0.45170868392E+02  0.23264678358E+03  0.25468696515E+03  0.91855158614E+02 0.  0.
          5    1    3    3  502    0  0.88987960193E+01  0.76551519227E+02  0.17287131940E+03  0.18931795778E+03  0.41800000000E+01 0. -1.
         -5    1    3    3    0  502 -0.25120595953E+02 -0.31380650835E+02  0.28183421317E+03  0.28471702742E+03  0.41800000000E+01 0. -1.
        -11    1    4    4    0    0 -0.21427931118E+02 -0.39911186721E+02  0.19844794553E+03  0.20355256359E+03  0.00000000000E+00 0. -1.
         11    1    4    4    0    0  0.37649731051E+02 -0.52596816714E+01  0.34198838049E+02  0.51134401565E+02  0.00000000000E+00 0.  1.
</event>
<event>
 8    1  0.7232317E-009  0.2361981E+03  0.7561462E-02  0.1122352E+00
          2   -1    0    0  501    0  0.00000000000E+00  0.00000000000E+00  0.63488130304E+02  0.63488130304E+02  0.00000000000E+00 0. -1.
         -2   -1    0    0    0  501 -0.00000000000E+00 -0.00000000000E+00 -0.10667999537E+04  0.10667999537E+04  0.00000000000E+00 0.  1.
         25    2    1    2    0    0  0.66076444240E+02  0.22373728661E+03 -0.43396665573E+03  0.50832952727E+03  0.12508948838E+03 0.  0.
         23    2    1    2    0    0 -0.66076444240E+02 -0.22373728661E+03 -0.56934516765E+03  0.62195855672E+03  0.90851837878E+02 0.  0.
          5    1    3    3  502    0  0.59423124880E+02  0.12219306128E+03 -0.35283572093E+03  0.37811740288E+03  0.41800000000E+01 0.  1.
         -5    1    3    3    0  502  0.66533193600E+01  0.10154422533E+03 -0.81130934800E+02  0.13021212439E+03  0.41800000000E+01 0.  1.
        -11    1    4    4    0    0 -0.11863539388E+02 -0.82055010082E+02 -0.10699602371E+03  0.13535847715E+03  0.00000000000E+00 0. -1.
         11    1    4    4    0    0 -0.54212904853E+02 -0.14168227653E+03 -0.46234914395E+03  0.48660007958E+03  0.00000000000E+00 0.  1.
</event>
<event>
 8    1  0.7232317E-009  0.1091559E+03  0.7561462E-02  0.1262141E+00
          1   -1    0    0  501    0  0.00000000000E+00  0.00000000000E+00  0.24641815090E+03  0.24641815090E+03  0.00000000000E+00 0. -1.
         -1   -1    0    0    0  501 -0.00000000000E+00 -0.00000000000E+00 -0.91368712588E+02  0.91368712588E+02  0.00000000000E+00 0.  1.
         25    2    1    2    0    0 -0.62358673865E+02  0.74458517693E+01  0.17418185265E+03  0.22345189918E+03  0.12508952210E+03 0.  0.
         23    2    1    2    0    0  0.62358673865E+02 -0.74458517693E+01 -0.19132414337E+02  0.11433496431E+03  0.93607637885E+02 0.  0.
          5    1    3    3  502    0 -0.67654048922E+02  0.41650294202E+02  0.48840947190E+02  0.93352706790E+02  0.41800000000E+01 0. -1.
         -5    1    3    3    0  502  0.52953750579E+01 -0.34204442432E+02  0.12534090546E+03  0.13009919239E+03  0.41800000000E+01 0. -1.
        -11    1    4    4    0    0 -0.74127926551E+01  0.25627553488E+02 -0.25441178274E+02  0.36864271927E+02  0.00000000000E+00 0.  1.
         11    1    4    4    0    0  0.69771466520E+02 -0.33073405257E+02  0.63087639376E+01  0.77470692381E+02  0.00000000000E+00 0. -1.
</event>
<event>
 8    1  0.7232317E-009  0.1200811E+03  0.7561462E-02  0.1242963E+00
         -1   -1    0    0    0  501 -0.00000000000E+00  0.00000000000E+00  0.15715018584E+03  0.15715018584E+03  0.00000000000E+00 0.  1.
          1   -1    0    0  501    0  0.00000000000E+00 -0.00000000000E+00 -0.14122260298E+03  0.14122260298E+03  0.00000000000E+00 0. -1.
         25    2    1    2    0    0  0.55641390947E+02 -0.26317047261E+02 -0.72328153284E+02  0.15706355534E+03  0.12509615220E+03 0.  0.
         23    2    1    2    0    0 -0.55641390947E+02  0.26317047261E+02  0.88255736151E+02  0.14130923348E+03  0.91600617578E+02 0.  0.
          5    1    3    3  502    0  0.81069008640E+02 -0.51892898494E+02 -0.29169554311E+02  0.10066475239E+03  0.41800000000E+01 0.  1.
         -5    1    3    3    0  502 -0.25427617693E+02  0.25575851233E+02 -0.43158598973E+02  0.56398802941E+02  0.41800000000E+01 0.  1.
        -11    1    4    4    0    0 -0.76005612788E+02  0.23260027656E+01  0.76083851177E+02  0.10756865656E+03  0.00000000000E+00 0.  1.
         11    1    4    4    0    0  0.20364221841E+02  0.23991044495E+02  0.12171884973E+02  0.33740576921E+02  0.00000000000E+00 0. -1.
</event>
<event>
 8    1  0.7232317E-009  0.1009460E+03  0.7561462E-02  0.1278319E+00
          2   -1    0    0  501    0  0.00000000000E+00  0.00000000000E+00  0.14694412178E+03  0.14694412178E+03  0.00000000000E+00 0. -1.
         -2   -1    0    0    0  501 -0.00000000000E+00 -0.00000000000E+00 -0.85622061916E+02  0.85622061916E+02  0.00000000000E+00 0.  1.
         25    2    1    2    0    0  0.11730192347E+02 -0.62876744845E+01  0.58591040813E+01  0.12593247320E+03  0.12509007332E+03 0.  0.
         23    2    1    2    0    0 -0.11730192347E+02  0.62876744845E+01  0.55462955784E+02  0.10663371049E+03  0.90097039277E+02 0.  0.
          5    1    3    3  502    0  0.49277529489E+02  0.41156804276E+02 -0.41051239476E+01  0.64470783254E+02  0.41800000000E+01 0. -1.
         -5    1    3    3    0  502 -0.37547337142E+02 -0.47444478760E+02  0.99642280289E+01  0.61461689950E+02  0.41800000000E+01 0. -1.
        -11    1    4    4    0    0  0.32274541320E+02 -0.10473187575E+01 -0.37363270860E+01  0.32506969008E+02  0.00000000000E+00 0.  1.
         11    1    4    4    0    0 -0.44004733667E+02  0.73349932420E+01  0.59199282870E+02  0.74126741486E+02  0.00000000000E+00 0. -1.
</event>
<event>
 8    1  0.7232317E-009  0.1227823E+03  0.7561462E-02  0.1238577E+00
         -1   -1    0    0    0  501 -0.00000000000E+00  0.00000000000E+00  0.23540522867E+02  0.23540522867E+02  0.00000000000E+00 0.  1.
          1   -1    0    0  501    0  0.00000000000E+00 -0.00000000000E+00 -0.65581102675E+03  0.65581102675E+03  0.00000000000E+00 0. -1.
         25    2    1    2    0    0  0.30870284153E+02 -0.49180558059E+02 -0.40442197424E+03  0.42728939650E+03  0.12508954142E+03 0.  0.
         23    2    1    2    0    0 -0.30870284153E+02  0.49180558059E+02 -0.22784852964E+03  0.25206215312E+03  0.90822215573E+02 0.  0.
          5    1    3    3  502    0 -0.47670647482E+01  0.40650680204E+02 -0.12514389358E+03  0.13173332611E+03  0.41800000000E+01 0. -1.
         -5    1    3    3    0  502  0.35637348901E+02 -0.89831238263E+02 -0.27927808067E+03  0.29555607039E+03  0.41800000000E+01 0. -1.
        -11    1    4    4    0    0  0.31538588257E+02  0.26806680736E+02 -0.93111285931E+02  0.10189696879E+03  0.00000000000E+00 0. -1.
         11    1    4    4    0    0 -0.62408872409E+02  0.22373877324E+02 -0.13473724371E+03  0.15016518433E+03  0.00000000000E+00 0.  1.
</event>
<event>
 8    1  0.7232317E-009  0.1080955E+03  0.7561462E-02  0.1264138E+00
          1   -1    0    0  501    0  0.00000000000E+00  0.00000000000E+00  0.56207860065E+03  0.56207860065E+03  0.00000000000E+00 0. -1.
         -1   -1    0    0    0  501 -0.00000000000E+00 -0.00000000000E+00 -0.28330821617E+02  0.28330821617E+02  0.00000000000E+00 0.  1.
         25    2    1    2    0    0 -0.48555607877E+02 -0.13425830344E+02  0.37813869887E+03  0.40146588398E+03  0.12509228769E+03 0.  0.
         23    2    1    2    0    0  0.48555607877E+02  0.13425830344E+02  0.15560908016E+03  0.18894353829E+03  0.94591621483E+02 0.  0.
          5    1    3    3  502    0  0.71559993934E+01  0.47088038888E+02  0.91621932346E+02  0.10334671074E+03  0.41800000000E+01 0. -1.
         -5    1    3    3    0  502 -0.55711607270E+02 -0.60513869232E+02  0.28651676652E+03  0.29811917324E+03  0.41800000000E+01 0. -1.
        -11    1    4    4    0    0 -0.17592997859E+02 -0.30357757165E+01 -0.12666555814E+01  0.17897874852E+02  0.00000000000E+00 0.  1.
         11    1    4    4    0    0  0.66148605735E+02  0.16461606060E+02  0.15687573574E+03  0.17104566344E+03  0.00000000000E+00 0. -1.
</event>
<event>
 8    1  0.7232317E-009  0.8808217E+02  0.7561462E-02  0.1307564E+00
         -1   -1    0    0    0  501 -0.00000000000E+00  0.00000000000E+00  0.33912693110E+02  0.33912693110E+02  0.00000000000E+00 0.  1.
          1   -1    0    0  501    0  0.00000000000E+00 -0.00000000000E+00 -0.38502485357E+03  0.38502485357E+03  0.00000000000E+00 0. -1.
         25    2    1    2    0    0  0.13866409481E+02 -0.14329880366E+01 -0.28273155267E+03  0.30948380950E+03  0.12509503070E+03 0.  0.
         23    2    1    2    0    0 -0.13866409481E+02  0.14329880366E+01 -0.68380607792E+02  0.10945373717E+03  0.84320117959E+02 0.  0.
          5    1    3    3  502    0  0.21448505402E+02  0.58541299726E+02 -0.11106543802E+03  0.12743675325E+03  0.41800000000E+01 0.  1.
         -5    1    3    3    0  502 -0.75820959216E+01 -0.59974287762E+02 -0.17166611465E+03  0.18204705625E+03  0.41800000000E+01 0.  1.
        -11    1    4    4    0    0  0.16467536779E+02 -0.11520834945E+02 -0.73389431341E+02  0.76091510946E+02  0.00000000000E+00 0. -1.
         11    1    4    4    0    0 -0.30333946260E+02  0.12953822981E+02  0.50088235496E+01  0.33362226228E+02  0.00000000000E+00 0.  1.
</event>
<event>
 8    1  0.7232317E-009  0.1819674E+03  0.7561462E-02  0.1165912E+00
          1   -1    0    0  501    0  0.00000000000E+00  0.00000000000E+00  0.53417184955E+03  0.53417184955E+03  0.00000000000E+00 0. -1.
         -1   -1    0    0    0  501 -0.00000000000E+00 -0.00000000000E+00 -0.11871000058E+03  0.11871000058E+03  0.00000000000E+00 0.  1.
         25    2    1    2    0    0 -0.46029630969E+02 -0.15613788338E+03  0.96034157567E+01  0.20551830946E+03  0.12509110430E+03 0.  0.
         23    2    1    2    0    0  0.46029630969E+02  0.15613788338E+03  0.40585843322E+03  0.44736354068E+03  0.94420888372E+02 0.  0.
          5    1    3    3  502    0  0.17742463576E+02 -0.67526851788E+02  0.53211002761E+02  0.87883752429E+02  0.41800000000E+01 0. -1.
         -5    1    3    3    0  502 -0.63772094546E+02 -0.88611031595E+02 -0.43607587004E+02  0.11763455703E+03  0.41800000000E+01 0. -1.
        -11    1    4    4    0    0 -0.25821194875E+02  0.30096754853E+02  0.12661755015E+03  0.13268214937E+03  0.00000000000E+00 0.  1.
         11    1    4    4    0    0  0.71850825844E+02  0.12604112853E+03  0.27924088307E+03  0.31468139131E+03  0.00000000000E+00 0. -1.
</event>
<event>
 8    1  0.7232317E-009  0.1985418E+03  0.7561462E-02  0.1150975E+00
          1   -1    0    0  501    0  0.00000000000E+00  0.00000000000E+00  0.48279990141E+03  0.48279990141E+03  0.00000000000E+00 0. -1.
         -1   -1    0    0    0  501 -0.00000000000E+00 -0.00000000000E+00 -0.95372996279E+02  0.95372996279E+02  0.00000000000E+00 0.  1.
         25    2    1    2    0    0 -0.47793370636E+02 -0.17887071513E+03  0.21740530416E+03  0.31175494002E+03  0.12508851803E+03 0.  0.
         23    2    1    2    0    0  0.47793370636E+02  0.17887071513E+03  0.17002160096E+03  0.26641795766E+03  0.88273690089E+02 0.  0.
          5    1    3    3  502    0  0.13048806017E+02 -0.13705662789E+03  0.18592783896E+03  0.23139019920E+03  0.41800000000E+01 0. -1.
         -5    1    3    3    0  502 -0.60842176654E+02 -0.41814087245E+02  0.31477465208E+02  0.80364740826E+02  0.41800000000E+01 0. -1.
        -11    1    4    4    0    0  0.23742662382E+02  0.70430142001E+02  0.15183888814E+02  0.75859537296E+02  0.00000000000E+00 0.  1.
         11    1    4    4    0    0  0.24050708254E+02  0.10844057313E+03  0.15483771215E+03  0.19055842036E+03  0.00000000000E+00 0. -1.
</event>
<event>
 8    1  0.7232317E-009  0.1065716E+03  0.7561462E-02  0.1267054E+00
         -1   -1    0    0    0  501 -0.00000000000E+00  0.00000000000E+00  0.56474867193E+03  0.56474867193E+03  0.00000000000E+00 0.  1.
          1   -1    0    0  501    0  0.00000000000E+00 -0.00000000000E+00 -0.33180927644E+02  0.33180927644E+02  0.00000000000E+00 0. -1.
         25    2    1    2    0    0 -0.78202105863E+02  0.25660768013E+02  0.29334122226E+03  0.32934946955E+03  0.12509179045E+03 0.  0.
         23    2    1    2    0    0  0.78202105863E+02 -0.25660768013E+02  0.23822652202E+03  0.26858013003E+03  0.92786669695E+02 0.  0.
          5    1    3    3  502    0 -0.34291425866E+02 -0.56850263989E+01  0.42842679870E+01  0.35271075477E+02  0.41800000000E+01 0.  1.
         -5    1    3    3    0  502 -0.43910679997E+02  0.31345794411E+02  0.28905695427E+03  0.29407839407E+03  0.41800000000E+01 0.  1.
        -11    1    4    4    0    0  0.60993384571E+02 -0.60032959577E+02  0.16286752413E+03  0.18398363952E+03  0.00000000000E+00 0.  1.
         11    1    4    4    0    0  0.17208721292E+02  0.34372191564E+02  0.75358997897E+02  0.84596490503E+02  0.00000000000E+00 0. -1.
</event>
<event>
 8    1  0.7232317E-009  0.1088524E+03  0.7561462E-02  0.1262710E+00
          1   -1    0    0  501    0  0.00000000000E+00  0.00000000000E+00  0.56678878266E+03  0.56678878266E+03  0.00000000000E+00 0. -1.
         -1   -1    0    0    0  501 -0.00000000000E+00 -0.00000000000E+00 -0.43871403523E+02  0.43871403523E+02  0.00000000000E+00 0.  1.
         25    2    1    2    0    0 -0.45455733764E+02  0.20476596132E+02  0.47935563583E+03  0.49791009893E+03  0.12508847385E+03 0.  0.
         23    2    1    2    0    0  0.45455733764E+02 -0.20476596132E+02  0.43561743305E+02  0.11275008725E+03  0.91265776579E+02 0.  0.
          5    1    3    3  502    0 -0.84909306248E+02  0.85708740832E+01  0.39237032229E+03  0.40156567631E+03  0.41800000000E+01 0.  1.
         -5    1    3    3    0  502  0.39453572484E+02  0.11905722048E+02  0.86985313536E+02  0.96344422621E+02  0.41800000000E+01 0.  1.
        -11    1    4    4    0    0  0.12311936975E+02 -0.46876570494E+02  0.50293410119E+02  0.69845713932E+02  0.00000000000E+00 0. -1.
         11    1    4    4    0    0  0.33143796790E+02  0.26399974362E+02 -0.67316668143E+01  0.42904373321E+02  0.00000000000E+00 0.  1.
</event>
<event>
 8    1  0.7232317E-009  0.1250094E+03  0.7561462E-02  0.1235055E+00
          1   -1    0    0  501    0  0.00000000000E+00  0.00000000000E+00  0.54114515201E+02  0.54114515201E+02  0.00000000000E+00 0. -1.
         -1   -1    0    0    0  501 -0.00000000000E+00 -0.00000000000E+00 -0.38588026322E+03  0.38588026322E+03  0.00000000000E+00 0.  1.
         25    2    1    2    0    0 -0.71263965244E+02  0.61942978087E+02 -0.15975800557E+03  0.22379817184E+03  0.12509003198E+03 0.  0.
         23    2    1    2    0    0  0.71263965244E+02 -0.61942978087E+02 -0.17200774245E+03  0.21619660658E+03  0.90767967681E+02 0.  0.
          5    1    3    3  502    0  0.91358363069E+01 -0.82752171469E+01 -0.10108246194E+03  0.10191702133E+03  0.41800000000E+01 0.  1.
         -5    1    3    3    0  502 -0.80399801551E+02  0.70218195234E+02 -0.58675543629E+02  0.12188115052E+03  0.41800000000E+01 0.  1.
        -11    1    4    4    0    0  0.19464194876E+02 -0.74395424965E+02 -0.89692023512E+02  0.11814479768E+03  0.00000000000E+00 0.  1.
         11    1    4    4    0    0  0.51799770368E+02  0.12452446878E+02 -0.82315718936E+02  0.98051808895E+02  0.00000000000E+00 0. -1.
</event>
<event>
 8    1  0.7232317E-009  0.1912608E+03  0.7561462E-02  0.1157329E+00
          1   -1    0    0  501    0  0.00000000000E+00  0.00000000000E+00  0.51435056100E+03  0.51435056100E+03  0.00000000000E+00 0. -1.
         -1   -1    0    0    0  501 -0.00000000000E+00 -0.00000000000E+00 -0.77383958235E+02  0.77383958235E+02  0.00000000000E+00 0.  1.
         25    2    1    2    0    0 -0.16385728914E+03  0.11707138344E+01  0.18478621406E+03  0.27685016193E+03  0.12509790357E+03 0.  0.
         23    2    1    2    0    0  0.16385728914E+03 -0.11707138344E+01  0.25218038871E+03  0.31488435731E+03  0.93309314948E+02 0.  0.
          5    1    3    3  502    0 -0.97683704430E+02  0.60422615668E+02  0.83484247157E+02  0.14205664546E+03  0.41800000000E+01 0. -1.
         -5    1    3    3    0  502 -0.66173584706E+02 -0.59251901834E+02  0.10130196690E+03  0.13479351647E+03  0.41800000000E+01 0. -1.
        -11    1    4    4    0    0  0.94830620080E+02 -0.35890994887E+02  0.19131649282E+03  0.21652484948E+03  0.00000000000E+00 0. -1.
         11    1    4    4    0    0  0.69026669056E+02  0.34720281053E+02  0.60863895889E+02  0.98359507828E+02  0.00000000000E+00 0.  1.
</event>
<event>
 8    1  0.7232317E-009  0.1143645E+03  0.7561462E-02  0.1252694E+00
         -1   -1    0    0    0  501 -0.00000000000E+00  0.00000000000E+00  0.51372870742E+02  0.51372870742E+02  0.00000000000E+00 0.  1.
          1   -1    0    0  501    0  0.00000000000E+00 -0.00000000000E+00 -0.25830516732E+03  0.25830516732E+03  0.00000000000E+00 0. -1.
         25    2    1    2    0    0  0.20858411253E+02 -0.30476529484E+02 -0.11475614061E+03  0.17372362512E+03  0.12508810474E+03 0.  0.
         23    2    1    2    0    0 -0.20858411253E+02  0.30476529484E+02 -0.92176155966E+02  0.13595441294E+03  0.92861544782E+02 0.  0.
          5    1    3    3  502    0  0.57852250497E+02 -0.58944569600E+02 -0.82626281924E+02  0.11690132607E+03  0.41800000000E+01 0. -1.
         -5    1    3    3    0  502 -0.36993839245E+02  0.28468040116E+02 -0.32129858688E+02  0.56822299051E+02  0.41800000000E+01 0. -1.
        -11    1    4    4    0    0 -0.37833976027E+02  0.56558379959E+02 -0.70813129699E+02  0.98207736066E+02  0.00000000000E+00 0.  1.
         11    1    4    4    0    0  0.16975564774E+02 -0.26081850475E+02 -0.21363026267E+02  0.37746676872E+02  0.00000000000E+00 0. -1.
</event>
<event>
 8    1  0.7232317E-009  0.9618578E+02  0.7561462E-02  0.1288528E+00
          2   -1    0    0  501    0  0.00000000000E+00  0.00000000000E+00  0.55761449091E+03  0.55761449091E+03  0.00000000000E+00 0. -1.
         -2   -1    0    0    0  501 -0.00000000000E+00 -0.00000000000E+00 -0.21376379631E+02  0.21376379631E+02  0.00000000000E+00 0.  1.
         25    2    1    2    0    0  0.48384733202E+01  0.69042650671E+01  0.26632090696E+03  0.29435725771E+03  0.12509312523E+03 0.  0.
         23    2    1    2    0    0 -0.48384733202E+01 -0.69042650671E+01  0.26991720432E+03  0.28463361284E+03  0.89943964048E+02 0.  0.
          5    1    3    3  502    0  0.36387004890E+02 -0.36937953255E+02  0.52990845364E+02  0.74255832148E+02  0.41800000000E+01 0.  1.
         -5    1    3    3    0  502 -0.31548531570E+02  0.43842218322E+02  0.21333006160E+03  0.22010142556E+03  0.41800000000E+01 0.  1.
        -11    1    4    4    0    0 -0.31237306715E+01  0.39559671587E+02  0.82682012370E+02  0.91711724871E+02  0.00000000000E+00 0.  1.
         11    1    4    4    0    0 -0.17147426487E+01 -0.46463936654E+02  0.18723519195E+03  0.19292188797E+03  0.00000000000E+00 0. -1.
</event>
<event>
 8    1  0.7232317E-009  0.9717327E+02  0.7561462E-02  0.1286355E+00
          1   -1    0    0  501    0  0.00000000000E+00  0.00000000000E+00  0.27970766281E+03  0.27970766281E+03  0.00000000000E+00 0. -1.
         -1   -1    0    0    0  501 -0.00000000000E+00 -0.00000000000E+00 -0.86459714909E+02  0.86459714909E+02  0.00000000000E+00 0.  1.
         25    2    1    2    0    0  0.20216167608E+02  0.61617211819E+01 -0.23603939143E+02  0.12904169002E+03  0.12509177263E+03 0.  0.
         23    2    1    2    0    0 -0.20216167608E+02 -0.61617211819E+01  0.21685188704E+03  0.23712568770E+03  0.93579862214E+02 0.  0.
          5    1    3    3  502    0  0.59607850025E+02  0.19182416774E+02  0.22693389273E+02  0.66734722706E+02  0.41800000000E+01 0.  1.
         -5    1    3    3    0  502 -0.39391682417E+02 -0.13020695593E+02 -0.46297328416E+02  0.62306967314E+02  0.41800000000E+01 0.  1.
        -11    1    4    4    0    0 -0.32003052941E+02  0.34793382575E+02  0.15473095228E+03  0.16179135472E+03  0.00000000000E+00 0.  1.
         11    1    4    4    0    0  0.11786885333E+02 -0.40955103757E+02  0.62120934761E+02  0.75334332978E+02  0.00000000000E+00 0. -1.
</event>
<event>
 8    1  0.7232317E-009  0.1023248E+03  0.7561462E-02  0.1275482E+00
         -1   -1    0    0    0  501 -0.00000000000E+00  0.00000000000E+00  0.86080346550E+02  0.86080346550E+02  0.00000000000E+00 0.  1.
          1   -1    0    0  501    0  0.00000000000E+00 -0.00000000000E+00 -0.14231218319E+03  0.14231218319E+03  0.00000000000E+00 0. -1.
         25    2    1    2    0    0  0.13850896366E+02 -0.22108078215E+02 -0.38513739953E+02  0.13345294182E+03  0.12508303267E+03 0.  0.
         23    2    1    2    0    0 -0.13850896366E+02  0.22108078215E+02 -0.17718096687E+02  0.94939587924E+02  0.89548757403E+02 0.  0.
          5    1    3    3  502    0  0.57095731111E+02  0.26046837822E+02 -0.20196381432E+02  0.66058508116E+02  0.41800000000E+01 0.  1.
         -5    1    3    3    0  502 -0.43244834745E+02 -0.48154916038E+02 -0.18317358521E+02  0.67394433701E+02  0.41800000000E+01 0.  1.
        -11    1    4    4    0    0 -0.42236599344E+02  0.23312843439E+01  0.17311387069E+02  0.45706119209E+02  0.00000000000E+00 0.  1.
         11    1    4    4    0    0  0.28385702979E+02  0.19776793871E+02 -0.35029483757E+02  0.49233468715E+02  0.00000000000E+00 0. -1.
</event>
<event>
 8    1  0.7232317E-009  0.1130710E+03  0.7561462E-02  0.1254986E+00
         -1   -1    0    0    0  501 -0.00000000000E+00  0.00000000000E+00  0.10562376725E+03  0.10562376725E+03  0.00000000000E+00 0.  1.
          1   -1    0    0  501    0  0.00000000000E+00 -0.00000000000E+00 -0.18162054357E+03  0.18162054357E+03  0.00000000000E+00 0. -1.
         25    2    1    2    0    0 -0.82739669874E+02 -0.18592307861E+02 -0.22406338498E+02  0.15277867529E+03  0.12509097784E+03 0.  0.
         23    2    1    2    0    0  0.82739669874E+02  0.18592307861E+02 -0.53590437814E+02  0.13446563553E+03  0.89540746205E+02 0.  0.
          5    1    3    3  502    0 -0.25405076273E+02  0.22049232005E+02 -0.62979109003E+02  0.71522214055E+02  0.41800000000E+01 0. -1.
         -5    1    3    3    0  502 -0.57334593602E+02 -0.40641539866E+02  0.40572770505E+02  0.81256461236E+02  0.41800000000E+01 0. -1.
        -11    1    4    4    0    0 -0.26846597671E+01 -0.25547290643E+02 -0.20199914932E+02  0.32678861983E+02  0.00000000000E+00 0.  1.
         11    1    4    4    0    0  0.85424329642E+02  0.44139598504E+02 -0.33390522882E+02  0.10178677355E+03  0.00000000000E+00 0. -1.
</event>
<event>
 8    1  0.7232317E-009  0.9176156E+02  0.7561462E-02  0.1298641E+00
          3   -1    0    0  501    0  0.00000000000E+00  0.00000000000E+00  0.25291801597E+03  0.25291801597E+03  0.00000000000E+00 0. -1.
         -3   -1    0    0    0  501 -0.00000000000E+00 -0.00000000000E+00 -0.69975261980E+02  0.69975261980E+02  0.00000000000E+00 0.  1.
         25    2    1    2    0    0  0.43080190899E+02 -0.20855265627E+02  0.17734403690E+03  0.22223742536E+03  0.12509085040E+03 0.  0.
         23    2    1    2    0    0 -0.43080190899E+02  0.20855265627E+02  0.55987170964E+01  0.10065585260E+03  0.88370866674E+02 0.  0.
          5    1    3    3  502    0  0.19973740041E+02  0.24698902756E+02  0.16688315234E+03  0.16993070653E+03  0.41800000000E+01 0. -1.
         -5    1    3    3    0  502  0.23106450858E+02 -0.45554168384E+02  0.10460884562E+02  0.52306718825E+02  0.41800000000E+01 0. -1.
        -11    1    4    4    0    0  0.26385379170E+02 -0.35146752590E+01  0.47239001775E+01  0.27034356087E+02  0.00000000000E+00 0.  1.
         11    1    4    4    0    0 -0.69465570069E+02  0.24369940886E+02  0.87481691887E+00  0.73621496511E+02  0.00000000000E+00 0. -1.
</event>
<event>
 8    1  0.7232317E-009  0.1260833E+03  0.7561462E-02  0.1233386E+00
         -1   -1    0    0    0  501 -0.00000000000E+00  0.00000000000E+00  0.16221291541E+02  0.16221291541E+02  0.00000000000E+00 0.  1.
          1   -1    0    0  501    0  0.00000000000E+00 -0.00000000000E+00 -0.13942601874E+04  0.13942601874E+04  0.00000000000E+00 0. -1.
         25    2    1    2    0    0 -0.34352078124E+02  0.68568494957E+02 -0.10545553148E+04  0.10647141641E+04  0.12509050907E+03 0.  0.
         23    2    1    2    0    0  0.34352078124E+02 -0.68568494957E+02 -0.32348358108E+03  0.34576731488E+03  0.95035283114E+02 0.  0.
          5    1    3    3  502    0  0.36314267348E+02 -0.99433032581E+01 -0.38575992547E+03  0.38761551541E+03  0.41800000000E+01 0. -1.
         -5    1    3    3    0  502 -0.70666345472E+02  0.78511798215E+02 -0.66879538932E+03  0.67709864866E+03  0.41800000000E+01 0. -1.
        -11    1    4    4    0    0  0.67363758883E+01 -0.78824856137E+02 -0.29251924299E+03  0.30302845448E+03  0.00000000000E+00 0. -1.
         11    1    4    4    0    0  0.27615702235E+02  0.10256361180E+02 -0.30964338087E+02  0.42738860394E+02  0.00000000000E+00 0.  1.
</event>
<event>
 8    1  0.7232317E-009  0.1048971E+03  0.7561462E-02  0.1270322E+00
          1   -1    0    0  501    0  0.00000000000E+00  0.00000000000E+00  0.13284220424E+03  0.13284220424E+03  0.00000000000E+00 0. -1.
         -1   -1    0    0    0  501 -0.00000000000E+00 -0.00000000000E+00 -0.14418850156E+03  0.14418850156E+03  0.00000000000E+00 0.  1.
         25    2    1    2    0    0  0.51502921966E+02  0.12936365475E+01 -0.73766672421E+02  0.15408966380E+03  0.12509147879E+03 0.  0.
         23    2    1    2    0    0 -0.51502921966E+02 -0.12936365475E+01  0.62420375100E+02  0.12294104199E+03  0.92541731732E+02 0.  0.
          5    1    3    3  502    0 -0.31628108203E+02 -0.25176307604E+02 -0.48270950696E+02  0.63101036237E+02  0.41800000000E+01 0.  1.
         -5    1    3    3    0  502  0.83131030169E+02  0.26469944151E+02 -0.25495721725E+02  0.90988627567E+02  0.41800000000E+01 0.  1.
        -11    1    4    4    0    0 -0.44903138114E+00  0.24573234731E+02 -0.13362111492E+02  0.27974837226E+02  0.00000000000E+00 0.  1.
         11    1    4    4    0    0 -0.51053890585E+02 -0.25866871278E+02  0.75782486592E+02  0.94966204766E+02  0.00000000000E+00 0. -1.
</event>
<event>
 8    1  0.7232317E-009  0.1683014E+03  0.7561462E-02  0.1179631E+00
          1   -1    0    0  501    0  0.00000000000E+00  0.00000000000E+00  0.11328710221E+03  0.11328710221E+03  0.00000000000E+00 0. -1.
         -1   -1    0    0    0  501 -0.00000000000E+00 -0.00000000000E+00 -0.26861431510E+03  0.26861431510E+03  0.00000000000E+00 0.  1.
         25    2    1    2    0    0  0.12871045454E+03 -0.73939080287E+01 -0.33005467465E+02  0.18264086031E+03  0.12508905623E+03 0.  0.
         23    2    1    2    0    0 -0.12871045454E+03  0.73939080287E+01 -0.12232174543E+03  0.19926055699E+03  0.90117196929E+02 0.  0.
          5    1    3    3  502    0  0.61599694527E+02 -0.65820499040E+02 -0.11253080916E+02  0.90944844217E+02  0.41800000000E+01 0.  1.
         -5    1    3    3    0  502  0.67110760017E+02  0.58426591011E+02 -0.21752386548E+02  0.91696016095E+02  0.41800000000E+01 0.  1.
        -11    1    4    4    0    0 -0.75700346175E+02 -0.40485358120E+02 -0.68275837232E+02  0.10968681134E+03  0.00000000000E+00 0.  1.
         11    1    4    4    0    0 -0.53010108369E+02  0.47879266148E+02 -0.54045908193E+02  0.89573745643E+02  0.00000000000E+00 0. -1.
</event>
<event>
 8    1  0.7232317E-009  0.8925650E+02  0.7561462E-02  0.1304662E+00
          2   -1    0    0  501    0  0.00000000000E+00  0.00000000000E+00  0.15055337868E+03  0.15055337868E+03  0.00000000000E+00 0. -1.
         -2   -1    0    0    0  501 -0.00000000000E+00 -0.00000000000E+00 -0.91236951569E+02  0.91236951569E+02  0.00000000000E+00 0.  1.
         25    2    1    2    0    0 -0.10666443494E+02 -0.16914320939E+02  0.75398060415E+02  0.14741830006E+03  0.12508964949E+03 0.  0.
         23    2    1    2    0    0  0.10666443494E+02  0.16914320939E+02 -0.16081633308E+02  0.94372030183E+02  0.90816264410E+02 0.  0.
          5    1    3    3  502    0 -0.55550736786E+02 -0.31050791225E+02  0.68174257883E+01  0.64140359272E+02  0.41800000000E+01 0. -1.
         -5    1    3    3    0  502  0.44884293292E+02  0.14136470285E+02  0.68580634627E+02  0.83277940791E+02  0.41800000000E+01 0. -1.
        -11    1    4    4    0    0  0.12018986224E+02  0.41328786242E+02  0.22597225614E+02  0.48612335961E+02  0.00000000000E+00 0.  1.
         11    1    4    4    0    0 -0.13525427298E+01 -0.24414465303E+02 -0.38678858921E+02  0.45759694222E+02  0.00000000000E+00 0. -1.
</event>
<event>
 8    1  0.7232317E-009  0.8943984E+02  0.7561462E-02  0.1304214E+00
         -2   -1    0    0    0  501 -0.00000000000E+00  0.00000000000E+00  0.22797098759E+02  0.22797098759E+02  0.00000000000E+00 0.  1.
          2   -1    0    0  501    0  0.00000000000E+00 -0.00000000000E+00 -0.17149620509E+04  0.17149620509E+04  0.00000000000E+00 0. -1.
         25    2    1    2    0    0  0.24157142367E+02  0.72776089736E+02 -0.15303325821E+04  0.15373501610E+04  0.12509108239E+03 0.  0.
         23    2    1    2    0    0 -0.24157142367E+02 -0.72776089736E+02 -0.16183237006E+03  0.20040898869E+03  0.89967327313E+02 0.  0.
          5    1    3    3  502    0 -0.23038403085E+02  0.17280224165E+02 -0.79083299088E+02  0.84267519000E+02  0.41800000000E+01 0.  1.
         -5    1    3    3    0  502  0.47195545452E+02  0.55495865571E+02 -0.14512492830E+04  0.14530826420E+04  0.41800000000E+01 0.  1.
        -11    1    4    4    0    0 -0.15240589167E+02 -0.52299622748E+02 -0.16851162752E+03  0.17709798053E+03  0.00000000000E+00 0. -1.
         11    1    4    4    0    0 -0.89165531998E+01 -0.20476466988E+02  0.66792574599E+01  0.23311008161E+02  0.00000000000E+00 0.  1.
</event>
<event>
 8    1  0.7232317E-009  0.1013106E+03  0.7561462E-02  0.1277564E+00
         -2   -1    0    0    0  501 -0.00000000000E+00  0.00000000000E+00  0.26115885181E+02  0.26115885181E+02  0.00000000000E+00 0.  1.
          2   -1    0    0  501    0  0.00000000000E+00 -0.00000000000E+00 -0.56557265200E+03  0.56557265200E+03  0.00000000000E+00 0. -1.
         25    2    1    2    0    0 -0.37340074088E+02  0.22087843853E+02 -0.27892971548E+03  0.30875747314E+03  0.12508891663E+03 0.  0.
         23    2    1    2    0    0  0.37340074088E+02 -0.22087843853E+02 -0.26052705134E+03  0.28293106404E+03  0.10145683092E+03 0.  0.
          5    1    3    3  502    0 -0.66411137399E+02  0.41068714714E+01 -0.68719764169E+02  0.95745412169E+02  0.41800000000E+01 0. -1.
         -5    1    3    3    0  502  0.29071063311E+02  0.17980972381E+02 -0.21020995131E+03  0.21301206097E+03  0.41800000000E+01 0. -1.
        -11    1    4    4    0    0 -0.10484233017E+02 -0.46606836869E+02 -0.68412976764E+02  0.83441307364E+02  0.00000000000E+00 0.  1.
         11    1    4    4    0    0  0.47824307105E+02  0.24518993017E+02 -0.19211407457E+03  0.19948975667E+03  0.00000000000E+00 0. -1.
</event>
<event>
 8    1  0.7232317E-009  0.1084603E+03  0.7561462E-02  0.1263448E+00
          3   -1    0    0  501    0  0.00000000000E+00  0.00000000000E+00  0.62519733244E+02  0.62519733244E+02  0.00000000000E+00 0. -1.
         -3   -1    0    0    0  501 -0.00000000000E+00 -0.00000000000E+00 -0.26749230206E+03  0.26749230206E+03  0.00000000000E+00 0.  1.
         25    2    1    2    0    0  0.16749067505E+02 -0.13462296263E+02 -0.19139158761E+03  0.22965104578E+03  0.12508836211E+03 0.  0.
         23    2    1    2    0    0 -0.16749067505E+02  0.13462296263E+02 -0.13580981211E+02  0.10036098953E+03  0.97088209819E+02 0.  0.
          5    1    3    3  502    0  0.94661670487E+01  0.51366951476E+02 -0.44034279056E+02  0.68444591858E+02  0.41800000000E+01 0. -1.
         -5    1    3    3    0  502  0.72829004559E+01 -0.64829247739E+02 -0.14735730855E+03  0.16120645392E+03  0.41800000000E+01 0. -1.
        -11    1    4    4    0    0  0.34874179295E+02  0.28874261379E+02 -0.10000072227E+02  0.46367367795E+02  0.00000000000E+00 0. -1.
         11    1    4    4    0    0 -0.51623246800E+02 -0.15411965116E+02 -0.35809089842E+01  0.53993621735E+02  0.00000000000E+00 0.  1.
</event>
<event>
 8    1  0.7232317E-009  0.8536206E+02  0.7561462E-02  0.1314488E+00
         -1   -1    0    0    0  501 -0.00000000000E+00  0.00000000000E+00  0.84597875229E+02  0.84597875229E+02  0.00000000000E+00 0.  1.
          1   -1    0    0  501    0  0.00000000000E+00 -0.00000000000E+00 -0.17230813802E+03  0.17230813802E+03  0.00000000000E+00 0. -1.
         25    2    1    2    0    0 -0.44731068428E+02 -0.21618263895E+02 -0.40853712235E+02  0.14065611541E+03  0.12508756606E+03 0.  0.
         23    2    1    2    0    0  0.44731068428E+02  0.21618263895E+02 -0.46856550554E+02  0.11624989783E+03  0.94075951230E+02 0.  0.
          5    1    3    3  502    0  0.57784615990E+01 -0.57185018547E+02  0.12447816924E+02  0.58957081940E+02  0.41800000000E+01 0.  1.
         -5    1    3    3    0  502 -0.50509530027E+02  0.35566754652E+02 -0.53301529159E+02  0.81699033475E+02  0.41800000000E+01 0.  1.
        -11    1    4    4    0    0  0.18207914375E+02  0.22696768617E+01  0.28588947584E+02  0.33970685936E+02  0.00000000000E+00 0.  1.
         11    1    4    4    0    0  0.26523154053E+02  0.19348587033E+02 -0.75445498138E+02  0.82279211897E+02  0.00000000000E+00 0. -1.
</event>
<event>
 8    1  0.7232317E-009  0.8791693E+02  0.7561462E-02  0.1307976E+00
         -1   -1    0    0    0  501 -0.00000000000E+00  0.00000000000E+00  0.15094590368E+02  0.15094590368E+02  0.00000000000E+00 0.  1.
          1   -1    0    0  501    0  0.00000000000E+00 -0.00000000000E+00 -0.81498128008E+03  0.81498128008E+03  0.00000000000E+00 0. -1.
         25    2    1    2    0    0 -0.96879755733E+01  0.96546984647E+01 -0.53979995518E+03  0.55427304426E+03  0.12509015114E+03 0.  0.
         23    2    1    2    0    0  0.96879755733E+01 -0.96546984647E+01 -0.26008673453E+03  0.27580282618E+03  0.90747007545E+02 0.  0.
          5    1    3    3  502    0 -0.49531347199E+02  0.89569193446E+01 -0.47773850482E+03  0.48040101181E+03  0.41800000000E+01 0.  1.
         -5    1    3    3    0  502  0.39843371626E+02  0.69777912011E+00 -0.62061450355E+02  0.73872032451E+02  0.41800000000E+01 0.  1.
        -11    1    4    4    0    0  0.47142919907E+02 -0.75509218049E+01 -0.19422061929E+03  0.20000280067E+03  0.00000000000E+00 0. -1.
         11    1    4    4    0    0 -0.37454944333E+02 -0.21037766598E+01 -0.65866115245E+02  0.75800025519E+02  0.00000000000E+00 0.  1.
</event>
<event>
 8    1  0.7232317E-009  0.1089285E+03  0.7561462E-02  0.1262567E+00
          1   -1    0    0  501    0  0.00000000000E+00  0.00000000000E+00  0.23597501196E+03  0.23597501196E+03  0.00000000000E+00 0. -1.
         -1   -1    0    0    0  501 -0.00000000000E+00 -0.00000000000E+00 -0.56401765827E+02  0.56401765827E+02  0.00000000000E+00 0.  1.
         25    2    1    2    0    0 -0.28055732638E+02  0.18692607511E+02  0.92615655699E+02  0.15926941696E+03  0.12511015062E+03 0.  0.
         23    2    1    2    0    0  0.28055732638E+02 -0.18692607511E+02  0.86957590433E+02  0.13310736083E+03  0.94970570511E+02 0.  0.
          5    1    3    3  502    0 -0.58902003343E+01 -0.50593916652E+02  0.61697585390E+02  0.80115562191E+02  0.41800000000E+01 0. -1.
         -5    1    3    3    0  502 -0.22165532304E+02  0.69286524163E+02  0.30918070309E+02  0.79153854768E+02  0.41800000000E+01 0. -1.
        -11    1    4    4    0    0  0.39726077023E+01  0.34902045896E+02  0.57496910831E+02  0.67378254465E+02  0.00000000000E+00 0.  1.
         11    1    4    4    0    0  0.24083124936E+02 -0.53594653407E+02  0.29460679602E+02  0.65729106362E+02  0.00000000000E+00 0. -1.
</event>
<event>
 7    1  0.7232317E-009  0.1216439E+03  0.7561462E-02  0.1240410E+00
         -2   -1    0    0    0  501 -0.00000000000E+00  0.00000000000E+00  0.16005480775E+02  0.16005480775E+02  0.00000000000E+00 0. -1.
          2   -1    0    0  501    0  0.00000000000E+00 -0.00000000000E+00 -0.21794339289E+04  0.21794339289E+04  0.00000000000E+00 0.  1.
         25    2    1    2    0    0  0.10132313689E+03  0.59373580956E+02 -0.18421037031E+04  0.18500773048E+04  0.12509348700E+03 0.  0.
          5    1    3    3  502    0  0.31388138025E+02  0.18747365033E+02 -0.10826080167E+03  0.11434400938E+03  0.41800000000E+01 0.  1.
         -5    1    3    3    0  502  0.69934998863E+02  0.40626215923E+02 -0.17338429014E+04  0.17357332954E+04  0.41800000000E+01 0.  1.
        -11    1    1    2    0    0 -0.66356537258E+02 -0.13323279025E+02 -0.19560432635E+03  0.20698249271E+03  0.00000000000E+00 0.  1.
         11    1    1    2    0    0 -0.34966599630E+02 -0.46050301930E+02 -0.12572041865E+03  0.13837961217E+03  0.00000000000E+00 0. -1.
</event>
<event>
 8    1  0.7232317E-009  0.1595419E+03  0.7561462E-02  0.1189215E+00
          1   -1    0    0  501    0  0.00000000000E+00  0.00000000000E+00  0.59972028002E+02  0.59972028002E+02  0.00000000000E+00 0. -1.
         -1   -1    0    0    0  501 -0.00000000000E+00 -0.00000000000E+00 -0.90212047688E+03  0.90212047688E+03  0.00000000000E+00 0.  1.
         25    2    1    2    0    0 -0.10162072856E+03 -0.71032690426E+02 -0.77435796220E+03  0.79413466639E+03  0.12508876513E+03 0.  0.
         23    2    1    2    0    0  0.10162072856E+03  0.71032690426E+02 -0.67790486681E+02  0.16795783849E+03  0.90784744565E+02 0.  0.
          5    1    3    3  502    0 -0.54104433303E+02  0.29946070214E+02 -0.34297485158E+03  0.34853016805E+03  0.41800000000E+01 0. -1.
         -5    1    3    3    0  502 -0.47516295252E+02 -0.10097876064E+03 -0.43138311062E+03  0.44560449834E+03  0.41800000000E+01 0. -1.
        -11    1    4    4    0    0  0.19757037570E+02  0.59573243779E+02 -0.56649330463E+02  0.84548557350E+02  0.00000000000E+00 0.  1.
         11    1    4    4    0    0  0.81863690985E+02  0.11459446647E+02 -0.11141156217E+02  0.83409281144E+02  0.00000000000E+00 0. -1.
</event>
<event>
 8    1  0.7232317E-009  0.1708090E+03  0.7561462E-02  0.1177007E+00
          2   -1    0    0  501    0  0.00000000000E+00  0.00000000000E+00  0.58997205135E+03  0.58997205135E+03  0.00000000000E+00 0. -1.
         -2   -1    0    0    0  501 -0.00000000000E+00 -0.00000000000E+00 -0.56599461928E+02  0.56599461928E+02  0.00000000000E+00 0.  1.
         25    2    1    2    0    0 -0.81649917047E+02 -0.11962011078E+03  0.32133987013E+03  0.37401070151E+03  0.12509601452E+03 0.  0.
         23    2    1    2    0    0  0.81649917047E+02  0.11962011078E+03  0.21203271929E+03  0.27256081178E+03  0.91410295960E+02 0.  0.
          5    1    3    3  502    0 -0.93351864103E+02 -0.49433538203E+02  0.11744448605E+03  0.15801558447E+03  0.41800000000E+01 0. -1.
         -5    1    3    3    0  502  0.11701947057E+02 -0.70186572581E+02  0.20389538408E+03  0.21599511704E+03  0.41800000000E+01 0. -1.
        -11    1    4    4    0    0  0.97116768081E+02  0.97336262003E+02  0.20042516832E+03  0.24305608949E+03  0.00000000000E+00 0. -1.
         11    1    4    4    0    0 -0.15466851035E+02  0.22283848780E+02  0.11607550972E+02  0.29504722282E+02  0.00000000000E+00 0.  1.
</event>
<event>
 8    1  0.7232317E-009  0.4842987E+02  0.7561462E-02  0.1453999E+00
         -2   -1    0    0    0  501 -0.00000000000E+00  0.00000000000E+00  0.24156951353E+02  0.24156951353E+02  0.00000000000E+00 0.  1.
          2   -1    0    0  501    0  0.00000000000E+00 -0.00000000000E+00 -0.52845471389E+03  0.52845471389E+03  0.00000000000E+00 0. -1.
         25    2    1    2    0    0  0.29507817954E+02 -0.55090152744E+01 -0.32878228663E+03  0.35305115664E+03  0.12508503761E+03 0.  0.
         23    2    1    2    0    0 -0.29507817954E+02  0.55090152744E+01 -0.17551547590E+03  0.19956050860E+03  0.90098022959E+02 0.  0.
          5    1    3    3  502    0  0.28109900141E+02 -0.32056197101E+01 -0.33977990048E+03  0.34098137141E+03  0.41800000000E+01 0.  1.
         -5    1    3    3    0  502  0.13979178129E+01 -0.23033955642E+01  0.10997613841E+02  0.12069785232E+02  0.41800000000E+01 0.  1.
        -11    1    4    4    0    0 -0.31064855645E+02  0.27351196821E+02 -0.17257185454E+03  0.17746593533E+03  0.00000000000E+00 0. -1.
         11    1    4    4    0    0  0.15570376913E+01 -0.21842181546E+02 -0.29436213610E+01  0.22094573266E+02  0.00000000000E+00 0.  1.
</event>
<event>
 8    1  0.7232317E-009  0.1296396E+03  0.7561462E-02  0.1227992E+00
         -1   -1    0    0    0  501 -0.00000000000E+00  0.00000000000E+00  0.74089257391E+02  0.74089257391E+02  0.00000000000E+00 0.  1.
          1   -1    0    0  501    0  0.00000000000E+00 -0.00000000000E+00 -0.26926624791E+03  0.26926624791E+03  0.00000000000E+00 0. -1.
         25    2    1    2    0    0  0.33384376219E+02 -0.62756567556E+02 -0.40415302256E+02  0.14944766549E+03  0.12509318413E+03 0.  0.
         23    2    1    2    0    0 -0.33384376219E+02  0.62756567556E+02 -0.15476168826E+03  0.19390783981E+03  0.92715515638E+02 0.  0.
          5    1    3    3  502    0  0.11186415937E+02  0.38194996372E+02 -0.16403209193E+02  0.43249639550E+02  0.41800000000E+01 0.  1.
         -5    1    3    3    0  502  0.22197960282E+02 -0.10095156393E+03 -0.24012093063E+02  0.10619802594E+03  0.41800000000E+01 0.  1.
        -11    1    4    4    0    0 -0.64366705542E+02  0.52854871016E+02 -0.12220197237E+03  0.14788519948E+03  0.00000000000E+00 0.  1.
         11    1    4    4    0    0  0.30982329323E+02  0.99016965394E+01 -0.32559715891E+02  0.46022640336E+02  0.00000000000E+00 0. -1.
</event>
<event>
 8    1  0.7232317E-009  0.1021796E+03  0.7561462E-02  0.1275778E+00
          3   -1    0    0  501    0  0.00000000000E+00  0.00000000000E+00  0.18251976440E+03  0.18251976440E+03  0.00000000000E+00 0. -1.
         -3   -1    0    0    0  501 -0.00000000000E+00 -0.00000000000E+00 -0.70746205858E+02  0.70746205858E+02  0.00000000000E+00 0.  1.
         25    2    1    2    0    0 -0.13277093492E+01  0.34506574196E+02  0.62463327699E+02  0.14401883424E+03  0.12508913156E+03 0.  0.
         23    2    1    2    0    0  0.13277093492E+01 -0.34506574196E+02  0.49310230847E+02  0.10924713602E+03  0.91164529222E+02 0.  0.
          5    1    3    3  502    0 -0.50365591563E+02  0.80274721809E+01  0.70963281965E+02  0.87489387416E+02  0.41800000000E+01 0. -1.
         -5    1    3    3    0  502  0.49037882214E+02  0.26479102016E+02 -0.84999542658E+01  0.56529446823E+02  0.41800000000E+01 0. -1.
        -11    1    4    4    0    0  0.44123935172E+02 -0.31315531669E+01  0.19071654550E+02  0.48171114660E+02  0.00000000000E+00 0.  1.
         11    1    4    4    0    0 -0.42796225822E+02 -0.31375021030E+02  0.30238576297E+02  0.61076021364E+02  0.00000000000E+00 0. -1.
</event>
<event>
 8    1  0.7232317E-009  0.1156394E+03  0.7561462E-02  0.1250469E+00
         -1   -1    0    0    0  501 -0.00000000000E+00  0.00000000000E+00  0.17439840032E+02  0.17439840032E+02  0.00000000000E+00 0.  1.
          1   -1    0    0  501    0  0.00000000000E+00 -0.00000000000E+00 -0.78818221375E+03  0.78818221375E+03  0.00000000000E+00 0. -1.
         25    2    1    2    0    0  0.83083043715E+01  0.39479486004E+02 -0.38588685096E+03  0.40765638432E+03  0.12508960066E+03 0.  0.
         23    2    1    2    0    0 -0.83083043715E+01 -0.39479486004E+02 -0.38485552276E+03  0.39796566946E+03  0.92926007874E+02 0.  0.
          5    1    3    3  502    0 -0.50077745347E+02  0.51007977750E+02 -0.20009778495E+03  0.21252338769E+03  0.41800000000E+01 0. -1.
         -5    1    3    3    0  502  0.58386049718E+02 -0.11528491746E+02 -0.18578906601E+03  0.19513299663E+03  0.41800000000E+01 0. -1.
        -11    1    4    4    0    0 -0.49045541136E+02 -0.10870400547E+02 -0.16162178048E+03  0.16924901961E+03  0.00000000000E+00 0.  1.
         11    1    4    4    0    0  0.40737236765E+02 -0.28609085458E+02 -0.22323374227E+03  0.22871664985E+03  0.00000000000E+00 0. -1.
</event>
<event>
 8    1  0.7232317E-009  0.1025244E+03  0.7561462E-02  0.1275075E+00
          1   -1    0    0  501    0  0.00000000000E+00  0.00000000000E+00  0.14392320925E+03  0.14392320925E+03  0.00000000000E+00 0. -1.
         -1   -1    0    0    0  501 -0.00000000000E+00 -0.00000000000E+00 -0.10067224636E+03  0.10067224636E+03  0.00000000000E+00 0.  1.
         25    2    1    2    0    0  0.33356304891E+01  0.48888287768E+02  0.35281717347E+02  0.13890022606E+03  0.12508909668E+03 0.  0.
         23    2    1    2    0    0 -0.33356304891E+01 -0.48888287768E+02  0.79692455407E+01  0.10569522955E+03  0.93310136451E+02 0.  0.
          5    1    3    3  502    0  0.16427408382E+01 -0.42520024311E+02  0.91739725348E+01  0.43729683705E+02  0.41800000000E+01 0.  1.
         -5    1    3    3    0  502  0.16928896509E+01  0.91408312079E+02  0.26107744812E+02  0.95170542352E+02  0.41800000000E+01 0.  1.
        -11    1    4    4    0    0 -0.26389586619E+02 -0.35087101290E+02  0.43062349385E+02  0.61496999060E+02  0.00000000000E+00 0. -1.
         11    1    4    4    0    0  0.23053956130E+02 -0.13801186478E+02 -0.35093103844E+02  0.44198230495E+02  0.00000000000E+00 0.  1.
</event>
<event>
 8    1  0.7232317E-009  0.2304278E+03  0.7561462E-02  0.1126339E+00
         -2   -1    0    0    0  501 -0.00000000000E+00  0.00000000000E+00  0.23231472114E+02  0.23231472114E+02  0.00000000000E+00 0.  1.
          2   -1    0    0  501    0  0.00000000000E+00 -0.00000000000E+00 -0.33080937759E+04  0.33080937759E+04  0.00000000000E+00 0. -1.
         25    2    1    2    0    0  0.10819347869E+03  0.17286267958E+03 -0.25987449918E+04  0.26097336124E+04  0.12508661060E+03 0.  0.
         23    2    1    2    0    0 -0.10819347869E+03 -0.17286267958E+03 -0.68611731202E+03  0.72159163571E+03  0.91379363365E+02 0.  0.
          5    1    3    3  502    0  0.18982043693E+02  0.14348840658E+03 -0.16503601395E+04  0.16567001247E+04  0.41800000000E+01 0.  1.
         -5    1    3    3    0  502  0.89211434998E+02  0.29374272998E+02 -0.94838485234E+03  0.95303348766E+03  0.41800000000E+01 0.  1.
        -11    1    4    4    0    0 -0.53138719751E+02 -0.15547537353E+03 -0.46984407585E+03  0.49774468447E+03  0.00000000000E+00 0. -1.
         11    1    4    4    0    0 -0.55054758939E+02 -0.17387306049E+02 -0.21627323618E+03  0.22384695124E+03  0.00000000000E+00 0.  1.
</event>
<event>
 8    1  0.7232317E-009  0.1099905E+03  0.7561462E-02  0.1260588E+00
         -2   -1    0    0    0  501 -0.00000000000E+00  0.00000000000E+00  0.80367042286E+02  0.80367042286E+02  0.00000000000E+00 0. -1.
          2   -1    0    0  501    0  0.00000000000E+00 -0.00000000000E+00 -0.16614645845E+03  0.16614645845E+03  0.00000000000E+00 0.  1.
         25    2    1    2    0    0  0.28463790215E+02 -0.32450479187E+02 -0.65330134439E+02  0.14757670759E+03  0.12509051605E+03 0.  0.
         23    2    1    2    0    0 -0.28463790215E+02  0.32450479187E+02 -0.20449281721E+02  0.98936793137E+02  0.86643493469E+02 0.  0.
          5    1    3    3  502    0 -0.32941236868E+02  0.29339185044E+02 -0.29831864472E+02  0.53416527436E+02  0.41800000000E+01 0. -1.
         -5    1    3    3    0  502  0.61405027083E+02 -0.61789664231E+02 -0.35498269967E+02  0.94160180158E+02  0.41800000000E+01 0. -1.
        -11    1    4    4    0    0 -0.50646204149E+02  0.40512828312E+02  0.39674464154E+01  0.64977441344E+02  0.00000000000E+00 0. -1.
         11    1    4    4    0    0  0.22182413933E+02 -0.80623491255E+01 -0.24416728136E+02  0.33959351793E+02  0.00000000000E+00 0.  1.
</event>
<event>
 8    1  0.7232317E-009  0.5444919E+02  0.7561462E-02  0.1422722E+00
         -2   -1    0    0    0  501 -0.00000000000E+00  0.00000000000E+00  0.33152168721E+02  0.33152168721E+02  0.00000000000E+00 0.  1.
          2   -1    0    0  501    0  0.00000000000E+00 -0.00000000000E+00 -0.39597078954E+03  0.39597078954E+03  0.00000000000E+00 0. -1.
         25    2    1    2    0    0 -0.17365893884E+02  0.20530568992E+02 -0.24649785190E+03  0.27772547391E+03  0.12508864590E+03 0.  0.
         23    2    1    2    0    0  0.17365893884E+02 -0.20530568992E+02 -0.11632076893E+03  0.15139748436E+03  0.93099937983E+02 0.  0.
          5    1    3    3  502    0  0.71596851680E+01  0.39144748945E+01 -0.24761713370E+03  0.24778680656E+03  0.41800000000E+01 0.  1.
         -5    1    3    3    0  502 -0.24525579052E+02  0.16616094097E+02  0.11192817974E+01  0.29938667349E+02  0.41800000000E+01 0.  1.
        -11    1    4    4    0    0  0.11689795389E+02 -0.44072200944E+02 -0.16198103386E+02  0.48387898959E+02  0.00000000000E+00 0.  1.
         11    1    4    4    0    0  0.56760984948E+01  0.23541631952E+02 -0.10012266554E+03  0.10300958540E+03  0.00000000000E+00 0. -1.
</event>
<event>
 8    1  0.7232317E-009  0.1412578E+03  0.7561462E-02  0.1211646E+00
          2   -1    0    0  501    0  0.00000000000E+00  0.00000000000E+00  0.49671846678E+03  0.49671846678E+03  0.00000000000E+00 0. -1.
         -2   -1    0    0    0  501 -0.00000000000E+00 -0.00000000000E+00 -0.51135756854E+02  0.51135756854E+02  0.00000000000E+00 0.  1.
         25    2    1    2    0    0  0.10285288487E+03 -0.27440221868E+02  0.32089999125E+03  0.36049872063E+03  0.12510332325E+03 0.  0.
         23    2    1    2    0    0 -0.10285288487E+03  0.27440221868E+02  0.12468271867E+03  0.18735550300E+03  0.90689704301E+02 0.  0.
          5    1    3    3  502    0  0.25305837167E+02  0.45708957756E+02  0.15142913409E+03  0.16024340630E+03  0.41800000000E+01 0. -1.
         -5    1    3    3    0  502  0.77547047707E+02 -0.73149179624E+02  0.16947085716E+03  0.20025531433E+03  0.41800000000E+01 0. -1.
        -11    1    4    4    0    0 -0.27693227529E+02 -0.20335582039E+02  0.27819653319E+00  0.34358814606E+02  0.00000000000E+00 0.  1.
         11    1    4    4    0    0 -0.75159657346E+02  0.47775803906E+02  0.12440452214E+03  0.15299668840E+03  0.00000000000E+00 0. -1.
</event>
<event>
 8    1  0.7232317E-009  0.1539955E+03  0.7561462E-02  0.1195648E+00
          1   -1    0    0  501    0  0.00000000000E+00  0.00000000000E+00  0.20951475586E+03  0.20951475586E+03  0.00000000000E+00 0. -1.
         -1   -1    0    0    0  501 -0.00000000000E+00 -0.00000000000E+00 -0.22026547330E+03  0.22026547330E+03  0.00000000000E+00 0.  1.
         25    2    1    2    0    0  0.15030542991E+03 -0.22185549663E+00 -0.11422442996E+03  0.22646748005E+03  0.12509407517E+03 0.  0.
         23    2    1    2    0    0 -0.15030542991E+03  0.22185549663E+00  0.10347371253E+03  0.20331274911E+03  0.89652067953E+02 0.  0.
          5    1    3    3  502    0  0.95781866711E+02 -0.10400502053E+02  0.32497473243E+01  0.96490256976E+02  0.41800000000E+01 0. -1.
         -5    1    3    3    0  502  0.54523563195E+02  0.10178646557E+02 -0.11747417729E+03  0.12997722308E+03  0.41800000000E+01 0. -1.
        -11    1    4    4    0    0 -0.54684263753E+02  0.20110901502E+02 -0.36122847956E+01  0.58376927487E+02  0.00000000000E+00 0.  1.
         11    1    4    4    0    0 -0.95621166153E+02 -0.19889046006E+02  0.10708599732E+03  0.14493582162E+03  0.00000000000E+00 0. -1.
</event>
<event>
 8    1  0.7232317E-009  0.1312893E+03  0.7561462E-02  0.1225555E+00
          1   -1    0    0  501    0  0.00000000000E+00  0.00000000000E+00  0.54365628248E+03  0.54365628248E+03  0.00000000000E+00 0. -1.
         -1   -1    0    0    0  501 -0.00000000000E+00 -0.00000000000E+00 -0.53487061747E+02  0.53487061747E+02  0.00000000000E+00 0.  1.
         25    2    1    2    0    0  0.73380102984E+02  0.34716738813E+02  0.81477004315E+02  0.16992808387E+03  0.12508860854E+03 0.  0.
         23    2    1    2    0    0 -0.73380102984E+02 -0.34716738813E+02  0.40869221641E+03  0.42721526035E+03  0.94306200506E+02 0.  0.
          5    1    3    3  502    0  0.37126294034E+02  0.75000579395E+02  0.79548940289E+02  0.11553767749E+03  0.41800000000E+01 0. -1.
         -5    1    3    3    0  502  0.36253808950E+02 -0.40283840582E+02  0.19280640263E+01  0.54390406381E+02  0.41800000000E+01 0. -1.
        -11    1    4    4    0    0 -0.26113865154E+02  0.32855138392E+02  0.13883973471E+03  0.14504435875E+03  0.00000000000E+00 0.  1.
         11    1    4    4    0    0 -0.47266237830E+02 -0.67571877205E+02  0.26985248171E+03  0.28217090160E+03  0.00000000000E+00 0. -1.
</event>
<event>
 8    1  0.7232317E-009  0.8163309E+02  0.7561462E-02  0.1324480E+00
         -2   -1    0    0    0  501 -0.00000000000E+00  0.00000000000E+00  0.12132418177E+02  0.12132418177E+02  0.00000000000E+00 0.  1.
          2   -1    0    0  501    0  0.00000000000E+00 -0.00000000000E+00 -0.11031278350E+04  0.11031278350E+04  0.00000000000E+00 0. -1.
         25    2    1    2    0    0  0.36278012903E+02  0.14942343195E+02 -0.67943205973E+03  0.69196425198E+03  0.12508890595E+03 0.  0.
         23    2    1    2    0    0 -0.36278012903E+02 -0.14942343195E+02 -0.41156335711E+03  0.42329600121E+03  0.90861102163E+02 0.  0.
          5    1    3    3  502    0  0.25380265771E+02 -0.18755354880E+02 -0.38131829533E+02  0.49673232740E+02  0.41800000000E+01 0. -1.
         -5    1    3    3    0  502  0.10897747132E+02  0.33697698076E+02 -0.64130023020E+03  0.64229101924E+03  0.41800000000E+01 0. -1.
        -11    1    4    4    0    0 -0.61823048188E+02  0.68388109098E+01 -0.31448483324E+03  0.32057693142E+03  0.00000000000E+00 0. -1.
         11    1    4    4    0    0  0.25545035284E+02 -0.21781154105E+02 -0.97078523869E+02  0.10271906979E+03  0.00000000000E+00 0.  1.
</event>
<event>
 8    1  0.7232317E-009  0.3480037E+03  0.7561462E-02  0.1063437E+00
          1   -1    0    0  501    0  0.00000000000E+00  0.00000000000E+00  0.74073192542E+03  0.74073192542E+03  0.00000000000E+00 0. -1.
         -1   -1    0    0    0  501 -0.00000000000E+00 -0.00000000000E+00 -0.17327547485E+03  0.17327547485E+03  0.00000000000E+00 0.  1.
         25    2    1    2    0    0 -0.40356815300E+01 -0.34248394691E+03  0.29462540209E+03  0.46878746913E+03  0.12508406391E+03 0.  0.
         23    2    1    2    0    0  0.40356815300E+01  0.34248394691E+03  0.27283104848E+03  0.44521993113E+03  0.80451634205E+02 0.  0.
          5    1    3    3  502    0  0.13796245077E+02 -0.21999656548E+03  0.25856114153E+03  0.33979429293E+03  0.41800000000E+01 0. -1.
         -5    1    3    3    0  502 -0.17831926606E+02 -0.12248738143E+03  0.36064260555E+02  0.12899317620E+03  0.41800000000E+01 0. -1.
        -11    1    4    4    0    0 -0.36784821087E+02  0.12071127702E+03  0.10394337878E+03  0.16348871965E+03  0.00000000000E+00 0.  1.
         11    1    4    4    0    0  0.40820502617E+02  0.22177266989E+03  0.16888766971E+03  0.28173121148E+03  0.00000000000E+00 0. -1.
</event>
<event>
 8    1  0.7232317E-009  0.2498531E+03  0.7561462E-02  0.1113398E+00
          2   -1    0    0  501    0  0.00000000000E+00  0.00000000000E+00  0.11280166449E+03  0.11280166449E+03  0.00000000000E+00 0. -1.
         -2   -1    0    0    0  501 -0.00000000000E+00 -0.00000000000E+00 -0.61078537833E+03  0.61078537833E+03  0.00000000000E+00 0.  1.
         25    2    1    2    0    0  0.17093547133E+03 -0.15673333251E+03 -0.17790365336E+03  0.31793368544E+03  0.12509134895E+03 0.  0.
         23    2    1    2    0    0 -0.17093547133E+03  0.15673333251E+03 -0.32008006048E+03  0.40565335737E+03  0.91209255845E+02 0.  0.
          5    1    3    3  502    0  0.12720981681E+03 -0.45992049337E+02 -0.53046917011E+02  0.14535836370E+03  0.41800000000E+01 0.  1.
         -5    1    3    3    0  502  0.43725654525E+02 -0.11074128317E+03 -0.12485673635E+03  0.17257532174E+03  0.41800000000E+01 0.  1.
        -11    1    4    4    0    0 -0.89209462356E+02  0.29389929589E+02 -0.15885023873E+03  0.18454130833E+03  0.00000000000E+00 0.  1.
         11    1    4    4    0    0 -0.81726008976E+02  0.12734340292E+03 -0.16122982174E+03  0.22111204904E+03  0.00000000000E+00 0. -1.
</event>
<event>
 8    1  0.7232317E-009  0.2838457E+03  0.7561462E-02  0.1093607E+00
          1   -1    0    0  501    0  0.00000000000E+00  0.00000000000E+00  0.64016179210E+03  0.64016179210E+03  0.00000000000E+00 0. -1.
         -1   -1    0    0    0  501 -0.00000000000E+00 -0.00000000000E+00 -0.14727637384E+03  0.14727637384E+03  0.00000000000E+00 0.  1.
         25    2    1    2    0    0  0.13244009303E+03  0.24554406823E+03  0.16413966052E+03  0.34701522270E+03  0.12508184898E+03 0.  0.
         23    2    1    2    0    0 -0.13244009303E+03 -0.24554406823E+03  0.32874575774E+03  0.44042294325E+03  0.89812738634E+02 0.  0.
          5    1    3    3  502    0  0.11695776126E+03  0.22510918478E+03  0.91231985248E+02  0.26961826816E+03  0.41800000000E+01 0. -1.
         -5    1    3    3    0  502  0.15482331768E+02  0.20434883443E+02  0.72907675270E+02  0.77396954537E+02  0.41800000000E+01 0. -1.
        -11    1    4    4    0    0 -0.94539829344E+02 -0.10004589803E+03  0.19816789277E+03  0.24128297654E+03  0.00000000000E+00 0.  1.
         11    1    4    4    0    0 -0.37900263685E+02 -0.14549817019E+03  0.13057786497E+03  0.19913996670E+03  0.00000000000E+00 0. -1.
</event>
<event>
 8    1  0.7232317E-009  0.9534126E+02  0.7561462E-02  0.1290409E+00
          2   -1    0    0  501    0  0.00000000000E+00  0.00000000000E+00  0.72615858717E+02  0.72615858717E+02  0.00000000000E+00 0. -1.
         -2   -1    0    0    0  501 -0.00000000000E+00 -0.00000000000E+00 -0.19626595393E+03  0.19626595393E+03  0.00000000000E+00 0.  1.
         25    2    1    2    0    0  0.12968804095E+01  0.53263714159E+02 -0.45878956029E+02  0.14353146980E+03  0.12513072793E+03 0.  0.
         23    2    1    2    0    0 -0.12968804095E+01 -0.53263714159E+02 -0.77771139185E+02  0.12535034285E+03  0.82617511569E+02 0.  0.
          5    1    3    3  502    0  0.47146820071E+02  0.24906383097E+02 -0.66781726496E+02  0.85559464441E+02  0.41800000000E+01 0.  1.
         -5    1    3    3    0  502 -0.45849939661E+02  0.28357331062E+02  0.20902770467E+02  0.57972005356E+02  0.41800000000E+01 0.  1.
        -11    1    4    4    0    0 -0.65248070111E+01 -0.67574866001E+02 -0.84752718386E+02  0.10859078642E+03  0.00000000000E+00 0.  1.
         11    1    4    4    0    0  0.52279266016E+01  0.14311151842E+02  0.69815792010E+01  0.16759556430E+02  0.00000000000E+00 0. -1.
</event>
<event>
 8    1  0.7232317E-009  0.9316723E+02  0.7561462E-02  0.1295358E+00
         -1   -1    0    0    0  501 -0.00000000000E+00  0.00000000000E+00  0.20482857803E+03  0.20482857803E+03  0.00000000000E+00 0.  1.
          1   -1    0    0  501    0  0.00000000000E+00 -0.00000000000E+00 -0.98467495925E+02  0.98467495925E+02  0.00000000000E+00 0. -1.
         25    2    1    2    0    0 -0.56640676268E+02 -0.12436844584E+02  0.13506082684E+03  0.19301044426E+03  0.12509501724E+03 0.  0.
         23    2    1    2    0    0  0.56640676268E+02  0.12436844584E+02 -0.28699744730E+02  0.11028562969E+03  0.89310713009E+02 0.  0.
          5    1    3    3  502    0 -0.26592559452E+02 -0.49635665746E+02  0.78046524948E+01  0.57002180071E+02  0.41800000000E+01 0.  1.
         -5    1    3    3    0  502 -0.30048116816E+02  0.37198821163E+02  0.12725617434E+03  0.13600826419E+03  0.41800000000E+01 0.  1.
        -11    1    4    4    0    0 -0.11322271364E+02  0.77960339433E+01  0.21602149355E+02  0.25605171955E+02  0.00000000000E+00 0.  1.
         11    1    4    4    0    0  0.67962947632E+02  0.46408106403E+01 -0.50301894086E+02  0.84680457739E+02  0.00000000000E+00 0. -1.
</event>
<event>
 8    1  0.7232317E-009  0.2437040E+03  0.7561462E-02  0.1117350E+00
         -2   -1    0    0    0  501 -0.00000000000E+00  0.00000000000E+00  0.64586310513E+02  0.64586310513E+02  0.00000000000E+00 0.  1.
          2   -1    0    0  501    0  0.00000000000E+00 -0.00000000000E+00 -0.12510519908E+04  0.12510519908E+04  0.00000000000E+00 0. -1.
         25    2    1    2    0    0 -0.81966528641E+02 -0.22103750140E+03 -0.87276981437E+03  0.91266161749E+03  0.12509192747E+03 0.  0.
         23    2    1    2    0    0  0.81966528641E+02  0.22103750140E+03 -0.31369586594E+03  0.40297668385E+03  0.91700722854E+02 0.  0.
          5    1    3    3  502    0  0.15317282420E+02 -0.89676257258E+01 -0.19487025006E+03  0.19572154764E+03  0.41800000000E+01 0.  1.
         -5    1    3    3    0  502 -0.97283811061E+02 -0.21206987568E+03 -0.67789956431E+03  0.71694006985E+03  0.41800000000E+01 0.  1.
        -11    1    4    4    0    0  0.45903962162E+02  0.13195974831E+03 -0.25386683882E+03  0.28977391319E+03  0.00000000000E+00 0. -1.
         11    1    4    4    0    0  0.36062566479E+02  0.89077753093E+02 -0.59829027124E+02  0.11320277065E+03  0.00000000000E+00 0.  1.
</event>
<event>
 8    1  0.7232317E-009  0.9393617E+02  0.7561462E-02  0.1293590E+00
         -2   -1    0    0    0  501 -0.00000000000E+00  0.00000000000E+00  0.38120606334E+02  0.38120606334E+02  0.00000000000E+00 0.  1.
          2   -1    0    0  501    0  0.00000000000E+00 -0.00000000000E+00 -0.31278203126E+03  0.31278203126E+03  0.00000000000E+00 0. -1.
         25    2    1    2    0    0  0.90825272263E+01 -0.30047671503E+01 -0.17978504212E+03  0.21923053896E+03  0.12509135427E+03 0.  0.
         23    2    1    2    0    0 -0.90825272263E+01  0.30047671503E+01 -0.94876382802E+02  0.13167209864E+03  0.90799188428E+02 0.  0.
          5    1    3    3  502    0 -0.15914199854E+02  0.50700480973E+02 -0.13410152543E+03  0.14430693695E+03  0.41800000000E+01 0. -1.
         -5    1    3    3    0  502  0.24996727080E+02 -0.53705248124E+02 -0.45683516687E+02  0.74923602007E+02  0.41800000000E+01 0. -1.
        -11    1    4    4    0    0  0.32987533584E+02  0.28874257278E+01 -0.64331344872E+01  0.33732770693E+02  0.00000000000E+00 0.  1.
         11    1    4    4    0    0 -0.42070060810E+02  0.11734142249E+00 -0.88443248315E+02  0.97939327944E+02  0.00000000000E+00 0. -1.
</event>
<event>
 7    1  0.7232317E-009  0.8887355E+02  0.7561462E-02  0.1305603E+00
         -1   -1    0    0    0  501 -0.00000000000E+00  0.00000000000E+00  0.13133974459E+03  0.13133974459E+03  0.00000000000E+00 0.  1.
          1   -1    0    0  501    0  0.00000000000E+00 -0.00000000000E+00 -0.18837306689E+03  0.18837306689E+03  0.00000000000E+00 0. -1.
         25    2    1    2    0    0  0.54087824599E+02  0.39532158303E+02 -0.30849544663E+02  0.14521771051E+03  0.12509278448E+03 0.  0.
          5    1    3    3  502    0  0.72136434050E+02  0.33747575094E+02  0.27002212301E+02  0.84197124721E+02  0.41800000000E+01 0. -1.
         -5    1    3    3    0  502 -0.18048609450E+02  0.57845832090E+01 -0.57851756964E+02  0.61020585787E+02  0.41800000000E+01 0. -1.
        -11    1    1    2    0    0 -0.36981819658E+02 -0.47099847204E+02 -0.89939716421E+02  0.10805185413E+03  0.00000000000E+00 0. -1.
         11    1    1    2    0    0 -0.17106004941E+02  0.75676889009E+01  0.63755938787E+02  0.66443246842E+02  0.00000000000E+00 0.  1.
</event>
<event>
 8    1  0.7232317E-009  0.1265461E+03  0.7561462E-02  0.1232673E+00
         -3   -1    0    0    0  501 -0.00000000000E+00  0.00000000000E+00  0.11979505448E+04  0.11979505448E+04  0.00000000000E+00 0.  1.
          3   -1    0    0  501    0  0.00000000000E+00 -0.00000000000E+00 -0.20730038809E+02  0.20730038809E+02  0.00000000000E+00 0. -1.
         25    2    1    2    0    0 -0.43274190123E+02 -0.10220770303E+03  0.73188875957E+03  0.75075107670E+03  0.12508777994E+03 0.  0.
         23    2    1    2    0    0  0.43274190123E+02  0.10220770303E+03  0.44533174638E+03  0.46792950687E+03  0.91206298979E+02 0.  0.
          5    1    3    3  502    0 -0.55442206419E+02 -0.10974359680E+03  0.72300008633E+03  0.73339218193E+03  0.41800000000E+01 0. -1.
         -5    1    3    3    0  502  0.12168016296E+02  0.75358937706E+01  0.88886732432E+01  0.17358894767E+02  0.41800000000E+01 0. -1.
        -11    1    4    4    0    0  0.20231100674E+02  0.82159623211E+02  0.41943666972E+03  0.42788622440E+03  0.00000000000E+00 0.  1.
         11    1    4    4    0    0  0.23043089449E+02  0.20048079823E+02  0.25895076656E+02  0.40043282470E+02  0.00000000000E+00 0. -1.
</event>
<event>
 8    1  0.7232317E-009  0.2297489E+03  0.7561462E-02  0.1126817E+00
         -4   -1    0    0    0  501 -0.00000000000E+00  0.00000000000E+00  0.56119929396E+02  0.56119929396E+02  0.00000000000E+00 0.  1.
          4   -1    0    0  501    0  0.00000000000E+00 -0.00000000000E+00 -0.11105863530E+04  0.11105863530E+04  0.00000000000E+00 0. -1.
         25    2    1    2    0    0  0.29848640076E+02 -0.22134157537E+03 -0.59720276515E+03  0.64975455459E+03  0.12508718642E+03 0.  0.
         23    2    1    2    0    0 -0.29848640076E+02  0.22134157537E+03 -0.45726365842E+03  0.51695172778E+03  0.90917551863E+02 0.  0.
          5    1    3    3  502    0  0.55332206656E+02 -0.15408131234E+03 -0.27914661597E+03  0.32364024705E+03  0.41800000000E+01 0. -1.
         -5    1    3    3    0  502 -0.25483566580E+02 -0.67260263030E+02 -0.31805614918E+03  0.32611430753E+03  0.41800000000E+01 0. -1.
        -11    1    4    4    0    0 -0.12943589654E+02  0.14030116095E+03 -0.18602403440E+03  0.23336000868E+03  0.00000000000E+00 0. -1.
         11    1    4    4    0    0 -0.16905050422E+02  0.81040414411E+02 -0.27123962403E+03  0.28359171909E+03  0.00000000000E+00 0.  1.
</event>
<event>
 8    1  0.7232317E-009  0.8536214E+02  0.7561462E-02  0.1314488E+00
          4   -1    0    0  501    0  0.00000000000E+00  0.00000000000E+00  0.75496000888E+02  0.75496000888E+02  0.00000000000E+00 0. -1.
         -4   -1    0    0    0  501 -0.00000000000E+00 -0.00000000000E+00 -0.19125623982E+03  0.19125623982E+03  0.00000000000E+00 0.  1.
         25    2    1    2    0    0  0.30113572962E+02 -0.38928185543E+02 -0.66206710012E+02  0.14984279265E+03  0.12508918079E+03 0.  0.
         23    2    1    2    0    0 -0.30113572962E+02  0.38928185543E+02 -0.49553528916E+02  0.11690944806E+03  0.93755191383E+02 0.  0.
          5    1    3    3  502    0  0.48021787095E+01 -0.49497741645E+02 -0.96575269683E+02  0.10870760076E+03  0.41800000000E+01 0. -1.
         -5    1    3    3    0  502  0.25311394252E+02  0.10569556102E+02  0.30368559671E+02  0.41135191888E+02  0.41800000000E+01 0. -1.
        -11    1    4    4    0    0 -0.23708089701E+02 -0.21680326422E+02 -0.45672642681E+02  0.55839953085E+02  0.00000000000E+00 0.  1.
         11    1    4    4    0    0 -0.64054832608E+01  0.60608511966E+02 -0.38808862357E+01  0.61069494975E+02  0.00000000000E+00 0. -1.
</event>
<event>
 7    1  0.7232317E-009  0.1426625E+03  0.7561462E-02  0.1209791E+00
          1   -1    0    0  501    0  0.00000000000E+00  0.00000000000E+00  0.33494184974E+03  0.33494184974E+03  0.00000000000E+00 0. -1.
         -1   -1    0    0    0  501 -0.00000000000E+00 -0.00000000000E+00 -0.14270123975E+03  0.14270123975E+03  0.00000000000E+00 0.  1.
         23    2    1    2    0    0 -0.44113046783E+02  0.11299045251E+03 -0.66288511724E+02  0.16599395606E+03  0.91907689603E+02 0.  0.
          5    1    1    2  502    0 -0.25083779029E+02 -0.29307961080E+02  0.95071841312E+01  0.39950112680E+02  0.41800000000E+01 0.  1.
         -5    1    1    2    0  502  0.69196825812E+02 -0.83682491429E+02  0.24902193759E+03  0.27169902075E+03  0.41800000000E+01 0.  1.
        -11    1    3    3    0    0 -0.11490004736E+02  0.10314038809E+03 -0.78147844359E+02  0.12991168324E+03  0.00000000000E+00 0.  1.
         11    1    3    3    0    0 -0.32623042048E+02  0.98500644181E+01  0.11859332636E+02  0.36082272823E+02  0.00000000000E+00 0. -1.
</event>
<event>
 8    1  0.7232317E-009  0.1252646E+03  0.7561462E-02  0.1234656E+00
          2   -1    0    0  501    0  0.00000000000E+00  0.00000000000E+00  0.15292897219E+04  0.15292897219E+04  0.00000000000E+00 0. -1.
         -2   -1    0    0    0  501 -0.00000000000E+00 -0.00000000000E+00 -0.31126681635E+02  0.31126681635E+02  0.00000000000E+00 0.  1.
         25    2    1    2    0    0 -0.11282543918E+03 -0.26946490604E+02  0.13205492693E+04  0.13315232560E+04  0.12509242850E+03 0.  0.
         23    2    1    2    0    0  0.11282543918E+03  0.26946490604E+02  0.17761377100E+03  0.22889314752E+03  0.85963528607E+02 0.  0.
          5    1    3    3  502    0 -0.52837102817E+02 -0.47267415260E+02  0.10924805718E+04  0.10947863902E+04  0.41800000000E+01 0. -1.
         -5    1    3    3    0  502 -0.59988336365E+02  0.20320924657E+02  0.22806869750E+03  0.23673686586E+03  0.41800000000E+01 0. -1.
        -11    1    4    4    0    0  0.77241205378E+02  0.19877469828E+02  0.45361541269E+02  0.91755038234E+02  0.00000000000E+00 0.  1.
         11    1    4    4    0    0  0.35584233804E+02  0.70690207754E+01  0.13225222973E+03  0.13713810928E+03  0.00000000000E+00 0. -1.
</event>
<event>
 8    1  0.7232317E-009  0.1683376E+03  0.7561462E-02  0.1179593E+00
         -2   -1    0    0    0  501 -0.00000000000E+00  0.00000000000E+00  0.42188505278E+02  0.42188505278E+02  0.00000000000E+00 0.  1.
          2   -1    0    0  501    0  0.00000000000E+00 -0.00000000000E+00 -0.11105264396E+04  0.11105264396E+04  0.00000000000E+00 0. -1.
         25    2    1    2    0    0 -0.87232064213E+02 -0.98399463099E+02 -0.90759578833E+03  0.92556461812E+03  0.12509140640E+03 0.  0.
         23    2    1    2    0    0  0.87232064213E+02  0.98399463099E+02 -0.16074214595E+03  0.22715032671E+03  0.92018183403E+02 0.  0.
          5    1    3    3  502    0  0.10473154878E+02  0.22991514815E+02 -0.12656137567E+03  0.12912610479E+03  0.41800000000E+01 0. -1.
         -5    1    3    3    0  502 -0.97705219091E+02 -0.12139097791E+03 -0.78103441266E+03  0.79643851333E+03  0.41800000000E+01 0. -1.
        -11    1    4    4    0    0  0.50655414375E+02  0.48153600276E+00 -0.81587448620E+02  0.96034965792E+02  0.00000000000E+00 0. -1.
         11    1    4    4    0    0  0.36576649838E+02  0.97917927096E+02 -0.79154697327E+02  0.13111536092E+03  0.00000000000E+00 0.  1.
</event>
<event>
 8    1  0.7232317E-009  0.9574102E+02  0.7561462E-02  0.1289516E+00
         -2   -1    0    0    0  501 -0.00000000000E+00  0.00000000000E+00  0.30776052750E+02  0.30776052750E+02  0.00000000000E+00 0.  1.
          2   -1    0    0  501    0  0.00000000000E+00 -0.00000000000E+00 -0.50932279558E+03  0.50932279558E+03  0.00000000000E+00 0. -1.
         25    2    1    2    0    0  0.14906517400E+02  0.62395458358E+02 -0.28573888401E+03  0.31845129380E+03  0.12509643963E+03 0.  0.
         23    2    1    2    0    0 -0.14906517400E+02 -0.62395458358E+02 -0.19280785882E+03  0.22164755452E+03  0.88528924757E+02 0.  0.
          5    1    3    3  502    0  0.31839641758E+02  0.90242691195E+01 -0.24928481745E+03  0.25150664570E+03  0.41800000000E+01 0.  1.
         -5    1    3    3    0  502 -0.16933124358E+02  0.53371189239E+02 -0.36454066558E+02  0.66944648105E+02  0.41800000000E+01 0.  1.
        -11    1    4    4    0    0  0.31868982515E+02 -0.14444626914E+02 -0.31882078510E+02  0.47336521031E+02  0.00000000000E+00 0.  1.
         11    1    4    4    0    0 -0.46775499915E+02 -0.47950831444E+02 -0.16092578031E+03  0.17431103349E+03  0.00000000000E+00 0. -1.
</event>
<event>
 8    1  0.7232317E-009  0.1055482E+03  0.7561462E-02  0.1269043E+00
         -3   -1    0    0    0  501 -0.00000000000E+00  0.00000000000E+00  0.23404398686E+03  0.23404398686E+03  0.00000000000E+00 0.  1.
          3   -1    0    0  501    0  0.00000000000E+00 -0.00000000000E+00 -0.72270514786E+02  0.72270514786E+02  0.00000000000E+00 0. -1.
         25    2    1    2    0    0  0.36523080628E+02  0.21980718711E+02  0.22186193019E+02  0.13400250970E+03  0.12508940016E+03 0.  0.
         23    2    1    2    0    0 -0.36523080628E+02 -0.21980718711E+02  0.13958727906E+03  0.17231199195E+03  0.91595451204E+02 0.  0.
          5    1    3    3  502    0 -0.10573456379E+02 -0.43690161284E+02  0.27577601492E+02  0.52902029043E+02  0.41800000000E+01 0. -1.
         -5    1    3    3    0  502  0.47096537007E+02  0.65670879995E+02 -0.53914084727E+01  0.81100480656E+02  0.41800000000E+01 0. -1.
        -11    1    4    4    0    0  0.19357777370E+02  0.87645673995E+01  0.28611399421E+01  0.21441252486E+02  0.00000000000E+00 0. -1.
         11    1    4    4    0    0 -0.55880857998E+02 -0.30745286110E+02  0.13672613912E+03  0.15087073946E+03  0.00000000000E+00 0.  1.
</event>
<event>
 8    1  0.7232317E-009  0.1524437E+03  0.7561462E-02  0.1197502E+00
         -2   -1    0    0    0  501 -0.00000000000E+00  0.00000000000E+00  0.99795983388E+02  0.99795983388E+02  0.00000000000E+00 0.  1.
          2   -1    0    0  501    0  0.00000000000E+00 -0.00000000000E+00 -0.28856097695E+03  0.28856097695E+03  0.00000000000E+00 0. -1.
         25    2    1    2    0    0  0.96469849115E+02  0.76655076277E+02 -0.53789758300E+02  0.18364010663E+03  0.12509163905E+03 0.  0.
         23    2    1    2    0    0 -0.96469849115E+02 -0.76655076277E+02 -0.13497523527E+03  0.20471685371E+03  0.92240140665E+02 0.  0.
          5    1    3    3  502    0  0.78128208997E+01  0.85845949656E+02 -0.28714719309E+02  0.90953695625E+02  0.41800000000E+01 0.  1.
         -5    1    3    3    0  502  0.88657028215E+02 -0.91908733793E+01 -0.25075038990E+02  0.92686411009E+02  0.41800000000E+01 0.  1.
        -11    1    4    4    0    0 -0.34891731786E+01 -0.20367988882E+02 -0.80555457427E+02  0.83163760268E+02  0.00000000000E+00 0. -1.
         11    1    4    4    0    0 -0.92980675936E+02 -0.56287087395E+02 -0.54419777838E+02  0.12155309344E+03  0.00000000000E+00 0.  1.
</event>
<event>
 8    1  0.7232317E-009  0.3395960E+03  0.7561462E-02  0.1066968E+00
          2   -1    0    0  501    0  0.00000000000E+00  0.00000000000E+00  0.16348202109E+04  0.16348202109E+04  0.00000000000E+00 0.  1.
         -2   -1    0    0    0  501 -0.00000000000E+00 -0.00000000000E+00 -0.75531069597E+02  0.75531069597E+02  0.00000000000E+00 0. -1.
         25    2    1    2    0    0  0.15709815637E+03 -0.29376221317E+03  0.73745338176E+03  0.81881687909E+03  0.12509005792E+03 0.  0.
         23    2    1    2    0    0 -0.15709815637E+03  0.29376221317E+03  0.82183575959E+03  0.89153440145E+03  0.91888544515E+02 0.  0.
          5    1    3    3  502    0  0.15011794938E+03 -0.28468946663E+03  0.73945185800E+03  0.80646761487E+03  0.41800000000E+01 0.  1.
         -5    1    3    3    0  502  0.69802069875E+01 -0.90727465422E+01 -0.19984762415E+01  0.12349264217E+02  0.41800000000E+01 0.  1.
        -11    1    4    4    0    0 -0.59675719273E+00  0.81052656138E+02  0.17455143792E+03  0.19245283492E+03  0.00000000000E+00 0. -1.
         11    1    4    4    0    0 -0.15650139918E+03  0.21270955703E+03  0.64728432166E+03  0.69908156653E+03  0.00000000000E+00 0.  1.
</event>
<event>
 8    1  0.7232317E-009  0.1170543E+03  0.7561462E-02  0.1248037E+00
         -2   -1    0    0    0  501 -0.00000000000E+00  0.00000000000E+00  0.21110514851E+03  0.21110514851E+03  0.00000000000E+00 0. -1.
          2   -1    0    0  501    0  0.00000000000E+00 -0.00000000000E+00 -0.80332942526E+02  0.80332942526E+02  0.00000000000E+00 0.  1.
         25    2    1    2    0    0  0.55677414286E+02 -0.38428415532E+02  0.57189041617E+02  0.15328987052E+03  0.12510187984E+03 0.  0.
         23    2    1    2    0    0 -0.55677414286E+02  0.38428415532E+02  0.73583164362E+02  0.13814822051E+03  0.95361056893E+02 0.  0.
          5    1    3    3  502    0 -0.39069402408E+02 -0.91825604359E+01  0.36292321698E+01  0.40513964837E+02  0.41800000000E+01 0.  1.
         -5    1    3    3    0  502  0.94746816694E+02 -0.29245855096E+02  0.53559809447E+02  0.11277590568E+03  0.41800000000E+01 0.  1.
        -11    1    4    4    0    0 -0.26976493653E+02  0.55079073252E+02  0.83420597654E+02  0.10353951725E+03  0.00000000000E+00 0. -1.
         11    1    4    4    0    0 -0.28700920632E+02 -0.16650657719E+02 -0.98374332916E+01  0.34608703261E+02  0.00000000000E+00 0.  1.
</event>
<event>
 8    1  0.7232317E-009  0.1033577E+03  0.7561462E-02  0.1273389E+00
          1   -1    0    0  501    0  0.00000000000E+00  0.00000000000E+00  0.85226042828E+02  0.85226042828E+02  0.00000000000E+00 0. -1.
         -1   -1    0    0    0  501 -0.00000000000E+00 -0.00000000000E+00 -0.16446015410E+03  0.16446015410E+03  0.00000000000E+00 0.  1.
         25    2    1    2    0    0 -0.14586101188E+02 -0.40676477728E+02 -0.64776606380E+02  0.14734437447E+03  0.12508807204E+03 0.  0.
         23    2    1    2    0    0  0.14586101188E+02  0.40676477728E+02 -0.14457504897E+02  0.10234182246E+03  0.91637868748E+02 0.  0.
          5    1    3    3  502    0  0.39237599346E+02 -0.34416393061E+02 -0.75568673279E+02  0.91935706311E+02  0.41800000000E+01 0. -1.
         -5    1    3    3    0  502 -0.53823700534E+02 -0.62600846665E+01  0.10792066899E+02  0.55408668159E+02  0.41800000000E+01 0. -1.
        -11    1    4    4    0    0  0.27302496954E+02 -0.22614709809E+02 -0.13027594823E+02  0.37769957196E+02  0.00000000000E+00 0.  1.
         11    1    4    4    0    0 -0.12716395766E+02  0.63291187537E+02 -0.14299100749E+01  0.64571865266E+02  0.00000000000E+00 0. -1.
</event>
<event>
 8    1  0.7232317E-009  0.5720656E+02  0.7561462E-02  0.1409943E+00
          1   -1    0    0  501    0  0.00000000000E+00  0.00000000000E+00  0.87194816883E+02  0.87194816883E+02  0.00000000000E+00 0.  1.
         -1   -1    0    0    0  501 -0.00000000000E+00 -0.00000000000E+00 -0.15716776948E+03  0.15716776948E+03  0.00000000000E+00 0. -1.
         25    2    1    2    0    0 -0.38161855551E+02 -0.20849988859E+02 -0.28942792623E+02  0.13556076464E+03  0.12509191185E+03 0.  0.
         23    2    1    2    0    0  0.38161855551E+02  0.20849988859E+02 -0.41030159977E+02  0.10880182172E+03  0.90902767439E+02 0.  0.
          5    1    3    3  502    0 -0.26791864000E+02  0.42103021088E+01  0.47140538945E+02  0.54545700403E+02  0.41800000000E+01 0. -1.
         -5    1    3    3    0  502 -0.11369991551E+02 -0.25060290968E+02 -0.76083331568E+02  0.81015064240E+02  0.41800000000E+01 0. -1.
        -11    1    4    4    0    0  0.87829868068E+00 -0.10432078780E+02 -0.56711184856E+02  0.57669386714E+02  0.00000000000E+00 0. -1.
         11    1    4    4    0    0  0.37283556871E+02  0.31282067640E+02  0.15681024878E+02  0.51132435010E+02  0.00000000000E+00 0.  1.
</event>
<event>
 8    1  0.7232317E-009  0.4919370E+02  0.7561462E-02  0.1449740E+00
          2   -1    0    0  501    0  0.00000000000E+00  0.00000000000E+00  0.33959048606E+02  0.33959048606E+02  0.00000000000E+00 0. -1.
         -2   -1    0    0    0  501 -0.00000000000E+00 -0.00000000000E+00 -0.37462180772E+03  0.37462180772E+03  0.00000000000E+00 0.  1.
         25    2    1    2    0    0  0.24279206453E+02 -0.14741030546E+01 -0.21516013846E+03  0.25006637084E+03  0.12509057437E+03 0.  0.
         23    2    1    2    0    0 -0.24279206453E+02  0.14741030546E+01 -0.12550262066E+03  0.15851448549E+03  0.93724497717E+02 0.  0.
          5    1    3    3  502    0  0.31610725529E+02 -0.60666731331E+01 -0.23005939674E+03  0.23233777334E+03  0.41800000000E+01 0. -1.
         -5    1    3    3    0  502 -0.73315190757E+01  0.45925700785E+01  0.14899258283E+02  0.17728597499E+02  0.41800000000E+01 0. -1.
        -11    1    4    4    0    0  0.68414585209E+01  0.19286293351E+02 -0.12059928179E+03  0.12232315167E+03  0.00000000000E+00 0.  1.
         11    1    4    4    0    0 -0.31120664974E+02 -0.17812190296E+02 -0.49033388654E+01  0.36191333819E+02  0.00000000000E+00 0. -1.
</event>
<event>
 8    1  0.7232317E-009  0.8452326E+02  0.7561462E-02  0.1316684E+00
          3   -1    0    0  501    0  0.00000000000E+00  0.00000000000E+00  0.11212680648E+03  0.11212680648E+03  0.00000000000E+00 0. -1.
         -3   -1    0    0    0  501 -0.00000000000E+00 -0.00000000000E+00 -0.14189747524E+03  0.14189747524E+03  0.00000000000E+00 0.  1.
         25    2    1    2    0    0  0.56030778638E+02 -0.50093568849E+01 -0.51966496542E+02  0.14667418034E+03  0.12509299183E+03 0.  0.
         23    2    1    2    0    0 -0.56030778638E+02  0.50093568849E+01  0.22195827788E+02  0.10735010138E+03  0.88695251754E+02 0.  0.
          5    1    3    3  502    0  0.21578076097E+02 -0.49778172388E+02 -0.68671446412E+02  0.87616892017E+02  0.41800000000E+01 0.  1.
         -5    1    3    3    0  502  0.34452702541E+02  0.44768815504E+02  0.16704949870E+02  0.59057288323E+02  0.41800000000E+01 0.  1.
        -11    1    4    4    0    0 -0.44355982671E+02  0.97006078591E+01  0.55524616496E+02  0.71725435018E+02  0.00000000000E+00 0. -1.
         11    1    4    4    0    0 -0.11674795967E+02 -0.46912509742E+01 -0.33328788708E+02  0.35624666361E+02  0.00000000000E+00 0.  1.
</event>
<event>
 8    1  0.7232317E-009  0.1341764E+03  0.7561462E-02  0.1221387E+00
         -2   -1    0    0    0  501 -0.00000000000E+00  0.00000000000E+00  0.11636859955E+02  0.11636859955E+02  0.00000000000E+00 0.  1.
          2   -1    0    0  501    0  0.00000000000E+00 -0.00000000000E+00 -0.18917556361E+04  0.18917556361E+04  0.00000000000E+00 0. -1.
         25    2    1    2    0    0 -0.61260502354E+02  0.64722511460E+02 -0.13218997208E+04  0.13307918596E+04  0.12508496778E+03 0.  0.
         23    2    1    2    0    0  0.61260502354E+02 -0.64722511460E+02 -0.55821905539E+03  0.57260063647E+03  0.91220186631E+02 0.  0.
          5    1    3    3  502    0  0.13095912239E+02  0.70008622811E+02 -0.44100880084E+03  0.44674259367E+03  0.41800000000E+01 0. -1.
         -5    1    3    3    0  502 -0.74356414593E+02 -0.52861113511E+01 -0.88089091995E+03  0.88404926595E+03  0.41800000000E+01 0. -1.
        -11    1    4    4    0    0  0.74485730130E+02 -0.22064542874E+02 -0.42646733929E+03  0.43348513184E+03  0.00000000000E+00 0.  1.
         11    1    4    4    0    0 -0.13225227777E+02 -0.42657968586E+02 -0.13175171610E+03  0.13911550463E+03  0.00000000000E+00 0. -1.
</event>
<event>
 8    1  0.7232317E-009  0.1405152E+03  0.7561462E-02  0.1212637E+00
          1   -1    0    0  501    0  0.00000000000E+00  0.00000000000E+00  0.18266693395E+03  0.18266693395E+03  0.00000000000E+00 0. -1.
         -1   -1    0    0    0  501 -0.00000000000E+00 -0.00000000000E+00 -0.12834565070E+03  0.12834565070E+03  0.00000000000E+00 0.  1.
         25    2    1    2    0    0 -0.89774168610E+02 -0.35123959928E+02 -0.19008921767E+02  0.15906575694E+03  0.12508989573E+03 0.  0.
         23    2    1    2    0    0  0.89774168610E+02  0.35123959928E+02  0.73330205014E+02  0.15194682771E+03  0.91746528938E+02 0.  0.
          5    1    3    3  502    0 -0.66380864633E+02 -0.81869393347E+02 -0.12123347306E+02  0.10617657325E+03  0.41800000000E+01 0. -1.
         -5    1    3    3    0  502 -0.23393303977E+02  0.46745433419E+02 -0.68855744612E+01  0.52889183697E+02  0.41800000000E+01 0. -1.
        -11    1    4    4    0    0  0.93483512918E+02  0.59202564698E+01  0.27764771218E+02  0.97699023255E+02  0.00000000000E+00 0.  1.
         11    1    4    4    0    0 -0.37093443084E+01  0.29203703458E+02  0.45565433795E+02  0.54247804452E+02  0.00000000000E+00 0. -1.
</event>
<event>
 8    1  0.7232317E-009  0.8326919E+02  0.7561462E-02  0.1320022E+00
         -2   -1    0    0    0  501 -0.00000000000E+00  0.00000000000E+00  0.22432806504E+02  0.22432806504E+02  0.00000000000E+00 0. -1.
          2   -1    0    0  501    0  0.00000000000E+00 -0.00000000000E+00 -0.90234385414E+03  0.90234385414E+03  0.00000000000E+00 0.  1.
         25    2    1    2    0    0 -0.16052626403E+02 -0.55626257923E+01 -0.77689116166E+03  0.78708047559E+03  0.12508864205E+03 0.  0.
         23    2    1    2    0    0  0.16052626403E+02  0.55626257923E+01 -0.10301988598E+03  0.13769618505E+03  0.89769219957E+02 0.  0.
          5    1    3    3  502    0 -0.19995225817E+00 -0.58314565475E+02 -0.56827177955E+03  0.57127131589E+03  0.41800000000E+01 0.  1.
         -5    1    3    3    0  502 -0.15852674145E+02  0.52751939683E+02 -0.20861938211E+03  0.21580915970E+03  0.41800000000E+01 0.  1.
        -11    1    4    4    0    0 -0.84032592921E+01 -0.17377002779E+02 -0.10235463088E+03  0.10415875122E+03  0.00000000000E+00 0.  1.
         11    1    4    4    0    0  0.24455885695E+02  0.22939628571E+02 -0.66525509651E+00  0.33537433838E+02  0.00000000000E+00 0. -1.
</event>
<event>
 8    1  0.7232317E-009  0.9351065E+02  0.7561462E-02  0.1294566E+00
          2   -1    0    0  501    0  0.00000000000E+00  0.00000000000E+00  0.33970431540E+03  0.33970431540E+03  0.00000000000E+00 0. -1.
         -2   -1    0    0    0  501 -0.00000000000E+00 -0.00000000000E+00 -0.43149512271E+02  0.43149512271E+02  0.00000000000E+00 0.  1.
         25    2    1    2    0    0  0.27250706947E+02 -0.40941091655E+02  0.21695296826E+03  0.25521580366E+03  0.12509093487E+03 0.  0.
         23    2    1    2    0    0 -0.27250706947E+02  0.40941091655E+02  0.79601834870E+02  0.12763802401E+03  0.86811514465E+02 0.  0.
          5    1    3    3  502    0  0.53391858436E+02  0.14394226117E+02  0.16744005075E+03  0.17638460048E+03  0.41800000000E+01 0. -1.
         -5    1    3    3    0  502 -0.26141151489E+02 -0.55335317772E+02  0.49512917513E+02  0.78831203180E+02  0.41800000000E+01 0. -1.
        -11    1    4    4    0    0 -0.48764734283E+01 -0.11889318183E+02  0.67872553893E+02  0.69078357333E+02  0.00000000000E+00 0. -1.
         11    1    4    4    0    0 -0.22374233519E+02  0.52830409837E+02  0.11729280977E+02  0.58559666678E+02  0.00000000000E+00 0.  1.
</event>
<event>
 8    1  0.7232317E-009  0.1331445E+03  0.7561462E-02  0.1222863E+00
         -1   -1    0    0    0  501 -0.00000000000E+00  0.00000000000E+00  0.23129729575E+02  0.23129729575E+02  0.00000000000E+00 0.  1.
          1   -1    0    0  501    0  0.00000000000E+00 -0.00000000000E+00 -0.94876864443E+03  0.94876864443E+03  0.00000000000E+00 0. -1.
         25    2    1    2    0    0  0.45436458458E+02  0.79171431625E+02 -0.36317828649E+03  0.39481388192E+03  0.12508775414E+03 0.  0.
         23    2    1    2    0    0 -0.45436458458E+02 -0.79171431625E+02 -0.56246062837E+03  0.57708449209E+03  0.91279599052E+02 0.  0.
          5    1    3    3  502    0  0.17365421911E+02 -0.25572522443E+02 -0.17353375470E+03  0.17631491202E+03  0.41800000000E+01 0. -1.
         -5    1    3    3    0  502  0.28071036547E+02  0.10474395407E+03 -0.18964453179E+03  0.21849896989E+03  0.41800000000E+01 0. -1.
        -11    1    4    4    0    0 -0.72067799588E+02 -0.55836581321E+02 -0.34921151096E+03  0.36091573939E+03  0.00000000000E+00 0. -1.
         11    1    4    4    0    0  0.26631341130E+02 -0.23334850304E+02 -0.21324911741E+03  0.21616875270E+03  0.00000000000E+00 0.  1.
</event>
<event>
 8    1  0.7232317E-009  0.1904713E+03  0.7561462E-02  0.1158037E+00
         -1   -1    0    0    0  501 -0.00000000000E+00  0.00000000000E+00  0.36642817725E+02  0.36642817725E+02  0.00000000000E+00 0.  1.
          1   -1    0    0  501    0  0.00000000000E+00 -0.00000000000E+00 -0.11000794265E+04  0.11000794265E+04  0.00000000000E+00 0. -1.
         25    2    1    2    0    0 -0.27195485298E+02  0.16110175839E+03 -0.67551519611E+03  0.70616020274E+03  0.12509228907E+03 0.  0.
         23    2    1    2    0    0  0.27195485298E+02 -0.16110175839E+03 -0.38792141271E+03  0.43056204153E+03  0.90594029546E+02 0.  0.
          5    1    3    3  502    0 -0.63668906650E+02  0.63387561025E+02 -0.19953103316E+03  0.21886483994E+03  0.41800000000E+01 0.  1.
         -5    1    3    3    0  502  0.36473421352E+02  0.97714197363E+02 -0.47598416295E+03  0.48729536280E+03  0.41800000000E+01 0.  1.
        -11    1    4    4    0    0  0.53946143216E+02 -0.54390028803E+02 -0.14957096826E+03  0.16804742231E+03  0.00000000000E+00 0.  1.
         11    1    4    4    0    0 -0.26750657918E+02 -0.10671172958E+03 -0.23835044445E+03  0.26251461921E+03  0.00000000000E+00 0. -1.
</event>
<event>
 8    1  0.7232317E-009  0.1128114E+03  0.7561462E-02  0.1255450E+00
         -1   -1    0    0    0  501 -0.00000000000E+00  0.00000000000E+00  0.14982237082E+03  0.14982237082E+03  0.00000000000E+00 0.  1.
          1   -1    0    0  501    0  0.00000000000E+00 -0.00000000000E+00 -0.27157822928E+03  0.27157822928E+03  0.00000000000E+00 0. -1.
         25    2    1    2    0    0 -0.83021933645E+02  0.62115446660E+02 -0.20425863520E+03  0.26099797745E+03  0.12508950395E+03 0.  0.
         23    2    1    2    0    0  0.83021933645E+02 -0.62115446660E+02  0.82502776738E+02  0.16040262265E+03  0.90395370478E+02 0.  0.
          5    1    3    3  502    0 -0.81956413492E+02  0.33952121932E+02 -0.21334595731E+03  0.23109212491E+03  0.41800000000E+01 0. -1.
         -5    1    3    3    0  502 -0.10655201536E+01  0.28163324727E+02  0.90873221080E+01  0.29905852537E+02  0.41800000000E+01 0. -1.
        -11    1    4    4    0    0  0.15415238605E+02 -0.29442627415E+02  0.78457319281E+02  0.85205920212E+02  0.00000000000E+00 0.  1.
         11    1    4    4    0    0  0.67606695040E+02 -0.32672819244E+02  0.40454574567E+01  0.75196702439E+02  0.00000000000E+00 0. -1.
</event>
<event>
 8    1  0.7232317E-009  0.2294341E+03  0.7561462E-02  0.1127039E+00
          1   -1    0    0  501    0  0.00000000000E+00  0.00000000000E+00  0.30244182935E+03  0.30244182935E+03  0.00000000000E+00 0.  1.
         -1   -1    0    0    0  501 -0.00000000000E+00 -0.00000000000E+00 -0.20119990525E+03  0.20119990525E+03  0.00000000000E+00 0. -1.
         25    2    1    2    0    0  0.22124159462E+03  0.20561869928E+02  0.74073436742E+02  0.26553119698E+03  0.12509719762E+03 0.  0.
         23    2    1    2    0    0 -0.22124159462E+03 -0.20561869928E+02  0.27168487356E+02  0.23811053763E+03  0.81165680792E+02 0.  0.
          5    1    3    3  502    0  0.18586328276E+03  0.17462727516E+02  0.38969671338E+01  0.18676928410E+03  0.41800000000E+01 0.  1.
         -5    1    3    3    0  502  0.35378311862E+02  0.30991424123E+01  0.70176469608E+02  0.78761912881E+02  0.41800000000E+01 0.  1.
        -11    1    4    4    0    0 -0.39496501026E+02 -0.36706645929E+02  0.23660527817E+01  0.53971748669E+02  0.00000000000E+00 0.  1.
         11    1    4    4    0    0 -0.18174509360E+03  0.16144776001E+02  0.24802434575E+02  0.18413878896E+03  0.00000000000E+00 0. -1.
</event>
<event>
 8    1  0.7232317E-009  0.1036586E+03  0.7561462E-02  0.1272785E+00
         -2   -1    0    0    0  501 -0.00000000000E+00  0.00000000000E+00  0.13217796007E+03  0.13217796007E+03  0.00000000000E+00 0.  1.
          2   -1    0    0  501    0  0.00000000000E+00 -0.00000000000E+00 -0.10508439181E+03  0.10508439181E+03  0.00000000000E+00 0. -1.
         25    2    1    2    0    0  0.18104181531E+01 -0.25610309499E+02 -0.23420459768E+02  0.12982723152E+03  0.12508967400E+03 0.  0.
         23    2    1    2    0    0 -0.18104181531E+01  0.25610309499E+02  0.50514028029E+02  0.10743512035E+03  0.91276900097E+02 0.  0.
          5    1    3    3  502    0  0.43753545228E+02  0.32906134625E+02 -0.16741498046E+02  0.57401538070E+02  0.41800000000E+01 0. -1.
         -5    1    3    3    0  502 -0.41943127074E+02 -0.58516444123E+02 -0.66789617220E+01  0.72425693447E+02  0.41800000000E+01 0. -1.
        -11    1    4    4    0    0  0.26605090553E+02  0.40312563322E+02  0.57081256729E+02  0.74774350379E+02  0.00000000000E+00 0.  1.
         11    1    4    4    0    0 -0.28415508706E+02 -0.14702253823E+02 -0.65672287002E+01  0.32660769974E+02  0.00000000000E+00 0. -1.
</event>
<event>
 8    1  0.7232317E-009  0.1929526E+03  0.7561462E-02  0.1155825E+00
         -2   -1    0    0    0  501 -0.00000000000E+00  0.00000000000E+00  0.38394556132E+02  0.38394556132E+02  0.00000000000E+00 0.  1.
          2   -1    0    0  501    0  0.00000000000E+00 -0.00000000000E+00 -0.12126063815E+04  0.12126063815E+04  0.00000000000E+00 0. -1.
         25    2    1    2    0    0  0.66801904397E+01 -0.18256400243E+03 -0.51989566496E+03  0.56507906246E+03  0.12509438224E+03 0.  0.
         23    2    1    2    0    0 -0.66801904397E+01  0.18256400243E+03 -0.65431616038E+03  0.68592187514E+03  0.94788929366E+02 0.  0.
          5    1    3    3  502    0 -0.13618605359E+02 -0.30339975022E+02 -0.13918164939E+02  0.36292812119E+02  0.41800000000E+01 0. -1.
         -5    1    3    3    0  502  0.20298795799E+02 -0.15222402741E+03 -0.50597750002E+03  0.52878625035E+03  0.41800000000E+01 0. -1.
        -11    1    4    4    0    0  0.90435566056E+01 -0.51368774990E+01 -0.92530650546E+01  0.13920942476E+02  0.00000000000E+00 0.  1.
         11    1    4    4    0    0 -0.15723747045E+02  0.18770087993E+03 -0.64506309533E+03  0.67200093266E+03  0.00000000000E+00 0. -1.
</event>
<event>
 8    1  0.7232317E-009  0.9511590E+02  0.7561462E-02  0.1290915E+00
          1   -1    0    0  501    0  0.00000000000E+00  0.00000000000E+00  0.16044395965E+03  0.16044395965E+03  0.00000000000E+00 0. -1.
         -1   -1    0    0    0  501 -0.00000000000E+00 -0.00000000000E+00 -0.85240422908E+02  0.85240422908E+02  0.00000000000E+00 0.  1.
         25    2    1    2    0    0  0.35264502513E+02 -0.22127193490E+02  0.35922800014E+02  0.13664601379E+03  0.12509391550E+03 0.  0.
         23    2    1    2    0    0 -0.35264502513E+02  0.22127193490E+02  0.39280736727E+02  0.10903836876E+03  0.92807282879E+02 0.  0.
          5    1    3    3  502    0  0.19123437099E+02  0.39469984089E+02  0.54596665596E+02  0.70155924801E+02  0.41800000000E+01 0. -1.
         -5    1    3    3    0  502  0.16141065414E+02 -0.61597177580E+02 -0.18673865582E+02  0.66490088993E+02  0.41800000000E+01 0. -1.
        -11    1    4    4    0    0  0.18266557740E+02 -0.90780611845E+01 -0.16059151278E+02  0.25961022058E+02  0.00000000000E+00 0.  1.
         11    1    4    4    0    0 -0.53531060253E+02  0.31205254675E+02  0.55339888005E+02  0.83077346705E+02  0.00000000000E+00 0. -1.
</event>
<event>
 8    1  0.7232317E-009  0.1490078E+03  0.7561462E-02  0.1201698E+00
         -2   -1    0    0    0  501 -0.00000000000E+00  0.00000000000E+00  0.86856121625E+02  0.86856121625E+02  0.00000000000E+00 0. -1.
          2   -1    0    0  501    0  0.00000000000E+00 -0.00000000000E+00 -0.41667460657E+03  0.41667460657E+03  0.00000000000E+00 0.  1.
         25    2    1    2    0    0  0.74824370182E+02  0.90670315243E+02 -0.31086479146E+03  0.35510947888E+03  0.12508409562E+03 0.  0.
         23    2    1    2    0    0 -0.74824370182E+02 -0.90670315243E+02 -0.18953693484E+02  0.14842124932E+03  0.88599279420E+02 0.  0.
          5    1    3    3  502    0 -0.24291845975E+02  0.95952490751E+01 -0.10314194236E+02  0.28390448894E+02  0.41800000000E+01 0.  1.
         -5    1    3    3    0  502  0.99116216157E+02  0.81075066168E+02 -0.30055059723E+03  0.32671902998E+03  0.41800000000E+01 0.  1.
        -11    1    4    4    0    0 -0.73222957824E+02 -0.24437718040E+02  0.64580627193E+01  0.77462960114E+02  0.00000000000E+00 0. -1.
         11    1    4    4    0    0 -0.16014123581E+01 -0.66232597203E+02 -0.25411756203E+02  0.70958289207E+02  0.00000000000E+00 0.  1.
</event>
<event>
 8    1  0.7232317E-009  0.8647395E+02  0.7561462E-02  0.1311622E+00
          3   -1    0    0  501    0  0.00000000000E+00  0.00000000000E+00  0.63487765375E+02  0.63487765375E+02  0.00000000000E+00 0. -1.
         -3   -1    0    0    0  501 -0.00000000000E+00 -0.00000000000E+00 -0.20013413862E+03  0.20013413862E+03  0.00000000000E+00 0.  1.
         25    2    1    2    0    0 -0.14541189794E+02  0.24193226476E+02 -0.59802789463E+02  0.14149495106E+03  0.12509072364E+03 0.  0.
         23    2    1    2    0    0  0.14541189794E+02 -0.24193226476E+02 -0.76843583782E+02  0.12212695293E+03  0.90627246764E+02 0.  0.
          5    1    3    3  502    0 -0.64665089678E+02 -0.53665294545E+01 -0.50691724470E+02  0.82446933183E+02  0.41800000000E+01 0. -1.
         -5    1    3    3    0  502  0.50123899884E+02  0.29559755930E+02 -0.91110649932E+01  0.59048017880E+02  0.41800000000E+01 0. -1.
        -11    1    4    4    0    0  0.12856671492E+02 -0.35705818688E+02 -0.94014628238E+02  0.10138515578E+03  0.00000000000E+00 0.  1.
         11    1    4    4    0    0  0.16845183025E+01  0.11512592212E+02  0.17171044456E+02  0.20741797151E+02  0.00000000000E+00 0. -1.
</event>
<event>
 8    1  0.7232317E-009  0.8003656E+02  0.7561462E-02  0.1328948E+00
          2   -1    0    0  501    0  0.00000000000E+00  0.00000000000E+00  0.37949967651E+03  0.37949967651E+03  0.00000000000E+00 0. -1.
         -2   -1    0    0    0  501 -0.00000000000E+00 -0.00000000000E+00 -0.36378674328E+02  0.36378674328E+02  0.00000000000E+00 0.  1.
         25    2    1    2    0    0  0.22235339373E+02  0.39361854641E+02  0.17921993405E+03  0.22318510197E+03  0.12509212230E+03 0.  0.
         23    2    1    2    0    0 -0.22235339373E+02 -0.39361854641E+02  0.16390106813E+03  0.19269324887E+03  0.90682755291E+02 0.  0.
          5    1    3    3  502    0  0.65720198611E+01 -0.12074590438E+02 -0.15499514406E+02  0.21135149067E+02  0.41800000000E+01 0.  1.
         -5    1    3    3    0  502  0.15663319512E+02  0.51436445078E+02  0.19471944846E+03  0.20204995290E+03  0.41800000000E+01 0.  1.
        -11    1    4    4    0    0  0.10585488542E+02  0.20745114651E+02  0.12292871929E+02  0.26334901743E+02  0.00000000000E+00 0.  1.
         11    1    4    4    0    0 -0.32820827915E+02 -0.60106969292E+02  0.15160819620E+03  0.16635834713E+03  0.00000000000E+00 0. -1.
</event>
<event>
 8    1  0.7232317E-009  0.1409709E+03  0.7561462E-02  0.1212028E+00
         -1   -1    0    0    0  501 -0.00000000000E+00  0.00000000000E+00  0.61336858266E+03  0.61336858266E+03  0.00000000000E+00 0.  1.
          1   -1    0    0  501    0  0.00000000000E+00 -0.00000000000E+00 -0.35605317888E+02  0.35605317888E+02  0.00000000000E+00 0. -1.
         25    2    1    2    0    0  0.44734849810E+02 -0.83043680726E+02  0.38372630150E+03  0.41447638298E+03  0.12508931964E+03 0.  0.
         23    2    1    2    0    0 -0.44734849810E+02  0.83043680726E+02  0.19403696327E+03  0.23449751757E+03  0.91876454732E+02 0.  0.
          5    1    3    3  502    0  0.71304013292E+02 -0.26776649101E+01  0.19119220307E+03  0.20411605305E+03  0.41800000000E+01 0.  1.
         -5    1    3    3    0  502 -0.26569163482E+02 -0.80366015816E+02  0.19253409843E+03  0.21036032992E+03  0.41800000000E+01 0.  1.
        -11    1    4    4    0    0 -0.17175894589E+02 -0.15657509278E+02  0.69132426370E+02  0.72934637364E+02  0.00000000000E+00 0.  1.
         11    1    4    4    0    0 -0.27558955221E+02  0.98701190005E+02  0.12490453690E+03  0.16156288020E+03  0.00000000000E+00 0. -1.
</event>
<event>
 8    1  0.7232317E-009  0.6317189E+02  0.7561462E-02  0.1384983E+00
          1   -1    0    0  501    0  0.00000000000E+00  0.00000000000E+00  0.20077688125E+03  0.20077688125E+03  0.00000000000E+00 0. -1.
         -1   -1    0    0    0  501 -0.00000000000E+00 -0.00000000000E+00 -0.66434757022E+02  0.66434757022E+02  0.00000000000E+00 0.  1.
         25    2    1    2    0    0  0.54291123225E+02 -0.20015674027E+02  0.79610763388E+02  0.15916540612E+03  0.12509036570E+03 0.  0.
         23    2    1    2    0    0 -0.54291123225E+02  0.20015674027E+02  0.54731360842E+02  0.10804623215E+03  0.73008993661E+02 0.  0.
          5    1    3    3  502    0 -0.33871476400E+01 -0.50412820362E+01 -0.31857400889E+02  0.32699444721E+02  0.41800000000E+01 0. -1.
         -5    1    3    3    0  502  0.57678270865E+02 -0.14974391991E+02  0.11146816428E+03  0.12646596140E+03  0.41800000000E+01 0. -1.
        -11    1    4    4    0    0 -0.31237759489E+02  0.18096404456E+02  0.71077913524E+02  0.79720431904E+02  0.00000000000E+00 0. -1.
         11    1    4    4    0    0 -0.23053363736E+02  0.19192695712E+01 -0.16346552682E+02  0.28325800250E+02  0.00000000000E+00 0.  1.
</event>
<event>
 8    1  0.7232317E-009  0.1021521E+03  0.7561462E-02  0.1275834E+00
          1   -1    0    0  501    0  0.00000000000E+00  0.00000000000E+00  0.56204504653E+03  0.56204504653E+03  0.00000000000E+00 0. -1.
         -1   -1    0    0    0  501 -0.00000000000E+00 -0.00000000000E+00 -0.24054470677E+02  0.24054470677E+02  0.00000000000E+00 0.  1.
         25    2    1    2    0    0  0.44278344682E+02 -0.48779634307E+01  0.33541712971E+03  0.36074403782E+03  0.12508894269E+03 0.  0.
         23    2    1    2    0    0 -0.44278344682E+02  0.48779634307E+01  0.20257344614E+03  0.22535547939E+03  0.88117675145E+02 0.  0.
          5    1    3    3  502    0  0.36037865868E+02  0.46390089486E+02  0.75994350978E+02  0.96142508598E+02  0.41800000000E+01 0. -1.
         -5    1    3    3    0  502  0.82404788143E+01 -0.51268052917E+02  0.25942277873E+03  0.26460152922E+03  0.41800000000E+01 0. -1.
        -11    1    4    4    0    0 -0.41212063872E+02 -0.34545526856E+02  0.78654415806E+02  0.95280348237E+02  0.00000000000E+00 0.  1.
         11    1    4    4    0    0 -0.30662808107E+01  0.39423490287E+02  0.12391903034E+03  0.13007513115E+03  0.00000000000E+00 0. -1.
</event>
<event>
 8    1  0.7232317E-009  0.1774568E+03  0.7561462E-02  0.1170287E+00
          1   -1    0    0  501    0  0.00000000000E+00  0.00000000000E+00  0.63411631396E+03  0.63411631396E+03  0.00000000000E+00 0. -1.
         -1   -1    0    0    0  501 -0.00000000000E+00 -0.00000000000E+00 -0.63401888414E+02  0.63401888414E+02  0.00000000000E+00 0.  1.
         25    2    1    2    0    0  0.15448245316E+03  0.39181685925E+02  0.20328345236E+03  0.28700466958E+03  0.12508990971E+03 0.  0.
         23    2    1    2    0    0 -0.15448245316E+03 -0.39181685925E+02  0.36743097319E+03  0.41051353279E+03  0.90087777766E+02 0.  0.
          5    1    3    3  502    0  0.41147252439E+01  0.42311467159E+02  0.13464477997E+02  0.44787897748E+02  0.41800000000E+01 0. -1.
         -5    1    3    3    0  502  0.15036772792E+03 -0.31297812343E+01  0.18981897436E+03  0.24221677183E+03  0.41800000000E+01 0. -1.
        -11    1    4    4    0    0 -0.11854297106E+03 -0.41818758998E+02  0.17937318884E+03  0.21903421072E+03  0.00000000000E+00 0.  1.
         11    1    4    4    0    0 -0.35939482103E+02  0.26370730738E+01  0.18805778434E+03  0.19147932207E+03  0.00000000000E+00 0. -1.
</event>
<event>
 8    1  0.7232317E-009  0.1497148E+03  0.7561462E-02  0.1200824E+00
         -3   -1    0    0    0  501 -0.00000000000E+00  0.00000000000E+00  0.91394683776E+02  0.91394683776E+02  0.00000000000E+00 0.  1.
          3   -1    0    0  501    0  0.00000000000E+00 -0.00000000000E+00 -0.45038499711E+03  0.45038499711E+03  0.00000000000E+00 0. -1.
         25    2    1    2    0    0  0.86442893047E+02  0.92001304053E+02 -0.34609096783E+03  0.38905385818E+03  0.12508929949E+03 0.  0.
         23    2    1    2    0    0 -0.86442893047E+02 -0.92001304053E+02 -0.12899345510E+02  0.15272582271E+03  0.84983351911E+02 0.  0.
          5    1    3    3  502    0  0.54517639000E+02 -0.59362902745E+01 -0.45842680321E+02  0.71599135772E+02  0.41800000000E+01 0.  1.
         -5    1    3    3    0  502  0.31925254048E+02  0.97937594328E+02 -0.30024828750E+03  0.31745472241E+03  0.41800000000E+01 0.  1.
        -11    1    4    4    0    0 -0.69737594763E+01 -0.51818396799E+02  0.22468537715E+02  0.56908828446E+02  0.00000000000E+00 0.  1.
         11    1    4    4    0    0 -0.79469133571E+02 -0.40182907255E+02 -0.35367883225E+02  0.95816994264E+02  0.00000000000E+00 0. -1.
</event>
<event>
 8    1  0.7232317E-009  0.1217377E+03  0.7561462E-02  0.1240258E+00
          1   -1    0    0  501    0  0.00000000000E+00  0.00000000000E+00  0.15153501355E+04  0.15153501355E+04  0.00000000000E+00 0. -1.
         -1   -1    0    0    0  501 -0.00000000000E+00 -0.00000000000E+00 -0.15489550019E+02  0.15489550019E+02  0.00000000000E+00 0.  1.
         25    2    1    2    0    0 -0.74765288725E+02 -0.75224794018E+02  0.99497156774E+03  0.10083965200E+04  0.12508598240E+03 0.  0.
         23    2    1    2    0    0  0.74765288725E+02  0.75224794018E+02  0.50488901770E+03  0.52244316544E+03  0.82373071342E+02 0.  0.
          5    1    3    3  502    0 -0.12116080734E+02  0.20703897558E+01  0.62854385841E+03  0.62867793048E+03  0.41800000000E+01 0.  1.
         -5    1    3    3    0  502 -0.62649207991E+02 -0.77295183773E+02  0.36642770933E+03  0.37971858956E+03  0.41800000000E+01 0.  1.
        -11    1    4    4    0    0  0.72231235044E+02  0.19082875113E+02  0.34406368130E+03  0.35208141704E+03  0.00000000000E+00 0.  1.
         11    1    4    4    0    0  0.25340536810E+01  0.56141918905E+02  0.16082533641E+03  0.17036174840E+03  0.00000000000E+00 0. -1.
</event>
<event>
 8    1  0.7232317E-009  0.9941156E+02  0.7561462E-02  0.1281538E+00
          1   -1    0    0  501    0  0.00000000000E+00  0.00000000000E+00  0.10990108813E+04  0.10990108813E+04  0.00000000000E+00 0. -1.
         -1   -1    0    0    0  501 -0.00000000000E+00 -0.00000000000E+00 -0.12236116236E+02  0.12236116236E+02  0.00000000000E+00 0.  1.
         25    2    1    2    0    0  0.93786028447E+01  0.22732915942E+02  0.79102982088E+03  0.80123713756E+03  0.12509208378E+03 0.  0.
         23    2    1    2    0    0 -0.93786028447E+01 -0.22732915942E+02  0.29574494423E+03  0.31000986002E+03  0.89645399296E+02 0.  0.
          5    1    3    3  502    0 -0.27215809538E+02 -0.30714441673E+02  0.11642038713E+03  0.12351217007E+03  0.41800000000E+01 0.  1.
         -5    1    3    3    0  502  0.36594412383E+02  0.53447357616E+02  0.67460943374E+03  0.67772496748E+03  0.41800000000E+01 0.  1.
        -11    1    4    4    0    0  0.24964042039E+02  0.24026407089E+02  0.98905839595E+02  0.10479903024E+03  0.00000000000E+00 0. -1.
         11    1    4    4    0    0 -0.34342644884E+02 -0.46759323031E+02  0.19683910464E+03  0.20521082979E+03  0.00000000000E+00 0.  1.
</event>
<event>
 8    1  0.7232317E-009  0.1073368E+03  0.7561462E-02  0.1265583E+00
         -1   -1    0    0    0  501 -0.00000000000E+00  0.00000000000E+00  0.50474373771E+02  0.50474373771E+02  0.00000000000E+00 0.  1.
          1   -1    0    0  501    0  0.00000000000E+00 -0.00000000000E+00 -0.28357779953E+03  0.28357779953E+03  0.00000000000E+00 0. -1.
         25    2    1    2    0    0  0.29256851952E+02 -0.42139483635E+02 -0.12776070043E+03  0.18601496606E+03  0.12508825507E+03 0.  0.
         23    2    1    2    0    0 -0.29256851952E+02  0.42139483635E+02 -0.10534272533E+03  0.14803720725E+03  0.90477762361E+02 0.  0.
          5    1    3    3  502    0  0.22636571496E+02  0.42537592865E+02 -0.32247869424E+02  0.58131391332E+02  0.41800000000E+01 0.  1.
         -5    1    3    3    0  502  0.66202804564E+01 -0.84677076499E+02 -0.95512831005E+02  0.12788357472E+03  0.41800000000E+01 0.  1.
        -11    1    4    4    0    0 -0.10489922225E+02  0.56608156062E+02 -0.22400489610E+02  0.61776239249E+02  0.00000000000E+00 0.  1.
         11    1    4    4    0    0 -0.18766929728E+02 -0.14468672427E+02 -0.82942235724E+02  0.86260967999E+02  0.00000000000E+00 0. -1.
</event>
<event>
 8    1  0.7232317E-009  0.1331778E+03  0.7561462E-02  0.1222815E+00
         -2   -1    0    0    0  501 -0.00000000000E+00  0.00000000000E+00  0.19590892489E+03  0.19590892489E+03  0.00000000000E+00 0.  1.
          2   -1    0    0  501    0  0.00000000000E+00 -0.00000000000E+00 -0.36106650176E+03  0.36106650176E+03  0.00000000000E+00 0. -1.
         25    2    1    2    0    0  0.17622099781E+02 -0.78259303125E+02 -0.32467398682E+03  0.35706419545E+03  0.12508631033E+03 0.  0.
         23    2    1    2    0    0 -0.17622099781E+02  0.78259303125E+02  0.15951640994E+03  0.19991123120E+03  0.89910835790E+02 0.  0.
          5    1    3    3  502    0  0.15962964739E+01 -0.11103167938E+03 -0.22761842174E+03  0.25329469063E+03  0.41800000000E+01 0. -1.
         -5    1    3    3    0  502  0.16025803307E+02  0.32772376259E+02 -0.97055565078E+02  0.10376950482E+03  0.41800000000E+01 0. -1.
        -11    1    4    4    0    0 -0.46007725246E+02  0.77489275000E+02  0.10444114829E+03  0.13794655479E+03  0.00000000000E+00 0. -1.
         11    1    4    4    0    0  0.28385625466E+02  0.77002812529E+00  0.55075261654E+02  0.61964676411E+02  0.00000000000E+00 0.  1.
</event>
<event>
 8    1  0.7232317E-009  0.9337754E+02  0.7561462E-02  0.1294873E+00
          1   -1    0    0  501    0  0.00000000000E+00  0.00000000000E+00  0.66095066618E+03  0.66095066618E+03  0.00000000000E+00 0. -1.
         -1   -1    0    0    0  501 -0.00000000000E+00 -0.00000000000E+00 -0.22418432170E+02  0.22418432170E+02  0.00000000000E+00 0.  1.
         25    2    1    2    0    0 -0.48847088671E+02  0.14362187964E+02  0.42658384013E+03  0.44745147916E+03  0.12508694188E+03 0.  0.
         23    2    1    2    0    0  0.48847088671E+02 -0.14362187964E+02  0.21194839388E+03  0.23591761919E+03  0.90236859771E+02 0.  0.
          5    1    3    3  502    0 -0.40942825304E+02 -0.47614902795E+02  0.13134393157E+03  0.14564406845E+03  0.41800000000E+01 0. -1.
         -5    1    3    3    0  502 -0.79042633674E+01  0.61977090759E+02  0.29523990856E+03  0.30180741072E+03  0.41800000000E+01 0. -1.
        -11    1    4    4    0    0  0.19301548059E+02  0.11040066899E+02  0.19345955594E+01  0.22319845308E+02  0.00000000000E+00 0.  1.
         11    1    4    4    0    0  0.29545540612E+02 -0.25402254864E+02  0.21001379832E+03  0.21359777388E+03  0.00000000000E+00 0. -1.
</event>
<event>
 8    1  0.7232317E-009  0.1515874E+03  0.7561462E-02  0.1198536E+00
          2   -1    0    0  501    0  0.00000000000E+00  0.00000000000E+00  0.10347556610E+04  0.10347556610E+04  0.00000000000E+00 0. -1.
         -2   -1    0    0    0  501 -0.00000000000E+00 -0.00000000000E+00 -0.28626377027E+02  0.28626377027E+02  0.00000000000E+00 0.  1.
         25    2    1    2    0    0  0.99263408226E+02  0.84454087334E+02  0.62038572803E+03  0.64615108792E+03  0.12508820805E+03 0.  0.
         23    2    1    2    0    0 -0.99263408226E+02 -0.84454087334E+02  0.38574355590E+03  0.41723095007E+03  0.91092577609E+02 0.  0.
          5    1    3    3  502    0  0.65744370448E+01  0.65363308602E+02  0.41225937971E+03  0.41748156114E+03  0.41800000000E+01 0. -1.
         -5    1    3    3    0  502  0.92688971181E+02  0.19090778732E+02  0.20812634832E+03  0.22866952677E+03  0.41800000000E+01 0. -1.
        -11    1    4    4    0    0 -0.54724376016E+02 -0.81259203676E+02  0.33777408070E+03  0.35169467597E+03  0.00000000000E+00 0. -1.
         11    1    4    4    0    0 -0.44539032209E+02 -0.31948836581E+01  0.47969475204E+02  0.65536274101E+02  0.00000000000E+00 0.  1.
</event>
<event>
 8    1  0.7232317E-009  0.1324959E+03  0.7561462E-02  0.1223799E+00
          3   -1    0    0  501    0  0.00000000000E+00  0.00000000000E+00  0.11131490693E+03  0.11131490693E+03  0.00000000000E+00 0. -1.
         -3   -1    0    0    0  501 -0.00000000000E+00 -0.00000000000E+00 -0.23367079795E+03  0.23367079795E+03  0.00000000000E+00 0.  1.
         25    2    1    2    0    0  0.72922800747E+02 -0.80397284088E+02 -0.13402373915E+02  0.16615869054E+03  0.12509048189E+03 0.  0.
         23    2    1    2    0    0 -0.72922800747E+02  0.80397284088E+02 -0.10895351710E+03  0.17882701434E+03  0.91251158954E+02 0.  0.
          5    1    3    3  502    0  0.49054664337E+01  0.25302600849E+02 -0.29470583727E+02  0.39373505253E+02  0.41800000000E+01 0. -1.
         -5    1    3    3    0  502  0.68017334313E+02 -0.10569988494E+03  0.16068209812E+02  0.12678518529E+03  0.41800000000E+01 0. -1.
        -11    1    4    4    0    0 -0.31038485111E+02  0.12751624633E+02 -0.91380444593E+02  0.97346685320E+02  0.00000000000E+00 0.  1.
         11    1    4    4    0    0 -0.41884315636E+02  0.67645659455E+02 -0.17573072509E+02  0.81480329018E+02  0.00000000000E+00 0. -1.
</event>
<event>
 8    1  0.7232317E-009  0.9408927E+02  0.7561462E-02  0.1293241E+00
          1   -1    0    0  501    0  0.00000000000E+00  0.00000000000E+00  0.34690511968E+03  0.34690511968E+03  0.00000000000E+00 0. -1.
         -1   -1    0    0    0  501 -0.00000000000E+00 -0.00000000000E+00 -0.53855586572E+02  0.53855586572E+02  0.00000000000E+00 0.  1.
         25    2    1    2    0    0 -0.72335594738E+01 -0.82239472969E+02  0.16482080492E+03  0.22277625105E+03  0.12509078704E+03 0.  0.
         23    2    1    2    0    0  0.72335594738E+01  0.82239472969E+02  0.12822872820E+03  0.17798445521E+03  0.91761670992E+02 0.  0.
          5    1    3    3  502    0  0.90321287174E+01  0.70543196939E+01  0.12151231403E+03  0.12212312490E+03  0.41800000000E+01 0. -1.
         -5    1    3    3    0  502 -0.16265688191E+02 -0.89293792663E+02  0.43308490890E+02  0.10065312615E+03  0.41800000000E+01 0. -1.
        -11    1    4    4    0    0 -0.65093088811E+01  0.44150107071E+02  0.13000627840E+03  0.13745266633E+03  0.00000000000E+00 0. -1.
         11    1    4    4    0    0  0.13742868355E+02  0.38089365898E+02 -0.17775502042E+01  0.40531788880E+02  0.00000000000E+00 0.  1.
</event>
<event>
 8    1  0.7232317E-009  0.2744220E+03  0.7561462E-02  0.1098775E+00
          1   -1    0    0  501    0  0.00000000000E+00  0.00000000000E+00  0.16853167893E+03  0.16853167893E+03  0.00000000000E+00 0. -1.
         -1   -1    0    0    0  501 -0.00000000000E+00 -0.00000000000E+00 -0.46464594183E+03  0.46464594183E+03  0.00000000000E+00 0.  1.
         25    2    1    2    0    0  0.22745866309E+03  0.11616488695E+03 -0.11309904160E+03  0.30605586360E+03  0.12508826508E+03 0.  0.
         23    2    1    2    0    0 -0.22745866309E+03 -0.11616488695E+03 -0.18301522130E+03  0.32712175715E+03  0.91007408481E+02 0.  0.
          5    1    3    3  502    0  0.19852814918E+03  0.49037709457E+02 -0.52894757458E+02  0.21126630288E+03  0.41800000000E+01 0.  1.
         -5    1    3    3    0  502  0.28930513912E+02  0.67127177490E+02 -0.60204284146E+02  0.94789560725E+02  0.41800000000E+01 0.  1.
        -11    1    4    4    0    0 -0.82727711362E+02 -0.93080614276E+02 -0.87005009402E+02  0.15191361572E+03  0.00000000000E+00 0.  1.
         11    1    4    4    0    0 -0.14473095173E+03 -0.23084272672E+02 -0.96010211895E+02  0.17520814143E+03  0.00000000000E+00 0. -1.
</event>
<event>
 8    1  0.7232317E-009  0.1398444E+03  0.7561462E-02  0.1213539E+00
         -1   -1    0    0    0  501 -0.00000000000E+00  0.00000000000E+00  0.10760479196E+04  0.10760479196E+04  0.00000000000E+00 0.  1.
          1   -1    0    0  501    0  0.00000000000E+00 -0.00000000000E+00 -0.27036969663E+02  0.27036969663E+02  0.00000000000E+00 0. -1.
         25    2    1    2    0    0 -0.10914807054E+02  0.13136671321E+03  0.59841095912E+03  0.62539549909E+03  0.12508999931E+03 0.  0.
         23    2    1    2    0    0  0.10914807054E+02 -0.13136671321E+03  0.45059999079E+03  0.47768939016E+03  0.88150186672E+02 0.  0.
          5    1    3    3  502    0  0.26164817051E+02  0.67191453704E+02  0.11144315304E+03  0.13280187446E+03  0.41800000000E+01 0. -1.
         -5    1    3    3    0  502 -0.37079624104E+02  0.64175259506E+02  0.48696780608E+03  0.49259362462E+03  0.41800000000E+01 0. -1.
        -11    1    4    4    0    0 -0.46978869863E+01 -0.59415860818E+02  0.33759666016E+03  0.34281747273E+03  0.00000000000E+00 0.  1.
         11    1    4    4    0    0  0.15612694040E+02 -0.71950852392E+02  0.11300333064E+03  0.13487191742E+03  0.00000000000E+00 0. -1.
</event>
<event>
 8    1  0.7232317E-009  0.1597676E+03  0.7561462E-02  0.1188959E+00
          2   -1    0    0  501    0  0.00000000000E+00  0.00000000000E+00  0.83878502410E+03  0.83878502410E+03  0.00000000000E+00 0. -1.
         -2   -1    0    0    0  501 -0.00000000000E+00 -0.00000000000E+00 -0.31513641430E+02  0.31513641430E+02  0.00000000000E+00 0.  1.
         25    2    1    2    0    0  0.58559781120E+02  0.10672077481E+03  0.40077557069E+03  0.43713505185E+03  0.12508966285E+03 0.  0.
         23    2    1    2    0    0 -0.58559781120E+02 -0.10672077481E+03  0.40649581198E+03  0.43316361369E+03  0.87024705224E+02 0.  0.
          5    1    3    3  502    0  0.11873412599E+02 -0.26991289037E+02  0.10550985807E+03  0.10963261449E+03  0.41800000000E+01 0.  1.
         -5    1    3    3    0  502  0.46686368521E+02  0.13371206385E+03  0.29526571262E+03  0.32750243736E+03  0.41800000000E+01 0.  1.
        -11    1    4    4    0    0 -0.78021769986E+02 -0.63265142994E+02  0.24492161584E+03  0.26471961170E+03  0.00000000000E+00 0.  1.
         11    1    4    4    0    0  0.19461988866E+02 -0.43455631818E+02  0.16157419614E+03  0.16844400199E+03  0.00000000000E+00 0. -1.
</event>
<event>
 8    1  0.7232317E-009  0.1976671E+03  0.7561462E-02  0.1151722E+00
         -2   -1    0    0    0  501 -0.00000000000E+00  0.00000000000E+00  0.10326035202E+03  0.10326035202E+03  0.00000000000E+00 0.  1.
          2   -1    0    0  501    0  0.00000000000E+00 -0.00000000000E+00 -0.38746367309E+03  0.38746367309E+03  0.00000000000E+00 0. -1.
         25    2    1    2    0    0  0.25574793940E+02  0.16423852549E+03 -0.13252053271E+03  0.24665613178E+03  0.12509673222E+03 0.  0.
         23    2    1    2    0    0 -0.25574793940E+02 -0.16423852549E+03 -0.15168278836E+03  0.24406789333E+03  0.94515104233E+02 0.  0.
          5    1    3    3  502    0 -0.44819911637E+02  0.23894520601E+02 -0.33178977083E+02  0.60811919179E+02  0.41800000000E+01 0. -1.
         -5    1    3    3    0  502  0.70394705577E+02  0.14034400489E+03 -0.99341555626E+02  0.18584421260E+03  0.41800000000E+01 0. -1.
        -11    1    4    4    0    0  0.31721770633E+02 -0.72631269816E+02 -0.88908844390E+02  0.11910648470E+03  0.00000000000E+00 0.  1.
         11    1    4    4    0    0 -0.57296564573E+02 -0.91607255677E+02 -0.62773943968E+02  0.12496140863E+03  0.00000000000E+00 0. -1.
</event>
<event>
 8    1  0.7232317E-009  0.9402758E+02  0.7561462E-02  0.1293381E+00
          1   -1    0    0  501    0  0.00000000000E+00  0.00000000000E+00  0.28036898557E+03  0.28036898557E+03  0.00000000000E+00 0. -1.
         -1   -1    0    0    0  501 -0.00000000000E+00 -0.00000000000E+00 -0.43913531206E+02  0.43913531206E+02  0.00000000000E+00 0.  1.
         25    2    1    2    0    0  0.18611066232E+01 -0.21824965846E+02  0.14049078585E+03  0.18938192971E+03  0.12509221215E+03 0.  0.
         23    2    1    2    0    0 -0.18611066232E+01  0.21824965846E+02  0.95964668516E+02  0.13490058707E+03  0.92245097083E+02 0.  0.
          5    1    3    3  502    0 -0.47956278610E+02 -0.88277853230E+01  0.11273136137E+02  0.50222409840E+02  0.41800000000E+01 0. -1.
         -5    1    3    3    0  502  0.49817385233E+02 -0.12997180523E+02  0.12921764971E+03  0.13915951987E+03  0.41800000000E+01 0. -1.
        -11    1    4    4    0    0  0.43075228417E+01 -0.32500843519E+02  0.63099006009E+02  0.71107975234E+02  0.00000000000E+00 0. -1.
         11    1    4    4    0    0 -0.61686294649E+01  0.54325809365E+02  0.32865662507E+02  0.63792611834E+02  0.00000000000E+00 0.  1.
</event>
<event>
 8    1  0.7232317E-009  0.1190636E+03  0.7561462E-02  0.1244650E+00
         -1   -1    0    0    0  501 -0.00000000000E+00  0.00000000000E+00  0.61073123621E+02  0.61073123621E+02  0.00000000000E+00 0.  1.
          1   -1    0    0  501    0  0.00000000000E+00 -0.00000000000E+00 -0.31684451569E+03  0.31684451569E+03  0.00000000000E+00 0. -1.
         25    2    1    2    0    0  0.54497593511E+02 -0.67954282084E+02 -0.15279489837E+03  0.21580934657E+03  0.12505847010E+03 0.  0.
         23    2    1    2    0    0 -0.54497593511E+02  0.67954282084E+02 -0.10297649369E+03  0.16210829274E+03  0.89928683804E+02 0.  0.
          5    1    3    3  502    0 -0.34612653509E+02 -0.30092779445E+02 -0.87726952865E+02  0.99081288933E+02  0.41800000000E+01 0. -1.
         -5    1    3    3    0  502  0.89110247020E+02 -0.37861502639E+02 -0.65067945510E+02  0.11672805763E+03  0.41800000000E+01 0. -1.
        -11    1    4    4    0    0 -0.37999738651E+02  0.17047715515E+02  0.46547248153E+01  0.41907889531E+02  0.00000000000E+00 0.  1.
         11    1    4    4    0    0 -0.16497854860E+02  0.50906566569E+02 -0.10763121851E+03  0.12020040321E+03  0.00000000000E+00 0. -1.
</event>
<event>
 8    1  0.7232317E-009  0.1002496E+03  0.7561462E-02  0.1279772E+00
         -3   -1    0    0    0  501 -0.00000000000E+00  0.00000000000E+00  0.31027530946E+03  0.31027530946E+03  0.00000000000E+00 0.  1.
          3   -1    0    0  501    0  0.00000000000E+00 -0.00000000000E+00 -0.67980383484E+02  0.67980383484E+02  0.00000000000E+00 0. -1.
         25    2    1    2    0    0 -0.90465131768E+02  0.29521536121E+02  0.15329472364E+03  0.21954958626E+03  0.12508911772E+03 0.  0.
         23    2    1    2    0    0  0.90465131768E+02 -0.29521536121E+02  0.89000202335E+02  0.15870610668E+03  0.90615291866E+02 0.  0.
          5    1    3    3  502    0 -0.83408671373E+02  0.28596790595E+02  0.17517768967E+03  0.19616186748E+03  0.41800000000E+01 0.  1.
         -5    1    3    3    0  502 -0.70564603945E+01  0.92474552564E+00 -0.21882966035E+02  0.23387718788E+02  0.41800000000E+01 0.  1.
        -11    1    4    4    0    0  0.90492150060E+02 -0.17770111015E+02  0.10442369635E+03  0.13931588003E+03  0.00000000000E+00 0.  1.
         11    1    4    4    0    0 -0.27018292458E-01 -0.11751425106E+02 -0.15423494014E+02  0.19390226651E+02  0.00000000000E+00 0. -1.
</event>
<event>
 8    1  0.7232317E-009  0.1092042E+03  0.7561462E-02  0.1262051E+00
         -4   -1    0    0    0  501 -0.00000000000E+00  0.00000000000E+00  0.41180504637E+02  0.41180504637E+02  0.00000000000E+00 0.  1.
          4   -1    0    0  501    0  0.00000000000E+00 -0.00000000000E+00 -0.38172400077E+03  0.38172400077E+03  0.00000000000E+00 0. -1.
         25    2    1    2    0    0 -0.32804278812E+02  0.46863581601E+02 -0.11647632156E+03  0.18024093197E+03  0.12509094326E+03 0.  0.
         23    2    1    2    0    0  0.32804278812E+02 -0.46863581601E+02 -0.22406717457E+03  0.24266357343E+03  0.73533632858E+02 0.  0.
          5    1    3    3  502    0 -0.74775222177E+02  0.33587918744E+02 -0.38635701972E+02  0.90717539672E+02  0.41800000000E+01 0.  1.
         -5    1    3    3    0  502  0.41970943366E+02  0.13275662858E+02 -0.77840619588E+02  0.89523392301E+02  0.41800000000E+01 0.  1.
        -11    1    4    4    0    0 -0.20612219788E+02  0.64736973800E+00 -0.36316400100E+02  0.41763184845E+02  0.00000000000E+00 0. -1.
         11    1    4    4    0    0  0.53416498599E+02 -0.47510951339E+02 -0.18775077447E+03  0.20090038858E+03  0.00000000000E+00 0.  1.
</event>
<event>
 8    1  0.7232317E-009  0.1015558E+03  0.7561462E-02  0.1277058E+00
         -2   -1    0    0    0  501 -0.00000000000E+00  0.00000000000E+00  0.11527717044E+03  0.11527717044E+03  0.00000000000E+00 0. -1.
          2   -1    0    0  501    0  0.00000000000E+00 -0.00000000000E+00 -0.14317256948E+03  0.14317256948E+03  0.00000000000E+00 0.  1.
         25    2    1    2    0    0  0.41355287059E+02  0.21578852085E+02  0.31358619647E+02  0.13713924977E+03  0.12509158315E+03 0.  0.
         23    2    1    2    0    0 -0.41355287059E+02 -0.21578852085E+02 -0.59254018696E+02  0.12131049015E+03  0.95022574497E+02 0.  0.
          5    1    3    3  502    0  0.41219942008E+02 -0.28102101070E+02 -0.29779015881E+02  0.58250097773E+02  0.41800000000E+01 0. -1.
         -5    1    3    3    0  502  0.13534505071E+00  0.49680953155E+02  0.61137635529E+02  0.78889151996E+02  0.41800000000E+01 0. -1.
        -11    1    4    4    0    0 -0.65913920317E+02  0.60919859786E+01 -0.50587216718E+02  0.83311605914E+02  0.00000000000E+00 0.  1.
         11    1    4    4    0    0  0.24558633259E+02 -0.27670838064E+02 -0.86668019782E+01  0.37998884237E+02  0.00000000000E+00 0. -1.
</event>
<event>
 8    1  0.7232317E-009  0.9781143E+02  0.7561462E-02  0.1284967E+00
         -2   -1    0    0    0  501 -0.00000000000E+00  0.00000000000E+00  0.81805943287E+02  0.81805943287E+02  0.00000000000E+00 0.  1.
          2   -1    0    0  501    0  0.00000000000E+00 -0.00000000000E+00 -0.16646338982E+03  0.16646338982E+03  0.00000000000E+00 0. -1.
         25    2    1    2    0    0 -0.21960734195E+01 -0.11301708382E+02 -0.39536226087E+01  0.12568052565E+03  0.12508961605E+03 0.  0.
         23    2    1    2    0    0  0.21960734195E+01  0.11301708382E+02 -0.80703823924E+02  0.12258880746E+03  0.91555213769E+02 0.  0.
          5    1    3    3  502    0  0.19605628990E+02 -0.64226259656E+02 -0.97998821248E+01  0.67991934868E+02  0.41800000000E+01 0. -1.
         -5    1    3    3    0  502 -0.21801702410E+02  0.52924551274E+02  0.58462595162E+01  0.57688590777E+02  0.41800000000E+01 0. -1.
        -11    1    4    4    0    0  0.24430184786E+02 -0.20673497887E+02 -0.77097995406E+02  0.83476513698E+02  0.00000000000E+00 0. -1.
         11    1    4    4    0    0 -0.22234111367E+02  0.31975206269E+02 -0.36058285184E+01  0.39112293764E+02  0.00000000000E+00 0.  1.
</event>
<event>
 8    1  0.7232317E-009  0.1354589E+03  0.7561462E-02  0.1219573E+00
          1   -1    0    0  501    0  0.00000000000E+00  0.00000000000E+00  0.54580941351E+02  0.54580941351E+02  0.00000000000E+00 0. -1.
         -1   -1    0    0    0  501 -0.00000000000E+00 -0.00000000000E+00 -0.42500952625E+03  0.42500952625E+03  0.00000000000E+00 0.  1.
         25    2    1    2    0    0  0.84888997762E+02 -0.37783156047E+02 -0.28415277101E+03  0.32407188647E+03  0.12508429762E+03 0.  0.
         23    2    1    2    0    0 -0.84888997762E+02  0.37783156047E+02 -0.86275813895E+02  0.15551858113E+03  0.90048898892E+02 0.  0.
          5    1    3    3  502    0  0.19599156376E+02 -0.67371263002E+02 -0.74318012194E+02  0.10229200040E+03  0.41800000000E+01 0.  1.
         -5    1    3    3    0  502  0.65289841386E+02  0.29588106955E+02 -0.20983475881E+03  0.22177988608E+03  0.41800000000E+01 0.  1.
        -11    1    4    4    0    0 -0.22606072130E+02  0.58877365182E+02 -0.49513131076E+02  0.80181848175E+02  0.00000000000E+00 0. -1.
         11    1    4    4    0    0 -0.62282925632E+02 -0.21094209135E+02 -0.36762682819E+02  0.75336732955E+02  0.00000000000E+00 0.  1.
</event>
<event>
 7    1  0.7232317E-009  0.3333767E+03  0.7561462E-02  0.1069652E+00
          1   -1    0    0  501    0  0.00000000000E+00  0.00000000000E+00  0.14137063815E+04  0.14137063815E+04  0.00000000000E+00 0. -1.
         -1   -1    0    0    0  501 -0.00000000000E+00 -0.00000000000E+00 -0.88599048484E+02  0.88599048484E+02  0.00000000000E+00 0.  1.
         23    2    1    2    0    0  0.29566555692E+03 -0.13372152896E+03  0.84347522532E+03  0.90822341968E+03  0.90109685769E+02 0.  0.
          5    1    1    2  502    0 -0.64093106928E+02  0.74121011314E+02  0.79690298827E+02  0.12637193835E+03  0.41800000000E+01 0.  1.
         -5    1    1    2    0  502 -0.23157244999E+03  0.59600517648E+02  0.40194180887E+03  0.46771007197E+03  0.41800000000E+01 0.  1.
        -11    1    3    3    0    0  0.11150747531E+03 -0.20603986810E+02  0.20656241078E+03  0.23564055438E+03  0.00000000000E+00 0.  1.
         11    1    3    3    0    0  0.18415808160E+03 -0.11311754215E+03  0.63691281455E+03  0.67258286530E+03  0.00000000000E+00 0. -1.
</event>
<event>
 8    1  0.7232317E-009  0.1853459E+03  0.7561462E-02  0.1162727E+00
          2   -1    0    0  501    0  0.00000000000E+00  0.00000000000E+00  0.18802624040E+04  0.18802624040E+04  0.00000000000E+00 0.  1.
         -2   -1    0    0    0  501 -0.00000000000E+00 -0.00000000000E+00 -0.36030867462E+02  0.36030867462E+02  0.00000000000E+00 0. -1.
         25    2    1    2    0    0  0.67928248430E+02 -0.16001888720E+03  0.15336962601E+04  0.15485771943E+04  0.12508723917E+03 0.  0.
         23    2    1    2    0    0 -0.67928248430E+02  0.16001888720E+03  0.31053527641E+03  0.36771607709E+03  0.92534665178E+02 0.  0.
          5    1    3    3  502    0 -0.76538791677E+01  0.33986171728E+01  0.80725623365E+01  0.12360061799E+02  0.41800000000E+01 0. -1.
         -5    1    3    3    0  502  0.75582127597E+02 -0.16341750437E+03  0.15256236978E+04  0.15362171325E+04  0.41800000000E+01 0. -1.
        -11    1    4    4    0    0 -0.75643838483E+02  0.13165119875E+03  0.30044892950E+03  0.33663568984E+03  0.00000000000E+00 0.  1.
         11    1    4    4    0    0  0.77155900536E+01  0.28367688444E+02  0.10086346903E+02  0.31080387247E+02  0.00000000000E+00 0. -1.
</event>
<event>
 8    1  0.7232317E-009  0.1002681E+03  0.7561462E-02  0.1279733E+00
         -2   -1    0    0    0  501 -0.00000000000E+00  0.00000000000E+00  0.53191364926E+02  0.53191364926E+02  0.00000000000E+00 0.  1.
          2   -1    0    0  501    0  0.00000000000E+00 -0.00000000000E+00 -0.21692104799E+03  0.21692104799E+03  0.00000000000E+00 0. -1.
         25    2    1    2    0    0 -0.31713561151E+02 -0.28128078454E+01 -0.12256712774E+03  0.17799938371E+03  0.12508963966E+03 0.  0.
         23    2    1    2    0    0  0.31713561151E+02  0.28128078454E+01 -0.41162555332E+02  0.92113029210E+02  0.76005212584E+02 0.  0.
          5    1    3    3  502    0  0.43065052938E+02 -0.60707935893E+00 -0.82189363946E+02  0.92884505035E+02  0.41800000000E+01 0. -1.
         -5    1    3    3    0  502 -0.74778614089E+02 -0.22057284865E+01 -0.40377763791E+02  0.85114878676E+02  0.41800000000E+01 0. -1.
        -11    1    4    4    0    0  0.37997440523E+02 -0.30320901653E+02 -0.26130055339E+02  0.55190056671E+02  0.00000000000E+00 0. -1.
         11    1    4    4    0    0 -0.62838793720E+01  0.33133709498E+02 -0.15032499992E+02  0.36922972539E+02  0.00000000000E+00 0.  1.
</event>
<event>
 8    1  0.7232317E-009  0.6220427E+02  0.7561462E-02  0.1388807E+00
         -1   -1    0    0    0  501 -0.00000000000E+00  0.00000000000E+00  0.19015882931E+03  0.19015882931E+03  0.00000000000E+00 0.  1.
          1   -1    0    0  501    0  0.00000000000E+00 -0.00000000000E+00 -0.65403338003E+02  0.65403338003E+02  0.00000000000E+00 0. -1.
         25    2    1    2    0    0 -0.19722720353E+02 -0.19069537211E+02  0.70451954026E+02  0.14616334861E+03  0.12509042211E+03 0.  0.
         23    2    1    2    0    0  0.19722720353E+02  0.19069537211E+02  0.54303537276E+02  0.10939881869E+03  0.90920814027E+02 0.  0.
          5    1    3    3  502    0 -0.14593253832E+02 -0.93000377606E+01 -0.35416671002E+02  0.39639207164E+02  0.41800000000E+01 0.  1.
         -5    1    3    3    0  502 -0.51294665210E+01 -0.97694994505E+01  0.10586862503E+03  0.10652414145E+03  0.41800000000E+01 0.  1.
        -11    1    4    4    0    0  0.56259326542E+02  0.13395801820E+02  0.29980190444E+02  0.65141163241E+02  0.00000000000E+00 0. -1.
         11    1    4    4    0    0 -0.36536606189E+02  0.56737353911E+01  0.24323346832E+02  0.44257655453E+02  0.00000000000E+00 0.  1.
</event>
<event>
 8    1  0.7232317E-009  0.1265344E+03  0.7561462E-02  0.1232691E+00
         -1   -1    0    0    0  501 -0.00000000000E+00  0.00000000000E+00  0.15867654622E+03  0.15867654622E+03  0.00000000000E+00 0.  1.
          1   -1    0    0  501    0  0.00000000000E+00 -0.00000000000E+00 -0.14401908521E+03  0.14401908521E+03  0.00000000000E+00 0. -1.
         25    2    1    2    0    0  0.74860785156E+02  0.68873424363E+01  0.79145433441E+02  0.16598285418E+03  0.12503893637E+03 0.  0.
         23    2    1    2    0    0 -0.74860785156E+02 -0.68873424363E+01 -0.64487972428E+02  0.13671277725E+03  0.94234347423E+02 0.  0.
          5    1    3    3  502    0  0.43002257298E+02  0.57959567403E+02  0.76983366424E+02  0.10560500316E+03  0.41800000000E+01 0.  1.
         -5    1    3    3    0  502  0.31858527859E+02 -0.51072224967E+02  0.21620670168E+01  0.60377851023E+02  0.41800000000E+01 0.  1.
        -11    1    4    4    0    0 -0.32919068393E+01  0.36564185438E+02 -0.22353408831E+02  0.42981986852E+02  0.00000000000E+00 0. -1.
         11    1    4    4    0    0 -0.71568878317E+02 -0.43451527874E+02 -0.42134563596E+02  0.93730790393E+02  0.00000000000E+00 0.  1.
</event>
<event>
 8    1  0.7232317E-009  0.1500888E+03  0.7561462E-02  0.1200364E+00
          2   -1    0    0  501    0  0.00000000000E+00  0.00000000000E+00  0.13686252395E+03  0.13686252395E+03  0.00000000000E+00 0. -1.
         -2   -1    0    0    0  501 -0.00000000000E+00 -0.00000000000E+00 -0.21638597461E+03  0.21638597461E+03  0.00000000000E+00 0.  1.
         25    2    1    2    0    0  0.12357812510E+03 -0.46254415692E+02 -0.60720650167E+02  0.19168919258E+03  0.12508687069E+03 0.  0.
         23    2    1    2    0    0 -0.12357812510E+03  0.46254415692E+02 -0.18802800497E+02  0.16155930598E+03  0.91306298076E+02 0.  0.
          5    1    3    3  502    0  0.31350648544E+02  0.11540242373E+02 -0.74641294332E+02  0.81883060383E+02  0.41800000000E+01 0.  1.
         -5    1    3    3    0  502  0.92227476558E+02 -0.57794658065E+02  0.13920644165E+02  0.10980613219E+03  0.41800000000E+01 0.  1.
        -11    1    4    4    0    0 -0.10117356968E+03  0.71460609323E+02 -0.27174705540E+02  0.12681157088E+03  0.00000000000E+00 0.  1.
         11    1    4    4    0    0 -0.22404555419E+02 -0.25206193631E+02  0.83719050425E+01  0.34747735105E+02  0.00000000000E+00 0. -1.
</event>
<event>
 8    1  0.7232317E-009  0.1140246E+03  0.7561462E-02  0.1253293E+00
         -2   -1    0    0    0  501 -0.00000000000E+00  0.00000000000E+00  0.78791625481E+02  0.78791625481E+02  0.00000000000E+00 0.  1.
          2   -1    0    0  501    0  0.00000000000E+00 -0.00000000000E+00 -0.19982322115E+03  0.19982322115E+03  0.00000000000E+00 0. -1.
         25    2    1    2    0    0 -0.71114653070E+01 -0.68027714633E+02 -0.76082292644E+02  0.16159816230E+03  0.12508840037E+03 0.  0.
         23    2    1    2    0    0  0.71114653070E+01  0.68027714633E+02 -0.44949303024E+02  0.11701668433E+03  0.83630865551E+02 0.  0.
          5    1    3    3  502    0 -0.60315380913E+02 -0.82310142642E+01 -0.21788771455E+02  0.64791339946E+02  0.41800000000E+01 0. -1.
         -5    1    3    3    0  502  0.53203915606E+02 -0.59796700369E+02 -0.54293521189E+02  0.96806822352E+02  0.41800000000E+01 0. -1.
        -11    1    4    4    0    0  0.19419854982E+02  0.17796388710E+01 -0.45639621412E+02  0.49631370368E+02  0.00000000000E+00 0. -1.
         11    1    4    4    0    0 -0.12308389675E+02  0.66248075762E+02  0.69031838808E+00  0.67385313964E+02  0.00000000000E+00 0.  1.
</event>
<event>
 8    1  0.7232317E-009  0.8641375E+02  0.7561462E-02  0.1311776E+00
          3   -1    0    0  501    0  0.00000000000E+00  0.00000000000E+00  0.45512090750E+02  0.45512090750E+02  0.00000000000E+00 0. -1.
         -3   -1    0    0    0  501 -0.00000000000E+00 -0.00000000000E+00 -0.36056202354E+03  0.36056202354E+03  0.00000000000E+00 0.  1.
         25    2    1    2    0    0 -0.21479949763E+02  0.54955712254E+02 -0.14328218834E+03  0.19914339353E+03  0.12508711820E+03 0.  0.
         23    2    1    2    0    0  0.21479949763E+02 -0.54955712254E+02 -0.17176774445E+03  0.20693072076E+03  0.99169786779E+02 0.  0.
          5    1    3    3  502    0 -0.11941672431E+02  0.21536482522E+02 -0.15887268781E+03  0.16082421134E+03  0.41800000000E+01 0. -1.
         -5    1    3    3    0  502 -0.95382773316E+01  0.33419229732E+02  0.15590499470E+02  0.38319182194E+02  0.41800000000E+01 0. -1.
        -11    1    4    4    0    0  0.17739272056E+02  0.26179730525E+02 -0.69318353781E+02  0.76191169005E+02  0.00000000000E+00 0.  1.
         11    1    4    4    0    0  0.37406777068E+01 -0.81135442779E+02 -0.10244939066E+03  0.13073955175E+03  0.00000000000E+00 0. -1.
</event>
<event>
 8    1  0.7232317E-009  0.1436234E+03  0.7561462E-02  0.1208535E+00
          1   -1    0    0  501    0  0.00000000000E+00  0.00000000000E+00  0.94807630522E+03  0.94807630522E+03  0.00000000000E+00 0. -1.
         -1   -1    0    0    0  501 -0.00000000000E+00 -0.00000000000E+00 -0.37443085123E+02  0.37443085123E+02  0.00000000000E+00 0.  1.
         25    2    1    2    0    0  0.12590127999E+03  0.25762834419E+02  0.69939615368E+03  0.72202354254E+03  0.12509260674E+03 0.  0.
         23    2    1    2    0    0 -0.12590127999E+03 -0.25762834419E+02  0.21123706642E+03  0.26349584780E+03  0.91071991526E+02 0.  0.
          5    1    3    3  502    0  0.76788023996E+02  0.42852308559E+02  0.18380823585E+03  0.20380299542E+03  0.41800000000E+01 0. -1.
         -5    1    3    3    0  502  0.49113255994E+02 -0.17089474140E+02  0.51558791783E+03  0.51822054712E+03  0.41800000000E+01 0. -1.
        -11    1    4    4    0    0 -0.13274932000E+03 -0.33296436070E+02  0.15685701609E+03  0.20817098287E+03  0.00000000000E+00 0.  1.
         11    1    4    4    0    0  0.68480400057E+01  0.75336016512E+01  0.54380050327E+02  0.55324864929E+02  0.00000000000E+00 0. -1.
</event>
<event>
 8    1  0.7232317E-009  0.8648915E+02  0.7561462E-02  0.1311584E+00
          2   -1    0    0  501    0  0.00000000000E+00  0.00000000000E+00  0.26277809300E+03  0.26277809300E+03  0.00000000000E+00 0. -1.
         -2   -1    0    0    0  501 -0.00000000000E+00 -0.00000000000E+00 -0.57675290538E+02  0.57675290538E+02  0.00000000000E+00 0.  1.
         25    2    1    2    0    0  0.33963494610E+02  0.18123787853E+01  0.14818058067E+03  0.19688812979E+03  0.12510254786E+03 0.  0.
         23    2    1    2    0    0 -0.33963494610E+02 -0.18123787853E+01  0.56922221787E+02  0.12356525374E+03  0.10426614463E+03 0.  0.
          5    1    3    3  502    0  0.58916581595E+01  0.32824413042E+02  0.15105728453E+03  0.15475118525E+03  0.41800000000E+01 0.  1.
         -5    1    3    3    0  502  0.28071836451E+02 -0.31012034257E+02 -0.28767038533E+01  0.42136944544E+02  0.41800000000E+01 0.  1.
        -11    1    4    4    0    0  0.25682998180E+01  0.40982428685E+02  0.53160290895E+02  0.67172703928E+02  0.00000000000E+00 0. -1.
         11    1    4    4    0    0 -0.36531794428E+02 -0.42794807470E+02  0.37619308912E+01  0.56392549815E+02  0.00000000000E+00 0.  1.
</event>
<event>
 8    1  0.7232317E-009  0.1331837E+03  0.7561462E-02  0.1222807E+00
         -1   -1    0    0    0  501 -0.00000000000E+00  0.00000000000E+00  0.66620395028E+02  0.66620395028E+02  0.00000000000E+00 0.  1.
          1   -1    0    0  501    0  0.00000000000E+00 -0.00000000000E+00 -0.36675008461E+03  0.36675008461E+03  0.00000000000E+00 0. -1.
         25    2    1    2    0    0  0.77968983896E+02  0.38879859503E+02 -0.60841500008E+02  0.16413339076E+03  0.12508907193E+03 0.  0.
         23    2    1    2    0    0 -0.77968983896E+02 -0.38879859503E+02 -0.23928818958E+03  0.26923708888E+03  0.87401180949E+02 0.  0.
          5    1    3    3  502    0 -0.19292875688E+02  0.42999652454E+02  0.33785674583E+01  0.47434926811E+02  0.41800000000E+01 0.  1.
         -5    1    3    3    0  502  0.97261859584E+02 -0.41197929513E+01 -0.64220067466E+02  0.11669846395E+03  0.41800000000E+01 0.  1.
        -11    1    4    4    0    0 -0.53953608332E+02 -0.66093611680E+02 -0.14548825303E+03  0.16865998081E+03  0.00000000000E+00 0.  1.
         11    1    4    4    0    0 -0.24015375564E+02  0.27213752177E+02 -0.93799936552E+02  0.10057710807E+03  0.00000000000E+00 0. -1.
</event>
<event>
 8    1  0.7232317E-009  0.1206656E+03  0.7561462E-02  0.1242003E+00
         -2   -1    0    0    0  501 -0.00000000000E+00  0.00000000000E+00  0.75693854859E+02  0.75693854859E+02  0.00000000000E+00 0.  1.
          2   -1    0    0  501    0  0.00000000000E+00 -0.00000000000E+00 -0.22842604075E+03  0.22842604075E+03  0.00000000000E+00 0. -1.
         25    2    1    2    0    0  0.32478958187E+02  0.63655940640E+02 -0.79063631529E+02  0.16433667007E+03  0.12509405180E+03 0.  0.
         23    2    1    2    0    0 -0.32478958187E+02 -0.63655940640E+02 -0.73668554362E+02  0.13978322554E+03  0.94896431633E+02 0.  0.
          5    1    3    3  502    0  0.20669645259E+02  0.96616585277E+02 -0.82666259438E+02  0.12889213178E+03  0.41800000000E+01 0.  1.
         -5    1    3    3    0  502  0.11809312927E+02 -0.32960644636E+02  0.36026279090E+01  0.35444538289E+02  0.41800000000E+01 0.  1.
        -11    1    4    4    0    0  0.26680753527E+02 -0.24594748339E+02  0.16820014164E+01  0.36326207942E+02  0.00000000000E+00 0.  1.
         11    1    4    4    0    0 -0.59159711714E+02 -0.39061192301E+02 -0.75350555778E+02  0.10345701760E+03  0.00000000000E+00 0. -1.
</event>
<event>
 8    1  0.7232317E-009  0.2419777E+03  0.7561462E-02  0.1118482E+00
         -1   -1    0    0    0  501 -0.00000000000E+00  0.00000000000E+00  0.23590249876E+03  0.23590249876E+03  0.00000000000E+00 0.  1.
          1   -1    0    0  501    0  0.00000000000E+00 -0.00000000000E+00 -0.32083318003E+03  0.32083318003E+03  0.00000000000E+00 0. -1.
         25    2    1    2    0    0  0.11569761805E+03  0.21083167228E+03 -0.12088402596E+03  0.29681066155E+03  0.12509071994E+03 0.  0.
         23    2    1    2    0    0 -0.11569761805E+03 -0.21083167228E+03  0.35953344690E+02  0.25992501724E+03  0.91828311180E+02 0.  0.
          5    1    3    3  502    0  0.95069709054E+02  0.14679075927E+03 -0.20840080416E+02  0.17617479371E+03  0.41800000000E+01 0.  1.
         -5    1    3    3    0  502  0.20627908999E+02  0.64040913011E+02 -0.10004394555E+03  0.12063586784E+03  0.41800000000E+01 0.  1.
        -11    1    4    4    0    0 -0.10499827668E+03 -0.17374262999E+03  0.63269300036E+02  0.21263617733E+03  0.00000000000E+00 0. -1.
         11    1    4    4    0    0 -0.10699341369E+02 -0.37089042289E+02 -0.27315955346E+02  0.47288839911E+02  0.00000000000E+00 0.  1.
</event>
<event>
 8    1  0.7232317E-009  0.5300391E+03  0.7561462E-02  0.1006223E+00
         -2   -1    0    0    0  501 -0.00000000000E+00  0.00000000000E+00  0.48299751421E+03  0.48299751421E+03  0.00000000000E+00 0. -1.
          2   -1    0    0  501    0  0.00000000000E+00 -0.00000000000E+00 -0.71867876825E+03  0.71867876825E+03  0.00000000000E+00 0.  1.
         25    2    1    2    0    0 -0.48069223308E+03  0.21268363156E+03 -0.35694230135E+03  0.64757762387E+03  0.12509845065E+03 0.  0.
         23    2    1    2    0    0  0.48069223308E+03 -0.21268363156E+03  0.12126104732E+03  0.55409865859E+03  0.12657697964E+03 0.  0.
          5    1    3    3  502    0 -0.27551844814E+03  0.72388548794E+02 -0.13909419166E+03  0.31704129670E+03  0.41800000000E+01 0.  1.
         -5    1    3    3    0  502 -0.20517378494E+03  0.14029508277E+03 -0.21784810970E+03  0.33053632716E+03  0.41800000000E+01 0.  1.
        -11    1    4    4    0    0  0.42371786500E+03 -0.19831650751E+03  0.14637922937E+03  0.49019704717E+03  0.00000000000E+00 0. -1.
         11    1    4    4    0    0  0.56974368087E+02 -0.14367124053E+02 -0.25118182049E+02  0.63901611418E+02  0.00000000000E+00 0.  1.
</event>
<event>
 8    1  0.7232317E-009  0.1583858E+03  0.7561462E-02  0.1190531E+00
          1   -1    0    0  501    0  0.00000000000E+00  0.00000000000E+00  0.71129985632E+03  0.71129985632E+03  0.00000000000E+00 0. -1.
         -1   -1    0    0    0  501 -0.00000000000E+00 -0.00000000000E+00 -0.49650172157E+02  0.49650172157E+02  0.00000000000E+00 0.  1.
         25    2    1    2    0    0 -0.13686341972E+03 -0.62624623401E+02  0.40991409374E+03  0.45423970346E+03  0.12510277710E+03 0.  0.
         23    2    1    2    0    0  0.13686341972E+03  0.62624623401E+02  0.25173559043E+03  0.30671032502E+03  0.89704943416E+02 0.  0.
          5    1    3    3  502    0  0.57482562683E+01 -0.72685483652E+01 -0.54824289242E+01  0.11550050752E+02  0.41800000000E+01 0.  1.
         -5    1    3    3    0  502 -0.14261167599E+03 -0.55356075035E+02  0.41539652266E+03  0.44268965270E+03  0.41800000000E+01 0.  1.
        -11    1    4    4    0    0  0.75421317645E+02  0.17739756482E+02  0.20057514458E+03  0.21501967989E+03  0.00000000000E+00 0. -1.
         11    1    4    4    0    0  0.61442102078E+02  0.44884866919E+02  0.51160445847E+02  0.91690645136E+02  0.00000000000E+00 0.  1.
</event>
<event>
 8    1  0.7232317E-009  0.1074423E+03  0.7561462E-02  0.1265381E+00
         -1   -1    0    0    0  501 -0.00000000000E+00  0.00000000000E+00  0.94764357117E+03  0.94764357117E+03  0.00000000000E+00 0.  1.
          1   -1    0    0  501    0  0.00000000000E+00 -0.00000000000E+00 -0.28343507483E+02  0.28343507483E+02  0.00000000000E+00 0. -1.
         25    2    1    2    0    0  0.68911554187E+02  0.63617137710E+02  0.72825588380E+03  0.74484933868E+03  0.12509181640E+03 0.  0.
         23    2    1    2    0    0 -0.68911554187E+02 -0.63617137710E+02  0.19104417989E+03  0.23113773998E+03  0.90171135413E+02 0.  0.
          5    1    3    3  502    0  0.57897997857E+02  0.29461651222E+02  0.68671980939E+03  0.68979832999E+03  0.41800000000E+01 0.  1.
         -5    1    3    3    0  502  0.11013556330E+02  0.34155486488E+02  0.41536074414E+02  0.55051008692E+02  0.41800000000E+01 0.  1.
        -11    1    4    4    0    0 -0.79536441568E+02 -0.42884752413E+02  0.18673103372E+03  0.20744547833E+03  0.00000000000E+00 0.  1.
         11    1    4    4    0    0  0.10624887380E+02 -0.20732385297E+02  0.43131461689E+01  0.23692261644E+02  0.00000000000E+00 0. -1.
</event>
<event>
 8    1  0.7232317E-009  0.1267628E+03  0.7561462E-02  0.1232340E+00
          1   -1    0    0  501    0  0.00000000000E+00  0.00000000000E+00  0.79634250749E+02  0.79634250749E+02  0.00000000000E+00 0. -1.
         -1   -1    0    0    0  501 -0.00000000000E+00 -0.00000000000E+00 -0.22562329120E+03  0.22562329120E+03  0.00000000000E+00 0.  1.
         25    2    1    2    0    0 -0.26033495092E+02  0.74687870371E+02 -0.71253187651E+02  0.16425833063E+03  0.12509101321E+03 0.  0.
         23    2    1    2    0    0  0.26033495092E+02 -0.74687870371E+02 -0.74735852798E+02  0.14099921131E+03  0.89662194094E+02 0.  0.
          5    1    3    3  502    0 -0.55415680532E+02 -0.83091891351E+01 -0.45860568179E+02  0.72530024035E+02  0.41800000000E+01 0.  1.
         -5    1    3    3    0  502  0.29382185440E+02  0.82997059506E+02 -0.25392619472E+02  0.91728306600E+02  0.41800000000E+01 0.  1.
        -11    1    4    4    0    0  0.53684348735E+00  0.15479190700E+02 -0.36767084683E+02  0.39896266263E+02  0.00000000000E+00 0.  1.
         11    1    4    4    0    0  0.25496651605E+02 -0.90167061071E+02 -0.37968768115E+02  0.10110294505E+03  0.00000000000E+00 0. -1.
</event>
<event>
 8    1  0.7232317E-009  0.1101406E+03  0.7561462E-02  0.1260310E+00
          2   -1    0    0  501    0  0.00000000000E+00  0.00000000000E+00  0.14297909426E+04  0.14297909426E+04  0.00000000000E+00 0. -1.
         -2   -1    0    0    0  501 -0.00000000000E+00 -0.00000000000E+00 -0.12000355216E+02  0.12000355216E+02  0.00000000000E+00 0.  1.
         25    2    1    2    0    0 -0.12104496362E+02 -0.71895807479E+02  0.81461677871E+03  0.82738380227E+03  0.12509170296E+03 0.  0.
         23    2    1    2    0    0  0.12104496362E+02  0.71895807479E+02  0.60317380869E+03  0.61440749556E+03  0.91446165254E+02 0.  0.
          5    1    3    3  502    0 -0.41244710732E+02 -0.20464532722E+02  0.66280842303E+03  0.66441884479E+03  0.41800000000E+01 0. -1.
         -5    1    3    3    0  502  0.29140214371E+02 -0.51431274757E+02  0.15180835567E+03  0.16296495749E+03  0.41800000000E+01 0. -1.
        -11    1    4    4    0    0  0.41709300347E+02  0.74173761416E+02  0.49361671601E+03  0.50089806842E+03  0.00000000000E+00 0. -1.
         11    1    4    4    0    0 -0.29604803985E+02 -0.22779539363E+01  0.10955709268E+03  0.11350942714E+03  0.00000000000E+00 0.  1.
</event>
<event>
 8    1  0.7232317E-009  0.1319501E+03  0.7561462E-02  0.1224591E+00
          4   -1    0    0  501    0  0.00000000000E+00  0.00000000000E+00  0.36020908603E+03  0.36020908603E+03  0.00000000000E+00 0. -1.
         -4   -1    0    0    0  501 -0.00000000000E+00 -0.00000000000E+00 -0.94877049078E+02  0.94877049078E+02  0.00000000000E+00 0.  1.
         25    2    1    2    0    0 -0.33069958593E+02 -0.10407902069E+03  0.14402266370E+02  0.16667245115E+03  0.12508483516E+03 0.  0.
         23    2    1    2    0    0  0.33069958593E+02  0.10407902069E+03  0.25092977058E+03  0.28841368396E+03  0.91052944054E+02 0.  0.
          5    1    3    3  502    0 -0.62592390582E+02 -0.66472009387E+02 -0.34930154608E+02  0.97846428099E+02  0.41800000000E+01 0.  1.
         -5    1    3    3    0  502  0.29522431989E+02 -0.37607011302E+02  0.49332420978E+02  0.68826023052E+02  0.41800000000E+01 0.  1.
        -11    1    4    4    0    0  0.49689294824E+02  0.63305109818E+02  0.86315217919E+02  0.11801220188E+03  0.00000000000E+00 0.  1.
         11    1    4    4    0    0 -0.16619336231E+02  0.40773910871E+02  0.16461455267E+03  0.17040148208E+03  0.00000000000E+00 0. -1.
</event>
<event>
 8    1  0.7232317E-009  0.1138522E+03  0.7561462E-02  0.1253598E+00
         -1   -1    0    0    0  501 -0.00000000000E+00  0.00000000000E+00  0.38833205639E+02  0.38833205639E+02  0.00000000000E+00 0.  1.
          1   -1    0    0  501    0  0.00000000000E+00 -0.00000000000E+00 -0.39416565497E+03  0.39416565497E+03  0.00000000000E+00 0. -1.
         25    2    1    2    0    0  0.13093115698E+01  0.56703448365E+02 -0.16269807889E+03  0.21292087394E+03  0.12509052056E+03 0.  0.
         23    2    1    2    0    0 -0.13093115698E+01 -0.56703448365E+02 -0.19263437045E+03  0.22007798667E+03  0.90051786139E+02 0.  0.
          5    1    3    3  502    0  0.87348685198E+01  0.95848815965E+02 -0.10304802615E+03  0.14106616017E+03  0.41800000000E+01 0. -1.
         -5    1    3    3    0  502 -0.74255569499E+01 -0.39145367600E+02 -0.59650052734E+02  0.71854713775E+02  0.41800000000E+01 0. -1.
        -11    1    4    4    0    0  0.32844219086E+02 -0.11822094453E+02 -0.24261032452E+02  0.42510026350E+02  0.00000000000E+00 0.  1.
         11    1    4    4    0    0 -0.34153530656E+02 -0.44881353912E+02 -0.16837333800E+03  0.17756796032E+03  0.00000000000E+00 0. -1.
</event>
<event>
 8    1  0.7232317E-009  0.7589127E+02  0.7561462E-02  0.1341133E+00
         -2   -1    0    0    0  501 -0.00000000000E+00  0.00000000000E+00  0.27570949607E+03  0.27570949607E+03  0.00000000000E+00 0. -1.
          2   -1    0    0  501    0  0.00000000000E+00 -0.00000000000E+00 -0.61817564750E+02  0.61817564750E+02  0.00000000000E+00 0.  1.
         25    2    1    2    0    0  0.53360931156E+02 -0.45607527083E+02  0.98675897112E+02  0.17410329067E+03  0.12509031798E+03 0.  0.
         23    2    1    2    0    0 -0.53360931156E+02  0.45607527083E+02  0.11521603421E+03  0.16342377015E+03  0.92223416821E+02 0.  0.
          5    1    3    3  502    0 -0.39041078722E+01  0.14425595892E-01 -0.27540570643E+02  0.28128236662E+02  0.41800000000E+01 0. -1.
         -5    1    3    3    0  502  0.57265039028E+02 -0.45621952679E+02  0.12621646776E+03  0.14597505401E+03  0.41800000000E+01 0. -1.
        -11    1    4    4    0    0 -0.23952476695E+02  0.32888086412E+02 -0.31403638242E+01  0.40806975539E+02  0.00000000000E+00 0.  1.
         11    1    4    4    0    0 -0.29408454461E+02  0.12719440671E+02  0.11835639803E+03  0.12261679461E+03  0.00000000000E+00 0. -1.
</event>
<event>
 8    1  0.7232317E-009  0.8894251E+02  0.7561462E-02  0.1305433E+00
          1   -1    0    0  501    0  0.00000000000E+00  0.00000000000E+00  0.78719441552E+02  0.78719441552E+02  0.00000000000E+00 0. -1.
         -1   -1    0    0    0  501 -0.00000000000E+00 -0.00000000000E+00 -0.18332305171E+03  0.18332305171E+03  0.00000000000E+00 0.  1.
         25    2    1    2    0    0 -0.30291688079E+02  0.22127103549E+02 -0.19603983492E+02  0.13205631617E+03  0.12508940560E+03 0.  0.
         23    2    1    2    0    0  0.30291688079E+02 -0.22127103549E+02 -0.84999626669E+02  0.12998617709E+03  0.90908055878E+02 0.  0.
          5    1    3    3  502    0 -0.20415946832E+02 -0.24263262580E+02 -0.61056360215E+02  0.68926542920E+02  0.41800000000E+01 0.  1.
         -5    1    3    3    0  502 -0.98757412473E+01  0.46390366129E+02  0.41452376723E+02  0.63129773251E+02  0.41800000000E+01 0.  1.
        -11    1    4    4    0    0  0.34879864789E+02  0.29970788488E+02 -0.41973011815E+02  0.62262242581E+02  0.00000000000E+00 0.  1.
         11    1    4    4    0    0 -0.45881767100E+01 -0.52097892037E+02 -0.43026614854E+02  0.67723934513E+02  0.00000000000E+00 0. -1.
</event>
<event>
 8    1  0.7232317E-009  0.1260949E+03  0.7561462E-02  0.1233368E+00
          1   -1    0    0  501    0  0.00000000000E+00  0.00000000000E+00  0.17114138141E+03  0.17114138141E+03  0.00000000000E+00 0. -1.
         -1   -1    0    0    0  501 -0.00000000000E+00 -0.00000000000E+00 -0.99625892850E+02  0.99625892850E+02  0.00000000000E+00 0.  1.
         25    2    1    2    0    0 -0.54892773687E+02  0.41446190523E+02  0.63688049097E+02  0.15631963014E+03  0.12509458764E+03 0.  0.
         23    2    1    2    0    0  0.54892773687E+02 -0.41446190523E+02  0.78274394620E+01  0.11444764412E+03  0.91137210430E+02 0.  0.
          5    1    3    3  502    0 -0.89542459844E+02  0.49525878536E+02  0.63489703275E+02  0.12049514339E+03  0.41800000000E+01 0. -1.
         -5    1    3    3    0  502  0.34649686157E+02 -0.80796880126E+01  0.19834582172E+00  0.35824486741E+02  0.41800000000E+01 0. -1.
        -11    1    4    4    0    0  0.79573242306E+02 -0.22071666162E+02  0.88772072298E+01  0.83053381306E+02  0.00000000000E+00 0. -1.
         11    1    4    4    0    0 -0.24680468619E+02 -0.19374524362E+02 -0.10497677678E+01  0.31394262817E+02  0.00000000000E+00 0.  1.
</event>
<event>
 8    1  0.7232317E-009  0.1051135E+03  0.7561462E-02  0.1269896E+00
         -1   -1    0    0    0  501 -0.00000000000E+00  0.00000000000E+00  0.64731435192E+02  0.64731435192E+02  0.00000000000E+00 0.  1.
          1   -1    0    0  501    0  0.00000000000E+00 -0.00000000000E+00 -0.28602094747E+03  0.28602094747E+03  0.00000000000E+00 0. -1.
         25    2    1    2    0    0  0.73269866778E+02 -0.66029684733E+01 -0.74225258555E+02  0.16299529284E+03  0.12508398742E+03 0.  0.
         23    2    1    2    0    0 -0.73269866778E+02  0.66029684733E+01 -0.14706425372E+03  0.18775708982E+03  0.90624265439E+02 0.  0.
          5    1    3    3  502    0  0.90955653260E+02 -0.71112068849E+01 -0.97413150546E+02  0.13353012552E+03  0.41800000000E+01 0. -1.
         -5    1    3    3    0  502 -0.17685786482E+02  0.50823841152E+00  0.23187891991E+02  0.29465167312E+02  0.41800000000E+01 0. -1.
        -11    1    4    4    0    0 -0.50205451100E+02 -0.29236785768E+02 -0.34914498914E+02  0.67781997585E+02  0.00000000000E+00 0.  1.
         11    1    4    4    0    0 -0.23064415678E+02  0.35839754241E+02 -0.11214975480E+03  0.11997509224E+03  0.00000000000E+00 0. -1.
</event>
<event>
 8    1  0.7232317E-009  0.9838977E+02  0.7561462E-02  0.1283719E+00
          1   -1    0    0  501    0  0.00000000000E+00  0.00000000000E+00  0.13202552094E+03  0.13202552094E+03  0.00000000000E+00 0. -1.
         -1   -1    0    0    0  501 -0.00000000000E+00 -0.00000000000E+00 -0.10374980844E+03  0.10374980844E+03  0.00000000000E+00 0.  1.
         25    2    1    2    0    0  0.30092860447E+02  0.52527799195E+01  0.46928953226E+02  0.13704829312E+03  0.12508691398E+03 0.  0.
         23    2    1    2    0    0 -0.30092860447E+02 -0.52527799195E+01 -0.18653240726E+02  0.98727036248E+02  0.92010392620E+02 0.  0.
          5    1    3    3  502    0  0.64242173542E+02 -0.45043924525E+01 -0.14337324114E+02  0.66108832054E+02  0.41800000000E+01 0. -1.
         -5    1    3    3    0  502 -0.34149313095E+02  0.97571723720E+01  0.61266277340E+02  0.70939461068E+02  0.41800000000E+01 0. -1.
        -11    1    4    4    0    0 -0.27179841612E+02 -0.47183112786E+02 -0.15308789767E+02  0.56562787823E+02  0.00000000000E+00 0.  1.
         11    1    4    4    0    0 -0.29130188345E+01  0.41930332866E+02 -0.33444509592E+01  0.42164248425E+02  0.00000000000E+00 0. -1.
</event>
<event>
 8    1  0.7232317E-009  0.1389239E+03  0.7561462E-02  0.1214784E+00
         -1   -1    0    0    0  501 -0.00000000000E+00  0.00000000000E+00  0.51759551680E+03  0.51759551680E+03  0.00000000000E+00 0.  1.
          1   -1    0    0  501    0  0.00000000000E+00 -0.00000000000E+00 -0.46971620663E+02  0.46971620663E+02  0.00000000000E+00 0. -1.
         25    2    1    2    0    0  0.71333503378E+02  0.71274672008E+02  0.34449132371E+03  0.38011761351E+03  0.12508629186E+03 0.  0.
         23    2    1    2    0    0 -0.71333503378E+02 -0.71274672008E+02  0.12613257243E+03  0.18444952396E+03  0.89127175921E+02 0.  0.
          5    1    3    3  502    0  0.10430435724E+03  0.60575264346E+02  0.22126579884E+03  0.25204124211E+03  0.41800000000E+01 0.  1.
         -5    1    3    3    0  502 -0.32970853866E+02  0.10699407662E+02  0.12322552487E+03  0.12807637139E+03  0.41800000000E+01 0.  1.
        -11    1    4    4    0    0 -0.14069533428E+02 -0.62797661708E+02  0.10435052533E+03  0.12259906290E+03  0.00000000000E+00 0.  1.
         11    1    4    4    0    0 -0.57263969950E+02 -0.84770102995E+01  0.21782047104E+02  0.61850461066E+02  0.00000000000E+00 0. -1.
</event>
<event>
 8    1  0.7232317E-009  0.1589029E+03  0.7561462E-02  0.1189941E+00
          2   -1    0    0  501    0  0.00000000000E+00  0.00000000000E+00  0.18896406342E+03  0.18896406342E+03  0.00000000000E+00 0. -1.
         -2   -1    0    0    0  501 -0.00000000000E+00 -0.00000000000E+00 -0.19257225124E+03  0.19257225124E+03  0.00000000000E+00 0.  1.
         25    2    1    2    0    0 -0.87094185721E+02 -0.10405777358E+03  0.78028485165E+02  0.20037364765E+03  0.12509091392E+03 0.  0.
         23    2    1    2    0    0  0.87094185721E+02  0.10405777358E+03 -0.81636672986E+02  0.18116266701E+03  0.87988340783E+02 0.  0.
          5    1    3    3  502    0 -0.73698774557E+01  0.25582732456E+02  0.30889587995E+02  0.40993052340E+02  0.41800000000E+01 0. -1.
         -5    1    3    3    0  502 -0.79724308265E+02 -0.12964050604E+03  0.47138897170E+02  0.15938059531E+03  0.41800000000E+01 0. -1.
        -11    1    4    4    0    0  0.54612777916E+02  0.43239085238E+02 -0.87642586950E+02  0.11195265540E+03  0.00000000000E+00 0.  1.
         11    1    4    4    0    0  0.32481407805E+02  0.60818688345E+02  0.60059139634E+01  0.69210011613E+02  0.00000000000E+00 0. -1.
</event>
<event>
 8    1  0.7232317E-009  0.3443572E+03  0.7561462E-02  0.1064955E+00
          1   -1    0    0  501    0  0.00000000000E+00  0.00000000000E+00  0.13915870386E+04  0.13915870386E+04  0.00000000000E+00 0. -1.
         -1   -1    0    0    0  501 -0.00000000000E+00 -0.00000000000E+00 -0.93015440203E+02  0.93015440203E+02  0.00000000000E+00 0.  1.
         25    2    1    2    0    0  0.40572367118E+02  0.33477385457E+03  0.53093634548E+03  0.64129705969E+03  0.12509542412E+03 0.  0.
         23    2    1    2    0    0 -0.40572367118E+02 -0.33477385457E+03  0.76763525291E+03  0.84330541911E+03  0.90446103876E+02 0.  0.
          5    1    3    3  502    0 -0.26112565246E+02  0.86504911663E+02  0.21975576911E+03  0.23764476906E+03  0.41800000000E+01 0. -1.
         -5    1    3    3    0  502  0.66684932364E+02  0.24826894291E+03  0.31118057637E+03  0.40365229062E+03  0.41800000000E+01 0. -1.
        -11    1    4    4    0    0  0.11618744966E+02 -0.98645910094E+02  0.14888423638E+03  0.17897632988E+03  0.00000000000E+00 0.  1.
         11    1    4    4    0    0 -0.52191112084E+02 -0.23612794448E+03  0.61875101653E+03  0.66432908923E+03  0.00000000000E+00 0. -1.
</event>
<event>
 8    1  0.7232317E-009  0.1378409E+03  0.7561462E-02  0.1216264E+00
          1   -1    0    0  501    0  0.00000000000E+00  0.00000000000E+00  0.55986235581E+03  0.55986235581E+03  0.00000000000E+00 0. -1.
         -1   -1    0    0    0  501 -0.00000000000E+00 -0.00000000000E+00 -0.43188637849E+02  0.43188637849E+02  0.00000000000E+00 0.  1.
         25    2    1    2    0    0  0.46770658661E+02 -0.10084973044E+03  0.26191168377E+03  0.31081160268E+03  0.12509180478E+03 0.  0.
         23    2    1    2    0    0 -0.46770658661E+02  0.10084973044E+03  0.25476203420E+03  0.29223939098E+03  0.90233058978E+02 0.  0.
          5    1    3    3  502    0  0.75938075906E+02 -0.10980817268E+03  0.23298949179E+03  0.26856284524E+03  0.41800000000E+01 0.  1.
         -5    1    3    3    0  502 -0.29167417245E+02  0.89584422412E+01  0.28922191982E+02  0.42248757439E+02  0.41800000000E+01 0.  1.
        -11    1    4    4    0    0 -0.56096155587E+01  0.17031885361E+02 -0.29123550831E+01  0.18166857675E+02  0.00000000000E+00 0.  1.
         11    1    4    4    0    0 -0.41161043102E+02  0.83817845082E+02  0.25767438928E+03  0.27407253331E+03  0.00000000000E+00 0. -1.
</event>
<event>
 8    1  0.7232317E-009  0.1036743E+03  0.7561462E-02  0.1272754E+00
         -2   -1    0    0    0  501 -0.00000000000E+00  0.00000000000E+00  0.18237120139E+02  0.18237120139E+02  0.00000000000E+00 0. -1.
          2   -1    0    0  501    0  0.00000000000E+00 -0.00000000000E+00 -0.67547961993E+03  0.67547961993E+03  0.00000000000E+00 0.  1.
         25    2    1    2    0    0  0.56989274762E+01  0.36177368309E+00 -0.47060285420E+03  0.48697781315E+03  0.12509090881E+03 0.  0.
         23    2    1    2    0    0 -0.56989274762E+01 -0.36177368309E+00 -0.18663964560E+03  0.20673892692E+03  0.88735663306E+02 0.  0.
          5    1    3    3  502    0  0.34565159325E+02 -0.53392223619E+02 -0.22268366547E+03  0.23162678396E+03  0.41800000000E+01 0.  1.
         -5    1    3    3    0  502 -0.28866231849E+02  0.53753997303E+02 -0.24791918873E+03  0.25535102919E+03  0.41800000000E+01 0.  1.
        -11    1    4    4    0    0  0.38232525343E+02  0.32485735093E+01 -0.49136434044E+02  0.62343150181E+02  0.00000000000E+00 0. -1.
         11    1    4    4    0    0 -0.43931452819E+02 -0.36103471924E+01 -0.13750321155E+03  0.14439577674E+03  0.00000000000E+00 0.  1.
</event>
<event>
 8    1  0.7232317E-009  0.7009517E+02  0.7561462E-02  0.1359770E+00
          2   -1    0    0  501    0  0.00000000000E+00  0.00000000000E+00  0.23713681524E+03  0.23713681524E+03  0.00000000000E+00 0. -1.
         -2   -1    0    0    0  501 -0.00000000000E+00 -0.00000000000E+00 -0.11602864811E+03  0.11602864811E+03  0.00000000000E+00 0.  1.
         25    2    1    2    0    0  0.48303170870E+02 -0.14900779550E+01  0.18643502504E+03  0.22965657377E+03  0.12509479072E+03 0.  0.
         23    2    1    2    0    0 -0.48303170870E+02  0.14900779550E+01 -0.65326857908E+02  0.12350888958E+03  0.93013067860E+02 0.  0.
          5    1    3    3  502    0 -0.21434443279E+02  0.14617347590E+01  0.14849976857E+03  0.15010404955E+03  0.41800000000E+01 0.  1.
         -5    1    3    3    0  502  0.69737614149E+02 -0.29518127141E+01  0.37935256471E+02  0.79552524215E+02  0.41800000000E+01 0.  1.
        -11    1    4    4    0    0 -0.32406895329E+02 -0.55294136089E-01 -0.89133095034E+02  0.94841544445E+02  0.00000000000E+00 0.  1.
         11    1    4    4    0    0 -0.15896275541E+02  0.15453720911E+01  0.23806237126E+02  0.28667345135E+02  0.00000000000E+00 0. -1.
</event>
<event>
 8    1  0.7232317E-009  0.1341151E+03  0.7561462E-02  0.1221474E+00
          2   -1    0    0  501    0  0.00000000000E+00  0.00000000000E+00  0.11267306953E+03  0.11267306953E+03  0.00000000000E+00 0. -1.
         -2   -1    0    0    0  501 -0.00000000000E+00 -0.00000000000E+00 -0.21447966509E+03  0.21447966509E+03  0.00000000000E+00 0.  1.
         25    2    1    2    0    0  0.85690365461E+02  0.52895289372E+02 -0.48162575784E+01  0.16066125312E+03  0.12509233209E+03 0.  0.
         23    2    1    2    0    0 -0.85690365461E+02 -0.52895289372E+02 -0.96990337982E+02  0.16649148151E+03  0.90396556253E+02 0.  0.
          5    1    3    3  502    0  0.67520064861E+02 -0.29585713686E+02  0.10945331364E+02  0.74642791292E+02  0.41800000000E+01 0. -1.
         -5    1    3    3    0  502  0.18170300600E+02  0.82481003058E+02 -0.15761588943E+02  0.86018461828E+02  0.41800000000E+01 0. -1.
        -11    1    4    4    0    0 -0.69339887408E+02 -0.60291819748E+02 -0.11073022080E+03  0.14388990692E+03  0.00000000000E+00 0.  1.
         11    1    4    4    0    0 -0.16350478053E+02  0.73965303761E+01  0.13739882817E+02  0.22601574592E+02  0.00000000000E+00 0. -1.
</event>
<event>
 8    1  0.7232317E-009  0.1149298E+03  0.7561462E-02  0.1251704E+00
          2   -1    0    0  501    0  0.00000000000E+00  0.00000000000E+00  0.75429251143E+02  0.75429251143E+02  0.00000000000E+00 0. -1.
         -2   -1    0    0    0  501 -0.00000000000E+00 -0.00000000000E+00 -0.20564168610E+03  0.20564168610E+03  0.00000000000E+00 0.  1.
         25    2    1    2    0    0  0.90253750078E+01 -0.52981668914E+02 -0.10277914022E+03  0.17058485516E+03  0.12508847473E+03 0.  0.
         23    2    1    2    0    0 -0.90253750078E+01  0.52981668914E+02 -0.27433294734E+02  0.11048608208E+03  0.92553087680E+02 0.  0.
          5    1    3    3  502    0 -0.28538460196E+02  0.30145209650E+02 -0.49974252655E+02  0.65100504634E+02  0.41800000000E+01 0. -1.
         -5    1    3    3    0  502  0.37563835203E+02 -0.83126878563E+02 -0.52804887568E+02  0.10548435053E+03  0.41800000000E+01 0. -1.
        -11    1    4    4    0    0 -0.43109064820E+02  0.43949370602E+02  0.60523223997E+01  0.61859269737E+02  0.00000000000E+00 0. -1.
         11    1    4    4    0    0  0.34083689813E+02  0.90322983117E+01 -0.33485617134E+02  0.48626812346E+02  0.00000000000E+00 0.  1.
</event>
<event>
 8    1  0.7232317E-009  0.1077687E+03  0.7561462E-02  0.1264759E+00
          4   -1    0    0  501    0  0.00000000000E+00  0.00000000000E+00  0.15434583013E+03  0.15434583013E+03  0.00000000000E+00 0. -1.
         -4   -1    0    0    0  501 -0.00000000000E+00 -0.00000000000E+00 -0.81434374050E+02  0.81434374050E+02  0.00000000000E+00 0.  1.
         25    2    1    2    0    0 -0.32789287885E+01  0.22120917961E+02  0.62950129649E+02  0.14181648592E+03  0.12509640471E+03 0.  0.
         23    2    1    2    0    0  0.32789287885E+01 -0.22120917961E+02  0.99613264361E+01  0.93963718263E+02  0.90718608565E+02 0.  0.
          5    1    3    3  502    0  0.56782406540E+02  0.31321708491E+02  0.22794770401E+02  0.68864831902E+02  0.41800000000E+01 0.  1.
         -5    1    3    3    0  502 -0.60061335328E+02 -0.92007905298E+01  0.40155359247E+02  0.72951654019E+02  0.41800000000E+01 0.  1.
        -11    1    4    4    0    0  0.40204670104E+02  0.91827133324E+01  0.17812158042E+02  0.44922273945E+02  0.00000000000E+00 0. -1.
         11    1    4    4    0    0 -0.36925741315E+02 -0.31303631294E+02 -0.78508316062E+01  0.49041444318E+02  0.00000000000E+00 0.  1.
</event>
<event>
 8    1  0.7232317E-009  0.9906017E+02  0.7561462E-02  0.1282285E+00
         -1   -1    0    0    0  501 -0.00000000000E+00  0.00000000000E+00  0.32529461700E+03  0.32529461700E+03  0.00000000000E+00 0.  1.
          1   -1    0    0  501    0  0.00000000000E+00 -0.00000000000E+00 -0.45540020899E+02  0.45540020899E+02  0.00000000000E+00 0. -1.
         25    2    1    2    0    0  0.11625618213E+02  0.41938030158E+02  0.10670029893E+03  0.17007620336E+03  0.12508800016E+03 0.  0.
         23    2    1    2    0    0 -0.11625618213E+02 -0.41938030158E+02  0.17305429717E+03  0.20075843455E+03  0.91990248934E+02 0.  0.
          5    1    3    3  502    0 -0.48915742032E+02  0.49652466131E+02  0.69289277642E+02  0.98369678293E+02  0.41800000000E+01 0.  1.
         -5    1    3    3    0  502  0.60541360244E+02 -0.77144359733E+01  0.37411021289E+02  0.71706525062E+02  0.41800000000E+01 0.  1.
        -11    1    4    4    0    0  0.15789809387E+02 -0.35655045507E+02  0.16764038746E+03  0.17211594888E+03  0.00000000000E+00 0.  1.
         11    1    4    4    0    0 -0.27415427600E+02 -0.62829846506E+01  0.54139097082E+01  0.28642485663E+02  0.00000000000E+00 0. -1.
</event>
<event>
 8    1  0.7232317E-009  0.9361748E+02  0.7561462E-02  0.1294321E+00
         -1   -1    0    0    0  501 -0.00000000000E+00  0.00000000000E+00  0.15350936801E+03  0.15350936801E+03  0.00000000000E+00 0.  1.
          1   -1    0    0  501    0  0.00000000000E+00 -0.00000000000E+00 -0.97253819701E+02  0.97253819701E+02  0.00000000000E+00 0. -1.
         25    2    1    2    0    0  0.85732303691E+01 -0.30550140430E+02 -0.17280348628E+02  0.13020203929E+03  0.12508856554E+03 0.  0.
         23    2    1    2    0    0 -0.85732303691E+01  0.30550140430E+02  0.73535896939E+02  0.12056114842E+03  0.90114654804E+02 0.  0.
          5    1    3    3  502    0  0.48634805455E+02 -0.93843659531E+01  0.35075195596E+02  0.60837097006E+02  0.41800000000E+01 0. -1.
         -5    1    3    3    0  502 -0.40061575086E+02 -0.21165774477E+02 -0.52355544224E+02  0.69364942287E+02  0.41800000000E+01 0. -1.
        -11    1    4    4    0    0  0.19748172042E+02  0.52566183293E+02  0.60111912358E+02  0.82259564382E+02  0.00000000000E+00 0. -1.
         11    1    4    4    0    0 -0.28321402411E+02 -0.22016042862E+02  0.13423984581E+02  0.38301584039E+02  0.00000000000E+00 0.  1.
</event>
<event>
 8    1  0.7232317E-009  0.2174382E+03  0.7561462E-02  0.1135808E+00
          2   -1    0    0  501    0  0.00000000000E+00  0.00000000000E+00  0.56594527314E+03  0.56594527314E+03  0.00000000000E+00 0. -1.
         -2   -1    0    0    0  501 -0.00000000000E+00 -0.00000000000E+00 -0.10061540361E+03  0.10061540361E+03  0.00000000000E+00 0.  1.
         25    2    1    2    0    0  0.15935074767E+03  0.13480834485E+03  0.27969671716E+03  0.37073377994E+03  0.12508929362E+03 0.  0.
         23    2    1    2    0    0 -0.15935074767E+03 -0.13480834485E+03  0.18563315237E+03  0.29582689681E+03  0.97406031595E+02 0.  0.
          5    1    3    3  502    0  0.15410131480E+03  0.12582738242E+03  0.29246545739E+03  0.35374180069E+03  0.41800000000E+01 0.  1.
         -5    1    3    3    0  502  0.52494328731E+01  0.89809624308E+01 -0.12768740235E+02  0.16991979251E+02  0.41800000000E+01 0.  1.
        -11    1    4    4    0    0 -0.10397663288E+03 -0.33534061879E+02  0.57814400587E+02  0.12360492873E+03  0.00000000000E+00 0.  1.
         11    1    4    4    0    0 -0.55374114786E+02 -0.10127428297E+03  0.12781875178E+03  0.17222196807E+03  0.00000000000E+00 0. -1.
</event>
<event>
 8    1  0.7232317E-009  0.9101506E+02  0.7561462E-02  0.1300412E+00
         -3   -1    0    0    0  501 -0.00000000000E+00  0.00000000000E+00  0.90181252078E+02  0.90181252078E+02  0.00000000000E+00 0.  1.
          3   -1    0    0  501    0  0.00000000000E+00 -0.00000000000E+00 -0.20658238541E+03  0.20658238541E+03  0.00000000000E+00 0. -1.
         25    2    1    2    0    0 -0.44427289654E+02  0.48265905075E+02 -0.12456588882E+02  0.14179657913E+03  0.12509085334E+03 0.  0.
         23    2    1    2    0    0  0.44427289654E+02 -0.48265905075E+02 -0.10394454445E+03  0.15496705836E+03  0.94376581816E+02 0.  0.
          5    1    3    3  502    0  0.10629597295E+02 -0.36727766787E+01  0.45067247147E+02  0.46636968090E+02  0.41800000000E+01 0. -1.
         -5    1    3    3    0  502 -0.55056886949E+02  0.51938681753E+02 -0.57523836029E+02  0.95159611045E+02  0.41800000000E+01 0. -1.
        -11    1    4    4    0    0  0.52709401082E+01 -0.54346742900E+02 -0.13534066329E+02  0.56254086295E+02  0.00000000000E+00 0.  1.
         11    1    4    4    0    0  0.39156349545E+02  0.60808378258E+01 -0.90410478125E+02  0.98712972061E+02  0.00000000000E+00 0. -1.
</event>
<event>
 8    1  0.7232317E-009  0.1355790E+03  0.7561462E-02  0.1219405E+00
         -2   -1    0    0    0  501 -0.00000000000E+00  0.00000000000E+00  0.43675258011E+02  0.43675258011E+02  0.00000000000E+00 0.  1.
          2   -1    0    0  501    0  0.00000000000E+00 -0.00000000000E+00 -0.62442604437E+03  0.62442604437E+03  0.00000000000E+00 0. -1.
         25    2    1    2    0    0 -0.11790006859E+02 -0.12291870759E+03 -0.27952314249E+03  0.33019528123E+03  0.12509086146E+03 0.  0.
         23    2    1    2    0    0  0.11790006859E+02  0.12291870759E+03 -0.30122764387E+03  0.33790602115E+03  0.90522774822E+02 0.  0.
          5    1    3    3  502    0 -0.15806600554E+02 -0.82975342615E+02 -0.52345319703E+02  0.99459846159E+02  0.41800000000E+01 0.  1.
         -5    1    3    3    0  502  0.40165936943E+01 -0.39943364979E+02 -0.22717782278E+03  0.23073543507E+03  0.41800000000E+01 0.  1.
        -11    1    4    4    0    0 -0.31984285875E+02  0.31624369749E+02 -0.14433724371E+03  0.15118311820E+03  0.00000000000E+00 0. -1.
         11    1    4    4    0    0  0.43774292734E+02  0.91294337845E+02 -0.15689040015E+03  0.18672290295E+03  0.00000000000E+00 0.  1.
</event>
<event>
 8    1  0.7232317E-009  0.1093716E+03  0.7561462E-02  0.1261738E+00
         -2   -1    0    0    0  501 -0.00000000000E+00  0.00000000000E+00  0.26014009131E+03  0.26014009131E+03  0.00000000000E+00 0. -1.
          2   -1    0    0  501    0  0.00000000000E+00 -0.00000000000E+00 -0.50306974780E+02  0.50306974780E+02  0.00000000000E+00 0.  1.
         25    2    1    2    0    0 -0.92352081156E+01 -0.25847023502E+02  0.13826689259E+03  0.18846259992E+03  0.12508821002E+03 0.  0.
         23    2    1    2    0    0  0.92352081156E+01  0.25847023502E+02  0.71566223938E+02  0.12198446617E+03  0.94895352288E+02 0.  0.
          5    1    3    3  502    0  0.33764778023E+02 -0.58155046540E+02  0.10600441220E+03  0.12560444848E+03  0.41800000000E+01 0.  1.
         -5    1    3    3    0  502 -0.42999986139E+02  0.32308023037E+02  0.32262480394E+02  0.62858151434E+02  0.41800000000E+01 0.  1.
        -11    1    4    4    0    0 -0.22878539717E+02 -0.27118111580E+02  0.16595974235E+02  0.39169451312E+02  0.00000000000E+00 0. -1.
         11    1    4    4    0    0  0.32113747833E+02  0.52965135082E+02  0.54970249702E+02  0.82815014861E+02  0.00000000000E+00 0.  1.
</event>
<event>
 8    1  0.7232317E-009  0.9990201E+02  0.7561462E-02  0.1280502E+00
          2   -1    0    0  501    0  0.00000000000E+00  0.00000000000E+00  0.72297750460E+03  0.72297750460E+03  0.00000000000E+00 0. -1.
         -2   -1    0    0    0  501 -0.00000000000E+00 -0.00000000000E+00 -0.28265980078E+02  0.28265980078E+02  0.00000000000E+00 0.  1.
         25    2    1    2    0    0  0.87169577964E+01 -0.30443408931E+02  0.61901135433E+03  0.63231710620E+03  0.12508828683E+03 0.  0.
         23    2    1    2    0    0 -0.87169577964E+01  0.30443408931E+02  0.75700170193E+02  0.11892637848E+03  0.86082409529E+02 0.  0.
          5    1    3    3  502    0  0.27899458207E+02 -0.63586070372E+02  0.20425385757E+03  0.21577460195E+03  0.41800000000E+01 0. -1.
         -5    1    3    3    0  502 -0.19182500411E+02  0.33142661442E+02  0.41475749676E+03  0.41654250425E+03  0.41800000000E+01 0. -1.
        -11    1    4    4    0    0 -0.12968751499E+02  0.60240560298E+02  0.50442103363E+02  0.79633657533E+02  0.00000000000E+00 0.  1.
         11    1    4    4    0    0  0.42517937023E+01 -0.29797151368E+02  0.25258066830E+02  0.39292720946E+02  0.00000000000E+00 0. -1.
</event>
<event>
 8    1  0.7232317E-009  0.2057289E+03  0.7561462E-02  0.1144994E+00
          1   -1    0    0  501    0  0.00000000000E+00  0.00000000000E+00  0.60673062463E+02  0.60673062463E+02  0.00000000000E+00 0. -1.
         -1   -1    0    0    0  501 -0.00000000000E+00 -0.00000000000E+00 -0.82710880747E+03  0.82710880747E+03  0.00000000000E+00 0.  1.
         25    2    1    2    0    0 -0.48766452111E+02  0.16758206314E+03 -0.57153045050E+03  0.61053768030E+03  0.12508912216E+03 0.  0.
         23    2    1    2    0    0  0.48766452111E+02 -0.16758206314E+03 -0.19490529451E+03  0.27724418964E+03  0.91729777725E+02 0.  0.
          5    1    3    3  502    0  0.52072306957E+01  0.15976630146E+03 -0.41650186651E+03  0.44614309761E+03  0.41800000000E+01 0.  1.
         -5    1    3    3    0  502 -0.53973682806E+02  0.78157616761E+01 -0.15502858399E+03  0.16439458269E+03  0.41800000000E+01 0.  1.
        -11    1    4    4    0    0 -0.19168508707E+02 -0.97059294247E+02 -0.10578663355E+03  0.14484043000E+03  0.00000000000E+00 0. -1.
         11    1    4    4    0    0  0.67934960817E+02 -0.70522768889E+02 -0.89118660966E+02  0.13240375963E+03  0.00000000000E+00 0.  1.
</event>
<event>
 8    1  0.7232317E-009  0.8920565E+02  0.7561462E-02  0.1304787E+00
          1   -1    0    0  501    0  0.00000000000E+00  0.00000000000E+00  0.55439743958E+03  0.55439743958E+03  0.00000000000E+00 0. -1.
         -1   -1    0    0    0  501 -0.00000000000E+00 -0.00000000000E+00 -0.25924507869E+02  0.25924507869E+02  0.00000000000E+00 0.  1.
         25    2    1    2    0    0 -0.11935700590E+02  0.49904606602E+02  0.32217471368E+03  0.34940913894E+03  0.12512901155E+03 0.  0.
         23    2    1    2    0    0  0.11935700590E+02 -0.49904606602E+02  0.20629821803E+03  0.23091280851E+03  0.90160077979E+02 0.  0.
          5    1    3    3  502    0 -0.36691041145E+02  0.13657080455E+02  0.20237454074E+02  0.44269349377E+02  0.41800000000E+01 0. -1.
         -5    1    3    3    0  502  0.24755340554E+02  0.36247526146E+02  0.30193725960E+03  0.30513978956E+03  0.41800000000E+01 0. -1.
        -11    1    4    4    0    0 -0.25351275190E+02 -0.51736300692E+02  0.75984235702E+02  0.95356887734E+02  0.00000000000E+00 0.  1.
         11    1    4    4    0    0  0.37286975781E+02  0.18316940907E+01  0.13031398233E+03  0.13555592078E+03  0.00000000000E+00 0. -1.
</event>
<event>
 8    1  0.7232317E-009  0.1089277E+03  0.7561462E-02  0.1262569E+00
         -2   -1    0    0    0  501 -0.00000000000E+00  0.00000000000E+00  0.17303128491E+02  0.17303128491E+02  0.00000000000E+00 0.  1.
          2   -1    0    0  501    0  0.00000000000E+00 -0.00000000000E+00 -0.81886360784E+03  0.81886360784E+03  0.00000000000E+00 0. -1.
         25    2    1    2    0    0  0.29242972813E+02  0.53214008862E+02 -0.52956180291E+03  0.54751261799E+03  0.12508989392E+03 0.  0.
         23    2    1    2    0    0 -0.29242972813E+02 -0.53214008862E+02 -0.27199867644E+03  0.28865411834E+03  0.75173385261E+02 0.  0.
          5    1    3    3  502    0  0.66949032165E+02 -0.56166064604E+00 -0.18654609768E+03  0.19824078120E+03  0.41800000000E+01 0. -1.
         -5    1    3    3    0  502 -0.37706059352E+02  0.53775669508E+02 -0.34301570523E+03  0.34927183679E+03  0.41800000000E+01 0. -1.
        -11    1    4    4    0    0  0.16092878740E+02 -0.29966343302E+02 -0.18273548166E+03  0.18587420137E+03  0.00000000000E+00 0. -1.
         11    1    4    4    0    0 -0.45335851554E+02 -0.23247665560E+02 -0.89263194771E+02  0.10277991696E+03  0.00000000000E+00 0.  1.
</event>
<event>
 8    1  0.7232317E-009  0.7485839E+02  0.7561462E-02  0.1344310E+00
         -1   -1    0    0    0  501 -0.00000000000E+00  0.00000000000E+00  0.25938574092E+03  0.25938574092E+03  0.00000000000E+00 0.  1.
          1   -1    0    0  501    0  0.00000000000E+00 -0.00000000000E+00 -0.45512649650E+02  0.45512649650E+02  0.00000000000E+00 0. -1.
         25    2    1    2    0    0  0.59616616502E+01  0.17673837857E+01  0.12938461313E+03  0.18006627705E+03  0.12507925871E+03 0.  0.
         23    2    1    2    0    0 -0.59616616502E+01 -0.17673837857E+01  0.84488478142E+02  0.12483211352E+03  0.91684723773E+02 0.  0.
          5    1    3    3  502    0 -0.44007066307E+01  0.37450228149E+02  0.13678557913E+03  0.14194947293E+03  0.41800000000E+01 0.  1.
         -5    1    3    3    0  502  0.10362368281E+02 -0.35682844363E+02 -0.74009660007E+01  0.38116804116E+02  0.41800000000E+01 0.  1.
        -11    1    4    4    0    0  0.15173199894E+02 -0.33203579806E+02  0.50887234538E+01  0.36859175429E+02  0.00000000000E+00 0. -1.
         11    1    4    4    0    0 -0.21134861544E+02  0.31436196020E+02  0.79399754688E+02  0.87972938096E+02  0.00000000000E+00 0.  1.
</event>
<event>
 8    1  0.7232317E-009  0.1034395E+03  0.7561462E-02  0.1273225E+00
          3   -1    0    0  501    0  0.00000000000E+00  0.00000000000E+00  0.10096917509E+03  0.10096917509E+03  0.00000000000E+00 0. -1.
         -3   -1    0    0    0  501 -0.00000000000E+00 -0.00000000000E+00 -0.15644288665E+03  0.15644288665E+03  0.00000000000E+00 0.  1.
         25    2    1    2    0    0 -0.18290027216E+02  0.13218434082E+02  0.29100334748E+02  0.13039654296E+03  0.12508867590E+03 0.  0.
         23    2    1    2    0    0  0.18290027216E+02 -0.13218434082E+02 -0.84574046310E+02  0.12701551878E+03  0.92037604311E+02 0.  0.
          5    1    3    3  502    0 -0.49285746310E+02 -0.40923963803E+02  0.96802894442E+01  0.64923308653E+02  0.41800000000E+01 0. -1.
         -5    1    3    3    0  502  0.30995719095E+02  0.54142397885E+02  0.19420045304E+02  0.65473234306E+02  0.41800000000E+01 0. -1.
        -11    1    4    4    0    0  0.48628096815E+02 -0.10006426995E+02 -0.82690660443E+02  0.96449809256E+02  0.00000000000E+00 0.  1.
         11    1    4    4    0    0 -0.30338069599E+02 -0.32120070866E+01 -0.18833858676E+01  0.30565709527E+02  0.00000000000E+00 0. -1.
</event>
<event>
 8    1  0.7232317E-009  0.1352955E+03  0.7561462E-02  0.1219803E+00
         -2   -1    0    0    0  501 -0.00000000000E+00  0.00000000000E+00  0.12684448803E+03  0.12684448803E+03  0.00000000000E+00 0.  1.
          2   -1    0    0  501    0  0.00000000000E+00 -0.00000000000E+00 -0.21343053256E+03  0.21343053256E+03  0.00000000000E+00 0. -1.
         25    2    1    2    0    0 -0.66469913170E+02 -0.10673569793E+03 -0.44483209984E+02  0.18285745584E+03  0.12508930656E+03 0.  0.
         23    2    1    2    0    0  0.66469913170E+02  0.10673569793E+03 -0.42102834547E+02  0.15741756476E+03  0.84834441409E+02 0.  0.
          5    1    3    3  502    0 -0.13809727558E+02 -0.63282547038E+02 -0.82208118707E+02  0.10474271581E+03  0.41800000000E+01 0. -1.
         -5    1    3    3    0  502 -0.52660185612E+02 -0.43453150889E+02  0.37724908723E+02  0.78114740024E+02  0.41800000000E+01 0. -1.
        -11    1    4    4    0    0  0.48247925657E+02  0.26585500259E+02  0.15287004482E+02  0.57169429421E+02  0.00000000000E+00 0.  1.
         11    1    4    4    0    0  0.18221987512E+02  0.80150197668E+02 -0.57389839029E+02  0.10024813534E+03  0.00000000000E+00 0. -1.
</event>
<event>
 8    1  0.7232317E-009  0.1211171E+03  0.7561462E-02  0.1241265E+00
          1   -1    0    0  501    0  0.00000000000E+00  0.00000000000E+00  0.34470561001E+03  0.34470561001E+03  0.00000000000E+00 0. -1.
         -1   -1    0    0    0  501 -0.00000000000E+00 -0.00000000000E+00 -0.10288241205E+03  0.10288241205E+03  0.00000000000E+00 0.  1.
         25    2    1    2    0    0  0.10383234624E+03 -0.47560258006E+02  0.73370713046E+01  0.16954423263E+03  0.12509308508E+03 0.  0.
         23    2    1    2    0    0 -0.10383234624E+03  0.47560258006E+02  0.23448612666E+03  0.27804378943E+03  0.96340391213E+02 0.  0.
          5    1    3    3  502    0  0.57882737303E+01 -0.16266653976E+02  0.53719657988E+02  0.56580758201E+02  0.41800000000E+01 0.  1.
         -5    1    3    3    0  502  0.98044072507E+02 -0.31293604030E+02 -0.46382586683E+02  0.11296347443E+03  0.41800000000E+01 0.  1.
        -11    1    4    4    0    0 -0.89014331855E+01 -0.75739501039E+01 -0.63975010958E+01  0.13323972876E+02  0.00000000000E+00 0.  1.
         11    1    4    4    0    0 -0.94930913052E+02  0.55134208109E+02  0.24088362775E+03  0.26471981655E+03  0.00000000000E+00 0. -1.
</event>
<event>
 8    1  0.7232317E-009  0.3769337E+03  0.7561462E-02  0.1052073E+00
         -1   -1    0    0    0  501 -0.00000000000E+00  0.00000000000E+00  0.20391896288E+03  0.20391896288E+03  0.00000000000E+00 0.  1.
          1   -1    0    0  501    0  0.00000000000E+00 -0.00000000000E+00 -0.81455520364E+03  0.81455520364E+03  0.00000000000E+00 0. -1.
         25    2    1    2    0    0  0.29470125633E+03  0.22368949372E+03 -0.47423120962E+03  0.61435272546E+03  0.12509280964E+03 0.  0.
         23    2    1    2    0    0 -0.29470125633E+03 -0.22368949372E+03 -0.13640503114E+03  0.40412144106E+03  0.88441995226E+02 0.  0.
          5    1    3    3  502    0  0.57054037498E+02  0.87782037870E+00 -0.33563096694E+02  0.66331648729E+02  0.41800000000E+01 0.  1.
         -5    1    3    3    0  502  0.23764721883E+03  0.22281167334E+03 -0.44066811293E+03  0.54802107674E+03  0.41800000000E+01 0.  1.
        -11    1    4    4    0    0 -0.18603012793E+03 -0.15646335690E+03 -0.13120984172E+03  0.27623181047E+03  0.00000000000E+00 0. -1.
         11    1    4    4    0    0 -0.10867112840E+03 -0.67226136816E+02 -0.51951894215E+01  0.12788963059E+03  0.00000000000E+00 0.  1.
</event>
<event>
 8    1  0.7232317E-009  0.1727944E+03  0.7561462E-02  0.1174965E+00
         -2   -1    0    0    0  501 -0.00000000000E+00  0.00000000000E+00  0.66213461163E+02  0.66213461163E+02  0.00000000000E+00 0.  1.
          2   -1    0    0  501    0  0.00000000000E+00 -0.00000000000E+00 -0.84118392322E+03  0.84118392322E+03  0.00000000000E+00 0. -1.
         25    2    1    2    0    0 -0.11893414720E+03 -0.10574524903E+03 -0.14262045993E+03  0.24762010782E+03  0.12509089953E+03 0.  0.
         23    2    1    2    0    0  0.11893414720E+03  0.10574524903E+03 -0.63235000213E+03  0.65977727656E+03  0.10055913889E+03 0.  0.
          5    1    3    3  502    0  0.13455168430E+02  0.24366119165E+01  0.10760638093E+02  0.17895316909E+02  0.41800000000E+01 0. -1.
         -5    1    3    3    0  502 -0.13238931563E+03 -0.10818186095E+03 -0.15338109803E+03  0.22972479092E+03  0.41800000000E+01 0. -1.
        -11    1    4    4    0    0  0.67120864606E+02  0.46999283556E+02 -0.49436083322E+03  0.50110555429E+03  0.00000000000E+00 0. -1.
         11    1    4    4    0    0  0.51813282590E+02  0.58745965474E+02 -0.13798916891E+03  0.15867172227E+03  0.00000000000E+00 0.  1.
</event>
<event>
 8    1  0.7232317E-009  0.8593246E+02  0.7561462E-02  0.1313012E+00
          2   -1    0    0  501    0  0.00000000000E+00  0.00000000000E+00  0.60704549618E+03  0.60704549618E+03  0.00000000000E+00 0.  1.
         -2   -1    0    0    0  501 -0.00000000000E+00 -0.00000000000E+00 -0.22051843138E+02  0.22051843138E+02  0.00000000000E+00 0. -1.
         25    2    1    2    0    0 -0.27034860641E+02  0.90263276104E+01  0.30426024420E+03  0.33020327671E+03  0.12509016536E+03 0.  0.
         23    2    1    2    0    0  0.27034860641E+02 -0.90263276104E+01  0.28073340884E+03  0.29889406261E+03  0.98559908392E+02 0.  0.
          5    1    3    3  502    0  0.22464298375E+02  0.16982391459E+02  0.78194818379E+01  0.29523939733E+02  0.41800000000E+01 0.  1.
         -5    1    3    3    0  502 -0.49499159017E+02 -0.79560638485E+01  0.29644076236E+03  0.30067933698E+03  0.41800000000E+01 0.  1.
        -11    1    4    4    0    0 -0.11573707929E+02  0.33622212024E+02  0.51711501104E+02  0.62757335850E+02  0.00000000000E+00 0. -1.
         11    1    4    4    0    0  0.38608568570E+02 -0.42648539634E+02  0.22902190774E+03  0.23613672676E+03  0.00000000000E+00 0.  1.
</event>
<event>
 8    1  0.7232317E-009  0.9175077E+02  0.7561462E-02  0.1298666E+00
          1   -1    0    0  501    0  0.00000000000E+00  0.00000000000E+00  0.11404756011E+03  0.11404756011E+03  0.00000000000E+00 0. -1.
         -1   -1    0    0    0  501 -0.00000000000E+00 -0.00000000000E+00 -0.27704401178E+03  0.27704401178E+03  0.00000000000E+00 0.  1.
         25    2    1    2    0    0  0.86573896417E+02 -0.68467112582E+01 -0.20944386379E+03  0.25895219051E+03  0.12509031894E+03 0.  0.
         23    2    1    2    0    0 -0.86573896417E+02  0.68467112582E+01  0.46447412123E+02  0.13213938139E+03  0.88099585837E+02 0.  0.
          5    1    3    3  502    0  0.38245086300E+02 -0.17172314295E+02 -0.20485698354E+03  0.20914452206E+03  0.41800000000E+01 0.  1.
         -5    1    3    3    0  502  0.48328810117E+02  0.10325603037E+02 -0.45868802537E+01  0.49807668444E+02  0.41800000000E+01 0.  1.
        -11    1    4    4    0    0 -0.18710161094E+02 -0.10866623822E+02  0.57224927488E+02  0.61178803253E+02  0.00000000000E+00 0. -1.
         11    1    4    4    0    0 -0.67863735323E+02  0.17713335081E+02 -0.10777515365E+02  0.70960578134E+02  0.00000000000E+00 0.  1.
</event>
<event>
 8    1  0.7232317E-009  0.8704185E+02  0.7561462E-02  0.1310178E+00
         -1   -1    0    0    0  501 -0.00000000000E+00  0.00000000000E+00  0.56171293472E+02  0.56171293472E+02  0.00000000000E+00 0.  1.
          1   -1    0    0  501    0  0.00000000000E+00 -0.00000000000E+00 -0.28087276239E+03  0.28087276239E+03  0.00000000000E+00 0. -1.
         25    2    1    2    0    0 -0.40943824829E+01 -0.62686213016E+02 -0.12198298154E+03  0.18567052680E+03  0.12508945386E+03 0.  0.
         23    2    1    2    0    0  0.40943824829E+01  0.62686213016E+02 -0.10271848738E+03  0.15137352906E+03  0.91741661095E+02 0.  0.
          5    1    3    3  502    0 -0.24269689651E+02 -0.65814811670E+02 -0.90745803091E+01  0.70854976386E+02  0.41800000000E+01 0.  1.
         -5    1    3    3    0  502  0.20175307168E+02  0.31285986545E+01 -0.11290840123E+03  0.11481555041E+03  0.41800000000E+01 0.  1.
        -11    1    4    4    0    0  0.29213717105E+02  0.32439268859E+02 -0.25090266353E+01  0.43726909860E+02  0.00000000000E+00 0.  1.
         11    1    4    4    0    0 -0.25119334622E+02  0.30246944156E+02 -0.10020946075E+03  0.10764661920E+03  0.00000000000E+00 0. -1.
</event>
<event>
 8    1  0.7232317E-009  0.1138558E+03  0.7561462E-02  0.1253592E+00
          2   -1    0    0  501    0  0.00000000000E+00  0.00000000000E+00  0.57092851038E+03  0.57092851038E+03  0.00000000000E+00 0. -1.
         -2   -1    0    0    0  501 -0.00000000000E+00 -0.00000000000E+00 -0.31123316843E+02  0.31123316843E+02  0.00000000000E+00 0.  1.
         25    2    1    2    0    0  0.22290657338E+01  0.74389186145E+02  0.25691030342E+03  0.29527964404E+03  0.12509374257E+03 0.  0.
         23    2    1    2    0    0 -0.22290657338E+01 -0.74389186145E+02  0.28289489011E+03  0.30677218318E+03  0.92417172493E+02 0.  0.
          5    1    3    3  502    0 -0.41948745638E+02  0.66163649977E+02  0.77489296039E+02  0.11026962066E+03  0.41800000000E+01 0. -1.
         -5    1    3    3    0  502  0.44177811371E+02  0.82255361681E+01  0.17942100739E+03  0.18501002339E+03  0.41800000000E+01 0. -1.
        -11    1    4    4    0    0 -0.26146189517E+02 -0.75786786127E+02  0.26502063378E+03  0.27688119565E+03  0.00000000000E+00 0. -1.
         11    1    4    4    0    0  0.23917123784E+02  0.13975999824E+01  0.17874256332E+02  0.29890987525E+02  0.00000000000E+00 0.  1.
</event>
<event>
 8    1  0.7232317E-009  0.1732212E+03  0.7561462E-02  0.1174530E+00
         -2   -1    0    0    0  501 -0.00000000000E+00  0.00000000000E+00  0.57852059430E+02  0.57852059430E+02  0.00000000000E+00 0.  1.
          2   -1    0    0  501    0  0.00000000000E+00 -0.00000000000E+00 -0.87011181396E+03  0.87011181396E+03  0.00000000000E+00 0. -1.
         25    2    1    2    0    0  0.16552853924E+03  0.17383686800E+02 -0.61858900340E+03  0.65268813102E+03  0.12509017299E+03 0.  0.
         23    2    1    2    0    0 -0.16552853924E+03 -0.17383686800E+02 -0.19367075113E+03  0.27527574237E+03  0.10279340749E+03 0.  0.
          5    1    3    3  502    0  0.41096627561E+02  0.34984471249E+02 -0.37172566770E+03  0.37564649665E+03  0.41800000000E+01 0.  1.
         -5    1    3    3    0  502  0.12443191168E+03 -0.17600784448E+02 -0.24686333570E+03  0.27704163436E+03  0.41800000000E+01 0.  1.
        -11    1    4    4    0    0 -0.41053991247E+02 -0.71889268702E+01 -0.12708102687E+03  0.13374116142E+03  0.00000000000E+00 0. -1.
         11    1    4    4    0    0 -0.12447454799E+03 -0.10194759930E+02 -0.66589724259E+02  0.14153458095E+03  0.00000000000E+00 0.  1.
</event>
<event>
 8    1  0.7232317E-009  0.9422046E+02  0.7561462E-02  0.1292942E+00
         -1   -1    0    0    0  501 -0.00000000000E+00  0.00000000000E+00  0.55750346571E+02  0.55750346571E+02  0.00000000000E+00 0.  1.
          1   -1    0    0  501    0  0.00000000000E+00 -0.00000000000E+00 -0.41705954166E+03  0.41705954166E+03  0.00000000000E+00 0. -1.
         25    2    1    2    0    0  0.21763327363E+02  0.66886965218E+02 -0.31795126630E+03  0.34884135714E+03  0.12509906545E+03 0.  0.
         23    2    1    2    0    0 -0.21763327363E+02 -0.66886965218E+02 -0.43357928793E+02  0.12396853109E+03  0.92416330692E+02 0.  0.
          5    1    3    3  502    0  0.69776092207E+01 -0.91629948254E+01  0.74357686647E+01  0.14332151278E+02  0.41800000000E+01 0. -1.
         -5    1    3    3    0  502  0.14785718142E+02  0.76049960044E+02 -0.32538703496E+03  0.33450920586E+03  0.41800000000E+01 0. -1.
        -11    1    4    4    0    0  0.21641571132E+02 -0.37190557321E+01  0.15881623908E+02  0.27100091413E+02  0.00000000000E+00 0.  1.
         11    1    4    4    0    0 -0.43404898495E+02 -0.63167909486E+02 -0.59239552701E+02  0.96868439682E+02  0.00000000000E+00 0. -1.
</event>
<event>
 8    1  0.7232317E-009  0.1288170E+03  0.7561462E-02  0.1229222E+00
          2   -1    0    0  501    0  0.00000000000E+00  0.00000000000E+00  0.86012099187E+03  0.86012099187E+03  0.00000000000E+00 0. -1.
         -2   -1    0    0    0  501 -0.00000000000E+00 -0.00000000000E+00 -0.22100170983E+02  0.22100170983E+02  0.00000000000E+00 0.  1.
         25    2    1    2    0    0 -0.67535360133E+02 -0.34197683723E+02  0.57705109402E+03  0.59528641816E+03  0.12508976016E+03 0.  0.
         23    2    1    2    0    0  0.67535360133E+02  0.34197683723E+02  0.26096972687E+03  0.28693474470E+03  0.92172896945E+02 0.  0.
          5    1    3    3  502    0  0.32727517509E+02 -0.19590618182E+02  0.90820866370E+02  0.98594040851E+02  0.41800000000E+01 0. -1.
         -5    1    3    3    0  502 -0.10026287764E+03 -0.14607065541E+02  0.48623022765E+03  0.49669237731E+03  0.41800000000E+01 0. -1.
        -11    1    4    4    0    0  0.69135603998E+02  0.60279496782E+02  0.21981851081E+03  0.23818800803E+03  0.00000000000E+00 0. -1.
         11    1    4    4    0    0 -0.16002438648E+01 -0.26081813059E+02  0.41151216061E+02  0.48746736672E+02  0.00000000000E+00 0.  1.
</event>
<event>
 7    1  0.7232317E-009  0.1316613E+03  0.7561462E-02  0.1225011E+00
          1   -1    0    0  501    0  0.00000000000E+00  0.00000000000E+00  0.66462619493E+03  0.66462619493E+03  0.00000000000E+00 0. -1.
         -1   -1    0    0    0  501 -0.00000000000E+00 -0.00000000000E+00 -0.36848983794E+02  0.36848983794E+02  0.00000000000E+00 0.  1.
         23    2    1    2    0    0 -0.45027683922E+02 -0.66857418110E+02  0.12486045047E+03  0.17702971213E+03  0.96187214385E+02 0.  0.
          5    1    1    2  502    0  0.14088979987E+02 -0.37046360524E+02  0.15215986237E+03  0.15729281071E+03  0.41800000000E+01 0. -1.
         -5    1    1    2    0  502  0.30938703935E+02  0.10390377863E+03  0.35075689830E+03  0.36715265588E+03  0.41800000000E+01 0. -1.
        -11    1    3    3    0    0 -0.57750576384E+02 -0.12420466930E+02  0.28407352884E+02  0.65546737290E+02  0.00000000000E+00 0.  1.
         11    1    3    3    0    0  0.12722892462E+02 -0.54436951180E+02  0.96453097585E+02  0.11148297484E+03  0.00000000000E+00 0. -1.
</event>
<event>
 8    1  0.7232317E-009  0.2382090E+03  0.7561462E-02  0.1120992E+00
         -1   -1    0    0    0  501 -0.00000000000E+00  0.00000000000E+00  0.93677109196E+02  0.93677109196E+02  0.00000000000E+00 0.  1.
          1   -1    0    0  501    0  0.00000000000E+00 -0.00000000000E+00 -0.73773058477E+03  0.73773058477E+03  0.00000000000E+00 0. -1.
         25    2    1    2    0    0 -0.60507839353E+02  0.22135157303E+03 -0.43675738834E+03  0.50898229821E+03  0.12509294989E+03 0.  0.
         23    2    1    2    0    0  0.60507839353E+02 -0.22135157303E+03 -0.20729608724E+03  0.32242539576E+03  0.91261988475E+02 0.  0.
          5    1    3    3  502    0  0.20880284995E+02  0.18349083602E+02 -0.12508927351E+03  0.12820871233E+03  0.41800000000E+01 0.  1.
         -5    1    3    3    0  502 -0.81388124348E+02  0.20300248943E+03 -0.31166811483E+03  0.38077358588E+03  0.41800000000E+01 0.  1.
        -11    1    4    4    0    0  0.27896347457E+02 -0.90330161156E+02 -0.29224357022E+02  0.98953561124E+02  0.00000000000E+00 0.  1.
         11    1    4    4    0    0  0.32611491896E+02 -0.13102141188E+03 -0.17807173021E+03  0.22347183464E+03  0.00000000000E+00 0. -1.
</event>
<event>
 8    1  0.7232317E-009  0.1012795E+03  0.7561462E-02  0.1277628E+00
         -1   -1    0    0    0  501 -0.00000000000E+00  0.00000000000E+00  0.10308216571E+03  0.10308216571E+03  0.00000000000E+00 0.  1.
          1   -1    0    0  501    0  0.00000000000E+00 -0.00000000000E+00 -0.14906187090E+03  0.14906187090E+03  0.00000000000E+00 0. -1.
         25    2    1    2    0    0 -0.40080752842E+02  0.49441523268E+02 -0.16271159598E+02  0.14128734932E+03  0.12508570450E+03 0.  0.
         23    2    1    2    0    0  0.40080752842E+02 -0.49441523268E+02 -0.29708545592E+02  0.11085668729E+03  0.85765240423E+02 0.  0.
          5    1    3    3  502    0 -0.56552655755E+02  0.16848048154E+02 -0.59934305409E+02  0.84211952622E+02  0.41800000000E+01 0.  1.
         -5    1    3    3    0  502  0.16471902913E+02  0.32593475115E+02  0.43663145811E+02  0.57075396694E+02  0.41800000000E+01 0.  1.
        -11    1    4    4    0    0  0.50019965584E+02  0.59460713211E+01 -0.11032628945E+02  0.51566186815E+02  0.00000000000E+00 0.  1.
         11    1    4    4    0    0 -0.99392127419E+01 -0.55387594589E+02 -0.18675916647E+02  0.59290500478E+02  0.00000000000E+00 0. -1.
</event>
<event>
 7    1  0.7232317E-009  0.8500366E+02  0.7561462E-02  0.1315423E+00
         -2   -1    0    0    0  501 -0.00000000000E+00  0.00000000000E+00  0.34103450274E+02  0.34103450274E+02  0.00000000000E+00 0.  1.
          2   -1    0    0  501    0  0.00000000000E+00 -0.00000000000E+00 -0.54993498645E+03  0.54993498645E+03  0.00000000000E+00 0. -1.
         25    2    1    2    0    0 -0.23716972546E+01  0.33299495557E+02 -0.28461198375E+03  0.31267725583E+03  0.12509437903E+03 0.  0.
          5    1    3    3  502    0 -0.15487468202E+02 -0.57950263629E+01  0.67784565272E+01  0.18353851768E+02  0.41800000000E+01 0.  1.
         -5    1    3    3    0  502  0.13115770947E+02  0.39094521920E+02 -0.29139044028E+03  0.29432340406E+03  0.41800000000E+01 0.  1.
        -11    1    1    2    0    0 -0.49776437831E+02 -0.27311156642E+00 -0.19172397390E+03  0.19808041428E+03  0.00000000000E+00 0. -1.
         11    1    1    2    0    0  0.52148135086E+02 -0.33026383991E+02 -0.39495578517E+02  0.73280766610E+02  0.00000000000E+00 0.  1.
</event>
<event>
 8    1  0.7232317E-009  0.1091083E+03  0.7561462E-02  0.1262230E+00
         -1   -1    0    0    0  501 -0.00000000000E+00  0.00000000000E+00  0.40566802788E+02  0.40566802788E+02  0.00000000000E+00 0.  1.
          1   -1    0    0  501    0  0.00000000000E+00 -0.00000000000E+00 -0.80575001781E+03  0.80575001781E+03  0.00000000000E+00 0. -1.
         25    2    1    2    0    0  0.64849945120E+02 -0.73706504781E+02 -0.65564916300E+03  0.67465780147E+03  0.12509660231E+03 0.  0.
         23    2    1    2    0    0 -0.64849945120E+02  0.73706504781E+02 -0.10953405202E+03  0.17165901913E+03  0.88492632840E+02 0.  0.
          5    1    3    3  502    0  0.41326355926E+02 -0.84243505461E+02 -0.63347520059E+03  0.64040076364E+03  0.41800000000E+01 0.  1.
         -5    1    3    3    0  502  0.23523589194E+02  0.10537000680E+02 -0.22173962411E+02  0.34257037831E+02  0.41800000000E+01 0.  1.
        -11    1    4    4    0    0 -0.26265603274E+02  0.29298467142E+02 -0.10560707413E+03  0.11269931765E+03  0.00000000000E+00 0. -1.
         11    1    4    4    0    0 -0.38584341846E+02  0.44408037639E+02 -0.39269778852E+01  0.58959701475E+02  0.00000000000E+00 0.  1.
</event>
<event>
 8    1  0.7232317E-009  0.9715605E+02  0.7561462E-02  0.1286393E+00
          1   -1    0    0  501    0  0.00000000000E+00  0.00000000000E+00  0.60561920103E+03  0.60561920103E+03  0.00000000000E+00 0. -1.
         -1   -1    0    0    0  501 -0.00000000000E+00 -0.00000000000E+00 -0.36250090574E+02  0.36250090574E+02  0.00000000000E+00 0.  1.
         25    2    1    2    0    0 -0.13454200763E+02  0.80897905922E+02  0.18153399469E+03  0.23522756326E+03  0.12510766798E+03 0.  0.
         23    2    1    2    0    0  0.13454200763E+02 -0.80897905922E+02  0.38783511577E+03  0.40664172835E+03  0.90641775734E+02 0.  0.
          5    1    3    3  502    0 -0.50473334220E+01  0.83222594736E+01  0.15800204448E+03  0.15835673032E+03  0.41800000000E+01 0.  1.
         -5    1    3    3    0  502 -0.84068673413E+01  0.72575646448E+02  0.23531950204E+02  0.76870832936E+02  0.41800000000E+01 0.  1.
        -11    1    4    4    0    0  0.38101434623E+02 -0.76554219592E+02  0.35611196571E+03  0.36623489727E+03  0.00000000000E+00 0. -1.
         11    1    4    4    0    0 -0.24647233860E+02 -0.43436863300E+01  0.31723150061E+02  0.40406831077E+02  0.00000000000E+00 0.  1.
</event>
<event>
 8    1  0.7232317E-009  0.2586505E+03  0.7561462E-02  0.1107957E+00
         -2   -1    0    0    0  501 -0.00000000000E+00  0.00000000000E+00  0.54988229766E+02  0.54988229766E+02  0.00000000000E+00 0. -1.
          2   -1    0    0  501    0  0.00000000000E+00 -0.00000000000E+00 -0.13926300482E+04  0.13926300482E+04  0.00000000000E+00 0.  1.
         25    2    1    2    0    0 -0.22967369191E+03  0.80083226475E+02 -0.49272685149E+03  0.56355258666E+03  0.12509372419E+03 0.  0.
         23    2    1    2    0    0  0.22967369191E+03 -0.80083226475E+02 -0.84491496694E+03  0.88406569130E+03  0.92344557317E+02 0.  0.
          5    1    3    3  502    0 -0.44400116282E+02 -0.30767062412E+02 -0.13815120901E+03  0.14839545615E+03  0.41800000000E+01 0.  1.
         -5    1    3    3    0  502 -0.18527357562E+03  0.11085028889E+03 -0.35457564249E+03  0.41515713051E+03  0.41800000000E+01 0.  1.
        -11    1    4    4    0    0  0.15986735837E+03 -0.76634555628E+02 -0.71378960064E+03  0.73547673067E+03  0.00000000000E+00 0.  1.
         11    1    4    4    0    0  0.69806333537E+02 -0.34486708469E+01 -0.13112536630E+03  0.14858896063E+03  0.00000000000E+00 0. -1.
</event>
<event>
 8    1  0.7232317E-009  0.9639031E+02  0.7561462E-02  0.1288075E+00
          2   -1    0    0  501    0  0.00000000000E+00  0.00000000000E+00  0.86672237510E+02  0.86672237510E+02  0.00000000000E+00 0. -1.
         -2   -1    0    0    0  501 -0.00000000000E+00 -0.00000000000E+00 -0.30026411466E+03  0.30026411466E+03  0.00000000000E+00 0.  1.
         25    2    1    2    0    0  0.68741244197E+02  0.18901572816E+02 -0.23091761940E+03  0.27212848400E+03  0.12509331216E+03 0.  0.
         23    2    1    2    0    0 -0.68741244197E+02 -0.18901572816E+02  0.17325742247E+02  0.11480786817E+03  0.88306495460E+02 0.  0.
          5    1    3    3  502    0  0.43434865211E+02  0.58912811624E+02 -0.60028009481E+02  0.94753053837E+02  0.41800000000E+01 0. -1.
         -5    1    3    3    0  502  0.25306378986E+02 -0.40011238807E+02 -0.17088960992E+03  0.17737543017E+03  0.41800000000E+01 0. -1.
        -11    1    4    4    0    0 -0.41409277513E+02 -0.16239467371E+02  0.53382259645E+02  0.69484632901E+02  0.00000000000E+00 0. -1.
         11    1    4    4    0    0 -0.27331966685E+02 -0.26621054455E+01 -0.36056517398E+02  0.45323235268E+02  0.00000000000E+00 0.  1.
</event>
<event>
 8    1  0.7232317E-009  0.8613719E+02  0.7561462E-02  0.1312485E+00
          3   -1    0    0  501    0  0.00000000000E+00  0.00000000000E+00  0.17047511174E+03  0.17047511174E+03  0.00000000000E+00 0. -1.
         -3   -1    0    0    0  501 -0.00000000000E+00 -0.00000000000E+00 -0.93230793582E+02  0.93230793582E+02  0.00000000000E+00 0.  1.
         25    2    1    2    0    0  0.20755489121E+01  0.33147284467E+02  0.10331083947E+03  0.16560029904E+03  0.12508908473E+03 0.  0.
         23    2    1    2    0    0 -0.20755489121E+01 -0.33147284467E+02 -0.26066521317E+02  0.98105606282E+02  0.88556174711E+02 0.  0.
          5    1    3    3  502    0  0.14880502282E+02  0.53260141956E+02 -0.39918337670E+01  0.55601071987E+02  0.41800000000E+01 0.  1.
         -5    1    3    3    0  502 -0.12804953370E+02 -0.20112857489E+02  0.10730267324E+03  0.10999922705E+03  0.41800000000E+01 0.  1.
        -11    1    4    4    0    0  0.18221191753E+02  0.25049407254E+02  0.52366036685E+00  0.30979975030E+02  0.00000000000E+00 0.  1.
         11    1    4    4    0    0 -0.20296740665E+02 -0.58196691721E+02 -0.26590181684E+02  0.67125631252E+02  0.00000000000E+00 0. -1.
</event>
<event>
 8    1  0.7232317E-009  0.1331077E+03  0.7561462E-02  0.1222916E+00
         -4   -1    0    0    0  501 -0.00000000000E+00  0.00000000000E+00  0.28865103731E+03  0.28865103731E+03  0.00000000000E+00 0.  1.
          4   -1    0    0  501    0  0.00000000000E+00 -0.00000000000E+00 -0.97861130190E+02  0.97861130190E+02  0.00000000000E+00 0. -1.
         25    2    1    2    0    0 -0.62268064925E+02 -0.72629597265E+02  0.66794881789E+01  0.15762919390E+03  0.12509986770E+03 0.  0.
         23    2    1    2    0    0  0.62268064925E+02  0.72629597265E+02  0.18411041894E+03  0.22888297360E+03  0.96635391724E+02 0.  0.
          5    1    3    3  502    0 -0.13455372419E+02 -0.79582455944E+02 -0.39490652174E+02  0.89952200363E+02  0.41800000000E+01 0.  1.
         -5    1    3    3    0  502 -0.48812692506E+02  0.69528586791E+01  0.46170140353E+02  0.67676993534E+02  0.41800000000E+01 0.  1.
        -11    1    4    4    0    0  0.33766604440E+02  0.94264795990E+02  0.13241179266E+03  0.16600878945E+03  0.00000000000E+00 0.  1.
         11    1    4    4    0    0  0.28501460486E+02 -0.21635198725E+02  0.51698626277E+02  0.62874184150E+02  0.00000000000E+00 0. -1.
</event>
<event>
 8    1  0.7232317E-009  0.1134985E+03  0.7561462E-02  0.1254225E+00
          1   -1    0    0  501    0  0.00000000000E+00  0.00000000000E+00  0.32139501002E+03  0.32139501002E+03  0.00000000000E+00 0. -1.
         -1   -1    0    0    0  501 -0.00000000000E+00 -0.00000000000E+00 -0.56593799735E+02  0.56593799735E+02  0.00000000000E+00 0.  1.
         25    2    1    2    0    0  0.47472858992E+02  0.50774202038E+02  0.20306792624E+03  0.24842577780E+03  0.12508833869E+03 0.  0.
         23    2    1    2    0    0 -0.47472858992E+02 -0.50774202038E+02  0.61733284036E+02  0.12956303195E+03  0.90243498136E+02 0.  0.
          5    1    3    3  502    0 -0.19620893252E+02 -0.27851452203E+02  0.24901707424E+02  0.42405781145E+02  0.41800000000E+01 0. -1.
         -5    1    3    3    0  502  0.67093752244E+02  0.78625654241E+02  0.17816621882E+03  0.20601999666E+03  0.41800000000E+01 0. -1.
        -11    1    4    4    0    0 -0.56088040754E+02 -0.55911958418E+02  0.13550190251E+02  0.80346892072E+02  0.00000000000E+00 0.  1.
         11    1    4    4    0    0  0.86151817627E+01  0.51377563797E+01  0.48183093786E+02  0.49216139875E+02  0.00000000000E+00 0. -1.
</event>
<event>
 8    1  0.7232317E-009  0.6640683E+02  0.7561462E-02  0.1372756E+00
         -2   -1    0    0    0  501 -0.00000000000E+00  0.00000000000E+00  0.16251226767E+03  0.16251226767E+03  0.00000000000E+00 0.  1.
          2   -1    0    0  501    0  0.00000000000E+00 -0.00000000000E+00 -0.90233678044E+02  0.90233678044E+02  0.00000000000E+00 0. -1.
         25    2    1    2    0    0  0.27731984801E+02  0.18786882474E+02 -0.44694104988E+01  0.12957414502E+03  0.12508986168E+03 0.  0.
         23    2    1    2    0    0 -0.27731984801E+02 -0.18786882474E+02  0.76748000124E+02  0.12317180069E+03  0.90327332674E+02 0.  0.
          5    1    3    3  502    0  0.16980591755E+02  0.62142228495E+00  0.59532855419E+02  0.62051268612E+02  0.41800000000E+01 0. -1.
         -5    1    3    3    0  502  0.10751393046E+02  0.18165460189E+02 -0.64002265918E+02  0.67522876411E+02  0.41800000000E+01 0. -1.
        -11    1    4    4    0    0  0.31949924894E+02 -0.31801269281E+01  0.40276053265E+02  0.51507973893E+02  0.00000000000E+00 0.  1.
         11    1    4    4    0    0 -0.59681909694E+02 -0.15606755546E+02  0.36471946859E+02  0.71663826796E+02  0.00000000000E+00 0. -1.
</event>
<event>
 8    1  0.7232317E-009  0.7550667E+02  0.7561462E-02  0.1342309E+00
         -3   -1    0    0    0  501 -0.00000000000E+00  0.00000000000E+00  0.16934274568E+03  0.16934274568E+03  0.00000000000E+00 0.  1.
          3   -1    0    0  501    0  0.00000000000E+00 -0.00000000000E+00 -0.12894219266E+03  0.12894219266E+03  0.00000000000E+00 0. -1.
         25    2    1    2    0    0 -0.27890069600E+02  0.62532856971E+01  0.12272376029E+03  0.17755435618E+03  0.12508984169E+03 0.  0.
         23    2    1    2    0    0  0.27890069600E+02 -0.62532856971E+01 -0.82323207261E+02  0.12073058216E+03  0.83557186713E+02 0.  0.
          5    1    3    3  502    0 -0.11074762089E+02 -0.24687837557E+02  0.13671660508E+03  0.13943113779E+03  0.41800000000E+01 0. -1.
         -5    1    3    3    0  502 -0.16815307511E+02  0.30941123254E+02 -0.13992844797E+02  0.38123218390E+02  0.41800000000E+01 0. -1.
        -11    1    4    4    0    0  0.15684951061E+02 -0.44943716869E+02 -0.47805131076E+02  0.67463219113E+02  0.00000000000E+00 0. -1.
         11    1    4    4    0    0  0.12205118539E+02  0.38690431172E+02 -0.34518076185E+02  0.53267363051E+02  0.00000000000E+00 0.  1.
</event>
<event>
 8    1  0.7232317E-009  0.9441554E+02  0.7561462E-02  0.1292498E+00
          4   -1    0    0  501    0  0.00000000000E+00  0.00000000000E+00  0.18286329335E+03  0.18286329335E+03  0.00000000000E+00 0. -1.
         -4   -1    0    0    0  501 -0.00000000000E+00 -0.00000000000E+00 -0.79985584281E+02  0.79985584281E+02  0.00000000000E+00 0.  1.
         25    2    1    2    0    0 -0.30227039816E+02 -0.44300240304E+02  0.36440903700E+02  0.14089860078E+03  0.12509312936E+03 0.  0.
         23    2    1    2    0    0  0.30227039816E+02  0.44300240304E+02  0.66436805368E+02  0.12195027685E+03  0.87073737076E+02 0.  0.
          5    1    3    3  502    0 -0.37771479790E+01 -0.71127705292E+02  0.62538247321E+02  0.94878459542E+02  0.41800000000E+01 0.  1.
         -5    1    3    3    0  502 -0.26449891837E+02  0.26827464988E+02 -0.26097343621E+02  0.46020141242E+02  0.41800000000E+01 0.  1.
        -11    1    4    4    0    0  0.72037615045E+01  0.54082691711E+02  0.40211701583E+01  0.54708331468E+02  0.00000000000E+00 0.  1.
         11    1    4    4    0    0  0.23023278311E+02 -0.97824514067E+01  0.62415635210E+02  0.67241945379E+02  0.00000000000E+00 0. -1.
</event>
<event>
 8    1  0.7232317E-009  0.1368971E+03  0.7561462E-02  0.1217566E+00
          1   -1    0    0  501    0  0.00000000000E+00  0.00000000000E+00  0.96191591311E+02  0.96191591311E+02  0.00000000000E+00 0. -1.
         -1   -1    0    0    0  501 -0.00000000000E+00 -0.00000000000E+00 -0.20554713510E+03  0.20554713510E+03  0.00000000000E+00 0.  1.
         25    2    1    2    0    0 -0.61153642983E+02  0.57909553527E+02 -0.91599770585E+02  0.17643967402E+03  0.12508859324E+03 0.  0.
         23    2    1    2    0    0  0.61153642983E+02 -0.57909553527E+02 -0.17755773201E+02  0.12529905238E+03  0.91056579148E+02 0.  0.
          5    1    3    3  502    0  0.12885581271E+02 -0.31396098193E+02 -0.14843041555E+02  0.37276553878E+02  0.41800000000E+01 0.  1.
         -5    1    3    3    0  502 -0.74039224254E+02  0.89305651720E+02 -0.76756729030E+02  0.13916312015E+03  0.41800000000E+01 0.  1.
        -11    1    4    4    0    0  0.74638408595E+02 -0.11908298887E+02 -0.52875204289E+01  0.75767126726E+02  0.00000000000E+00 0.  1.
         11    1    4    4    0    0 -0.13484765612E+02 -0.46001254640E+02 -0.12468252772E+02  0.49531925657E+02  0.00000000000E+00 0. -1.
</event>
<event>
 8    1  0.7232317E-009  0.9921298E+02  0.7561462E-02  0.1281960E+00
          2   -1    0    0  501    0  0.00000000000E+00  0.00000000000E+00  0.60569908398E+03  0.60569908398E+03  0.00000000000E+00 0. -1.
         -2   -1    0    0    0  501 -0.00000000000E+00 -0.00000000000E+00 -0.34551369007E+02  0.34551369007E+02  0.00000000000E+00 0.  1.
         25    2    1    2    0    0 -0.94936578134E+01 -0.32173955460E+01  0.52041719622E+03  0.53533310762E+03  0.12508795634E+03 0.  0.
         23    2    1    2    0    0  0.94936578134E+01  0.32173955460E+01  0.50730518752E+02  0.10491734536E+03  0.91288458485E+02 0.  0.
          5    1    3    3  502    0  0.53520823748E+02 -0.16406479037E+02  0.17005497714E+03  0.17908048129E+03  0.41800000000E+01 0.  1.
         -5    1    3    3    0  502 -0.63014481561E+02  0.13189083491E+02  0.35036221908E+03  0.35625262633E+03  0.41800000000E+01 0.  1.
        -11    1    4    4    0    0  0.38897934905E+02  0.20188775231E+02 -0.59470614886E-01  0.43825101506E+02  0.00000000000E+00 0.  1.
         11    1    4    4    0    0 -0.29404277092E+02 -0.16971379685E+02  0.50789989366E+02  0.61092243858E+02  0.00000000000E+00 0. -1.
</event>
<event>
 8    1  0.7232317E-009  0.1554216E+03  0.7561462E-02  0.1193965E+00
          1   -1    0    0  501    0  0.00000000000E+00  0.00000000000E+00  0.13789021282E+04  0.13789021282E+04  0.00000000000E+00 0. -1.
         -1   -1    0    0    0  501 -0.00000000000E+00 -0.00000000000E+00 -0.18619836214E+02  0.18619836214E+02  0.00000000000E+00 0.  1.
         25    2    1    2    0    0  0.21396546716E+02 -0.98321038998E+02  0.75557976208E+03  0.77244570123E+03  0.12508695199E+03 0.  0.
         23    2    1    2    0    0 -0.21396546716E+02  0.98321038998E+02  0.60470252991E+03  0.62507626319E+03  0.12218979583E+03 0.  0.
          5    1    3    3  502    0 -0.51127522356E+02 -0.56149912213E+02  0.38905258709E+03  0.39641673035E+03  0.41800000000E+01 0.  1.
         -5    1    3    3    0  502  0.72524069072E+02 -0.42171126785E+02  0.36652717499E+03  0.37602897088E+03  0.41800000000E+01 0.  1.
        -11    1    4    4    0    0  0.38539265853E+02  0.78862033985E+02  0.25352633195E+03  0.26829106659E+03  0.00000000000E+00 0.  1.
         11    1    4    4    0    0 -0.59935812569E+02  0.19459005013E+02  0.35117619795E+03  0.35678519660E+03  0.00000000000E+00 0. -1.
</event>
<event>
 8    1  0.7232317E-009  0.1165317E+03  0.7561462E-02  0.1248931E+00
          2   -1    0    0  501    0  0.00000000000E+00  0.00000000000E+00  0.61229428887E+02  0.61229428887E+02  0.00000000000E+00 0. -1.
         -2   -1    0    0    0  501 -0.00000000000E+00 -0.00000000000E+00 -0.33381435435E+03  0.33381435435E+03  0.00000000000E+00 0.  1.
         25    2    1    2    0    0 -0.76836428347E+02  0.49618623824E+02 -0.17198056585E+03  0.23149718131E+03  0.12509110828E+03 0.  0.
         23    2    1    2    0    0  0.76836428347E+02 -0.49618623824E+02 -0.10060435961E+03  0.16354660193E+03  0.90886793760E+02 0.  0.
          5    1    3    3  502    0 -0.53081680366E+02 -0.61341237978E+00 -0.16730957387E+03  0.17557906189E+03  0.41800000000E+01 0. -1.
         -5    1    3    3    0  502 -0.23754747981E+02  0.50232036204E+02 -0.46709919823E+01  0.55918119415E+02  0.41800000000E+01 0. -1.
        -11    1    4    4    0    0 -0.10577546002E+02 -0.33594720352E+02 -0.99545112280E+01  0.36600300664E+02  0.00000000000E+00 0.  1.
         11    1    4    4    0    0  0.87413974350E+02 -0.16023903473E+02 -0.90649848383E+02  0.12694630127E+03  0.00000000000E+00 0. -1.
</event>
<event>
 8    1  0.7232317E-009  0.8996291E+02  0.7561462E-02  0.1302942E+00
         -1   -1    0    0    0  501 -0.00000000000E+00  0.00000000000E+00  0.22831797320E+03  0.22831797320E+03  0.00000000000E+00 0.  1.
          1   -1    0    0  501    0  0.00000000000E+00 -0.00000000000E+00 -0.70465923354E+02  0.70465923354E+02  0.00000000000E+00 0. -1.
         25    2    1    2    0    0  0.17390395889E+02  0.43680173948E+02  0.14085429911E+03  0.19416019271E+03  0.12509142013E+03 0.  0.
         23    2    1    2    0    0 -0.17390395889E+02 -0.43680173948E+02  0.16997750738E+02  0.10462370385E+03  0.91906541723E+02 0.  0.
          5    1    3    3  502    0  0.33148452980E+02 -0.19971174086E+02  0.21089682888E+00  0.38925372275E+02  0.41800000000E+01 0.  1.
         -5    1    3    3    0  502 -0.15758057091E+02  0.63651348033E+02  0.14064340228E+03  0.15523482043E+03  0.41800000000E+01 0.  1.
        -11    1    4    4    0    0 -0.32560483742E+02 -0.39894323918E+01  0.43547160893E+02  0.54520233805E+02  0.00000000000E+00 0.  1.
         11    1    4    4    0    0  0.15170087853E+02 -0.39690741556E+02 -0.26549410155E+02  0.50103470043E+02  0.00000000000E+00 0. -1.
</event>
<event>
 8    1  0.7232317E-009  0.1085105E+03  0.7561462E-02  0.1263353E+00
         -1   -1    0    0    0  501 -0.00000000000E+00  0.00000000000E+00  0.83648844096E+02  0.83648844096E+02  0.00000000000E+00 0.  1.
          1   -1    0    0  501    0  0.00000000000E+00 -0.00000000000E+00 -0.22347871940E+03  0.22347871940E+03  0.00000000000E+00 0. -1.
         25    2    1    2    0    0 -0.38186481576E+00 -0.75773924190E+02 -0.11923134309E+03  0.18869267722E+03  0.12508788851E+03 0.  0.
         23    2    1    2    0    0  0.38186481576E+00  0.75773924190E+02 -0.20598532210E+02  0.11843488627E+03  0.88660528701E+02 0.  0.
          5    1    3    3  502    0  0.44562276739E+02 -0.20936825000E+02 -0.10529573684E+03  0.11631342032E+03  0.41800000000E+01 0.  1.
         -5    1    3    3    0  502 -0.44944141554E+02 -0.54837099190E+02 -0.13935606247E+02  0.72379256898E+02  0.41800000000E+01 0.  1.
        -11    1    4    4    0    0  0.14438565411E+02 -0.44721421083E+01  0.21852119002E+02  0.26570422109E+02  0.00000000000E+00 0.  1.
         11    1    4    4    0    0 -0.14056700595E+02  0.80246066298E+02 -0.42450651212E+02  0.91864464165E+02  0.00000000000E+00 0. -1.
</event>
<event>
 8    1  0.7232317E-009  0.1127876E+03  0.7561462E-02  0.1255493E+00
         -1   -1    0    0    0  501 -0.00000000000E+00  0.00000000000E+00  0.16957667890E+02  0.16957667890E+02  0.00000000000E+00 0.  1.
          1   -1    0    0  501    0  0.00000000000E+00 -0.00000000000E+00 -0.11381047122E+04  0.11381047122E+04  0.00000000000E+00 0. -1.
         25    2    1    2    0    0  0.35902905776E+02  0.72109300911E+02 -0.74129274410E+03  0.75607638503E+03  0.12509115722E+03 0.  0.
         23    2    1    2    0    0 -0.35902905776E+02 -0.72109300911E+02 -0.37985430022E+03  0.39898599508E+03  0.91715674507E+02 0.  0.
          5    1    3    3  502    0  0.30864206126E+02  0.84202920284E+02 -0.73581786464E+03  0.74127466794E+03  0.41800000000E+01 0. -1.
         -5    1    3    3    0  502  0.50386996499E+01 -0.12093619373E+02 -0.54748794664E+01  0.14801717092E+02  0.41800000000E+01 0. -1.
        -11    1    4    4    0    0 -0.17224974272E+02  0.20954176265E+02 -0.81229601563E+02  0.85638924630E+02  0.00000000000E+00 0. -1.
         11    1    4    4    0    0 -0.18677931504E+02 -0.93063477177E+02 -0.29862469866E+03  0.31334707045E+03  0.00000000000E+00 0.  1.
</event>
<event>
 8    1  0.7232317E-009  0.2294174E+03  0.7561462E-02  0.1127051E+00
          2   -1    0    0  501    0  0.00000000000E+00  0.00000000000E+00  0.32524926815E+03  0.32524926815E+03  0.00000000000E+00 0. -1.
         -2   -1    0    0    0  501 -0.00000000000E+00 -0.00000000000E+00 -0.20045544102E+03  0.20045544102E+03  0.00000000000E+00 0.  1.
         25    2    1    2    0    0  0.43323608821E+02  0.19933515575E+03 -0.47990472928E+02  0.24405333048E+03  0.12508998053E+03 0.  0.
         23    2    1    2    0    0 -0.43323608821E+02 -0.19933515575E+03  0.17278430006E+03  0.28165137869E+03  0.88665920019E+02 0.  0.
          5    1    3    3  502    0  0.30083254779E+02 -0.59588764674E+01 -0.18843534109E+02  0.36236191916E+02  0.41800000000E+01 0. -1.
         -5    1    3    3    0  502  0.13240354043E+02  0.20529403222E+03 -0.29146938819E+02  0.20781713856E+03  0.41800000000E+01 0. -1.
        -11    1    4    4    0    0  0.17212963067E+02 -0.12534394376E+03  0.10568686154E+03  0.16485479379E+03  0.00000000000E+00 0.  1.
         11    1    4    4    0    0 -0.60536571888E+02 -0.73991211984E+02  0.67097438524E+02  0.11679658490E+03  0.00000000000E+00 0. -1.
</event>
<event>
 8    1  0.7232317E-009  0.1039267E+03  0.7561462E-02  0.1272249E+00
          1   -1    0    0  501    0  0.00000000000E+00  0.00000000000E+00  0.21660883755E+03  0.21660883755E+03  0.00000000000E+00 0. -1.
         -1   -1    0    0    0  501 -0.00000000000E+00 -0.00000000000E+00 -0.79183478093E+02  0.79183478093E+02  0.00000000000E+00 0.  1.
         25    2    1    2    0    0  0.22490212482E+02 -0.73389890116E+02  0.52088752182E+02  0.15573345197E+03  0.12509110412E+03 0.  0.
         23    2    1    2    0    0 -0.22490212482E+02  0.73389890116E+02  0.85336607273E+02  0.14005886367E+03  0.80263709874E+02 0.  0.
          5    1    3    3  502    0  0.55555003499E+02 -0.29308280212E+02 -0.18940489475E+02  0.65738483740E+02  0.41800000000E+01 0. -1.
         -5    1    3    3    0  502 -0.33064791018E+02 -0.44081609904E+02  0.71029241658E+02  0.89994968233E+02  0.41800000000E+01 0. -1.
        -11    1    4    4    0    0  0.80881157308E+01  0.51259492506E+02  0.88061368338E+02  0.10221427386E+03  0.00000000000E+00 0. -1.
         11    1    4    4    0    0 -0.30578328212E+02  0.22130397610E+02 -0.27247610651E+01  0.37844589805E+02  0.00000000000E+00 0.  1.
</event>
<event>
 8    1  0.7232317E-009  0.1101613E+03  0.7561462E-02  0.1260272E+00
          4   -1    0    0  501    0  0.00000000000E+00  0.00000000000E+00  0.16763646925E+03  0.16763646925E+03  0.00000000000E+00 0. -1.
         -4   -1    0    0    0  501 -0.00000000000E+00 -0.00000000000E+00 -0.11311067719E+03  0.11311067719E+03  0.00000000000E+00 0.  1.
         25    2    1    2    0    0  0.64988584210E+02  0.44575354153E+02 -0.28704088678E+01  0.14787332316E+03  0.12509117546E+03 0.  0.
         23    2    1    2    0    0 -0.64988584210E+02 -0.44575354153E+02  0.57396200923E+02  0.13287382329E+03  0.90280954578E+02 0.  0.
          5    1    3    3  502    0 -0.21202495722E+02  0.47747825781E+02  0.23710007989E+02  0.57524234636E+02  0.41800000000E+01 0. -1.
         -5    1    3    3    0  502  0.86191079932E+02 -0.31724716283E+01 -0.26580416857E+02  0.90349088520E+02  0.41800000000E+01 0. -1.
        -11    1    4    4    0    0 -0.41225185651E+02 -0.39841030506E+02 -0.12688993373E+02  0.58718261185E+02  0.00000000000E+00 0.  1.
         11    1    4    4    0    0 -0.23763398559E+02 -0.47343236464E+01  0.70085194296E+02  0.74155562104E+02  0.00000000000E+00 0. -1.
</event>
<event>
 8    1  0.7232317E-009  0.6871285E+02  0.7561462E-02  0.1364526E+00
         -2   -1    0    0    0  501 -0.00000000000E+00  0.00000000000E+00  0.33768276296E+02  0.33768276296E+02  0.00000000000E+00 0.  1.
          2   -1    0    0  501    0  0.00000000000E+00 -0.00000000000E+00 -0.49513700652E+03  0.49513700652E+03  0.00000000000E+00 0. -1.
         25    2    1    2    0    0  0.36692212233E+02  0.33255723992E+02 -0.15003473145E+03  0.20152057390E+03  0.12509140436E+03 0.  0.
         23    2    1    2    0    0 -0.36692212233E+02 -0.33255723992E+02 -0.31133399877E+03  0.32738470892E+03  0.88315498217E+02 0.  0.
          5    1    3    3  502    0  0.23043844691E+02  0.22574510555E+02 -0.17096195270E+03  0.17402898889E+03  0.41800000000E+01 0. -1.
         -5    1    3    3    0  502  0.13648367542E+02  0.10681213437E+02  0.20927221245E+02  0.27491585005E+02  0.41800000000E+01 0. -1.
        -11    1    4    4    0    0  0.17354365608E+02 -0.27767673490E+02 -0.45505810398E+02  0.56062433738E+02  0.00000000000E+00 0.  1.
         11    1    4    4    0    0 -0.54046577841E+02 -0.54880505023E+01 -0.26582818837E+03  0.27132227518E+03  0.00000000000E+00 0. -1.
</event>
<event>
 8    1  0.7232317E-009  0.1220498E+03  0.7561462E-02  0.1239753E+00
         -2   -1    0    0    0  501 -0.00000000000E+00  0.00000000000E+00  0.71226562569E+02  0.71226562569E+02  0.00000000000E+00 0.  1.
          2   -1    0    0  501    0  0.00000000000E+00 -0.00000000000E+00 -0.25753437474E+03  0.25753437474E+03  0.00000000000E+00 0. -1.
         25    2    1    2    0    0 -0.36250601464E+02  0.73225377169E+02 -0.88768781162E+02  0.17379476266E+03  0.12509460840E+03 0.  0.
         23    2    1    2    0    0  0.36250601464E+02 -0.73225377169E+02 -0.97539031005E+02  0.15496617465E+03  0.88456716803E+02 0.  0.
          5    1    3    3  502    0  0.34410634713E+02  0.68604970717E+02 -0.58856046560E+02  0.96810332120E+02  0.41800000000E+01 0.  1.
         -5    1    3    3    0  502 -0.70661236177E+02  0.46204064512E+01 -0.29912734602E+02  0.76984430537E+02  0.41800000000E+01 0.  1.
        -11    1    4    4    0    0  0.21257754823E+02  0.30111851004E+00  0.10271803774E+02  0.23611284701E+02  0.00000000000E+00 0.  1.
         11    1    4    4    0    0  0.14992846641E+02 -0.73526495679E+02 -0.10781083478E+03  0.13135488995E+03  0.00000000000E+00 0. -1.
</event>
<event>
 8    1  0.7232317E-009  0.9291575E+02  0.7561462E-02  0.1295941E+00
         -1   -1    0    0    0  501 -0.00000000000E+00  0.00000000000E+00  0.45493828392E+03  0.45493828392E+03  0.00000000000E+00 0. -1.
          1   -1    0    0  501    0  0.00000000000E+00 -0.00000000000E+00 -0.30071588344E+02  0.30071588344E+02  0.00000000000E+00 0.  1.
         25    2    1    2    0    0  0.15024818548E+02 -0.32235160509E+02  0.30475872632E+03  0.33133982776E+03  0.12507337625E+03 0.  0.
         23    2    1    2    0    0 -0.15024818548E+02  0.32235160509E+02  0.12010796925E+03  0.15367004450E+03  0.89015209678E+02 0.  0.
          5    1    3    3  502    0 -0.19212868811E+02  0.19957302702E+02  0.95865098940E+01  0.29610839756E+02  0.41800000000E+01 0.  1.
         -5    1    3    3    0  502  0.34237687359E+02 -0.52192463211E+02  0.29517221642E+03  0.30172898800E+03  0.41800000000E+01 0.  1.
        -11    1    4    4    0    0 -0.48448046452E+01  0.62827412270E+02  0.87350738615E+02  0.10770750856E+03  0.00000000000E+00 0. -1.
         11    1    4    4    0    0 -0.10180013902E+02 -0.30592251761E+02  0.32757230639E+02  0.45962535939E+02  0.00000000000E+00 0.  1.
</event>
<event>
 8    1  0.7232317E-009  0.2548118E+03  0.7561462E-02  0.1110301E+00
          2   -1    0    0  501    0  0.00000000000E+00  0.00000000000E+00  0.68456190534E+03  0.68456190534E+03  0.00000000000E+00 0. -1.
         -2   -1    0    0    0  501 -0.00000000000E+00 -0.00000000000E+00 -0.11865230163E+03  0.11865230163E+03  0.00000000000E+00 0.  1.
         25    2    1    2    0    0  0.16434278246E+03  0.19008219438E+03  0.17885719298E+03  0.33283241019E+03  0.12509087508E+03 0.  0.
         23    2    1    2    0    0 -0.16434278246E+03 -0.19008219438E+03  0.38705241073E+03  0.47038179678E+03  0.91157420570E+02 0.  0.
          5    1    3    3  502    0  0.12137936777E+03  0.17415180575E+03  0.85758820304E+02  0.22898438817E+03  0.41800000000E+01 0. -1.
         -5    1    3    3    0  502  0.42963414683E+02  0.15930388634E+02  0.93098372674E+02  0.10384802202E+03  0.41800000000E+01 0. -1.
        -11    1    4    4    0    0 -0.20988422060E+02 -0.22827917696E+02  0.12130653610E+03  0.12520744143E+03  0.00000000000E+00 0.  1.
         11    1    4    4    0    0 -0.14335436040E+03 -0.16725427669E+03  0.26574587463E+03  0.34517435536E+03  0.00000000000E+00 0. -1.
</event>
<event>
 8    1  0.7232317E-009  0.1723576E+03  0.7561462E-02  0.1175411E+00
         -2   -1    0    0    0  501 -0.00000000000E+00  0.00000000000E+00  0.45126544827E+02  0.45126544827E+02  0.00000000000E+00 0. -1.
          2   -1    0    0  501    0  0.00000000000E+00 -0.00000000000E+00 -0.69965822655E+03  0.69965822655E+03  0.00000000000E+00 0.  1.
         25    2    1    2    0    0 -0.27749630071E+02  0.13426477048E+03 -0.29788600419E+03  0.35097151754E+03  0.12509142286E+03 0.  0.
         23    2    1    2    0    0  0.27749630071E+02 -0.13426477048E+03 -0.35664567754E+03  0.39381325384E+03  0.95371216987E+02 0.  0.
          5    1    3    3  502    0 -0.59846741923E+02  0.25230254029E+02 -0.15665609488E+03  0.16963726802E+03  0.41800000000E+01 0.  1.
         -5    1    3    3    0  502  0.32097111851E+02  0.10903451645E+03 -0.14122990930E+03  0.18133424952E+03  0.41800000000E+01 0.  1.
        -11    1    4    4    0    0  0.31026594169E+02  0.55938415441E+00 -0.85994700767E+02  0.91422377000E+02  0.00000000000E+00 0.  1.
         11    1    4    4    0    0 -0.32769640974E+01 -0.13482415464E+03 -0.27065097677E+03  0.30239087684E+03  0.00000000000E+00 0. -1.
</event>
<event>
 7    1  0.7232317E-009  0.1088688E+03  0.7561462E-02  0.1262679E+00
         -4   -1    0    0    0  501 -0.00000000000E+00  0.00000000000E+00  0.34270789742E+02  0.34270789742E+02  0.00000000000E+00 0.  1.
          4   -1    0    0  501    0  0.00000000000E+00 -0.00000000000E+00 -0.37153938598E+03  0.37153938598E+03  0.00000000000E+00 0. -1.
         25    2    1    2    0    0  0.13198256706E+02 -0.68660978030E+02 -0.20585309779E+03  0.25082062366E+03  0.12508782314E+03 0.  0.
          5    1    3    3  502    0  0.68668330996E+02 -0.48152865853E+02 -0.12362526067E+03  0.14944803661E+03  0.41800000000E+01 0.  1.
         -5    1    3    3    0  502 -0.55470074289E+02 -0.20508112177E+02 -0.82227837125E+02  0.10137258705E+03  0.41800000000E+01 0.  1.
        -11    1    1    2    0    0 -0.17858951312E+02  0.25885423413E+02 -0.24903822249E+02  0.40114805868E+02  0.00000000000E+00 0.  1.
         11    1    1    2    0    0  0.46606946056E+01  0.42775554618E+02 -0.10651167619E+03  0.11487474619E+03  0.00000000000E+00 0. -1.
</event>
<event>
 8    1  0.7232317E-009  0.7556917E+02  0.7561462E-02  0.1342117E+00
          2   -1    0    0  501    0  0.00000000000E+00  0.00000000000E+00  0.12913268219E+03  0.12913268219E+03  0.00000000000E+00 0. -1.
         -2   -1    0    0    0  501 -0.00000000000E+00 -0.00000000000E+00 -0.10104669864E+03  0.10104669864E+03  0.00000000000E+00 0.  1.
         25    2    1    2    0    0 -0.21242156757E+02  0.29246507498E+02  0.12247414745E+02  0.13077613854E+03  0.12508321957E+03 0.  0.
         23    2    1    2    0    0  0.21242156757E+02 -0.29246507498E+02  0.15838568808E+02  0.99403242287E+02  0.91233529422E+02 0.  0.
          5    1    3    3  502    0  0.47583525485E+00 -0.22034687222E+02 -0.45321638311E+02  0.50569527972E+02  0.41800000000E+01 0.  1.
         -5    1    3    3    0  502 -0.21717992012E+02  0.51281194721E+02  0.57569053055E+02  0.80206610567E+02  0.41800000000E+01 0.  1.
        -11    1    4    4    0    0  0.37412372814E+02 -0.38944281063E+02 -0.21061486187E+02  0.57964893405E+02  0.00000000000E+00 0.  1.
         11    1    4    4    0    0 -0.16170216057E+02  0.96977735643E+01  0.36900054995E+02  0.41438348882E+02  0.00000000000E+00 0. -1.
</event>
<event>
 8    1  0.7232317E-009  0.8712567E+02  0.7561462E-02  0.1309965E+00
         -4   -1    0    0    0  501 -0.00000000000E+00  0.00000000000E+00  0.25972816199E+02  0.25972816199E+02  0.00000000000E+00 0.  1.
          4   -1    0    0  501    0  0.00000000000E+00 -0.00000000000E+00 -0.46815327189E+03  0.46815327189E+03  0.00000000000E+00 0. -1.
         25    2    1    2    0    0  0.10727899265E+02  0.14986094504E+02 -0.21684795846E+03  0.25101793997E+03  0.12508916120E+03 0.  0.
         23    2    1    2    0    0 -0.10727899265E+02 -0.14986094504E+02 -0.22533249723E+03  0.24310814812E+03  0.89370948978E+02 0.  0.
          5    1    3    3  502    0  0.15966005255E+02  0.47373457615E+02 -0.21167995680E+03  0.21754317806E+03  0.41800000000E+01 0.  1.
         -5    1    3    3    0  502 -0.52381059899E+01 -0.32387363111E+02 -0.51680016557E+01  0.33474761908E+02  0.41800000000E+01 0.  1.
        -11    1    4    4    0    0  0.39480332376E+02 -0.46792347512E+01 -0.10723962319E+03  0.11437188756E+03  0.00000000000E+00 0. -1.
         11    1    4    4    0    0 -0.50208231641E+02 -0.10306859753E+02 -0.11809287404E+03  0.12873626056E+03  0.00000000000E+00 0.  1.
</event>
<event>
 8    1  0.7232317E-009  0.6933774E+02  0.7561462E-02  0.1362360E+00
          1   -1    0    0  501    0  0.00000000000E+00  0.00000000000E+00  0.81913264219E+02  0.81913264219E+02  0.00000000000E+00 0. -1.
         -1   -1    0    0    0  501 -0.00000000000E+00 -0.00000000000E+00 -0.18580404556E+03  0.18580404556E+03  0.00000000000E+00 0.  1.
         25    2    1    2    0    0  0.20702146307E+02 -0.52569987387E+00 -0.11725485124E+03  0.17270102721E+03  0.12509232365E+03 0.  0.
         23    2    1    2    0    0 -0.20702146307E+02  0.52569987387E+00  0.13364069899E+02  0.95016282572E+02  0.91764047249E+02 0.  0.
          5    1    3    3  502    0  0.41837649773E+02  0.82922963769E+01 -0.13613907238E+03  0.14272515737E+03  0.41800000000E+01 0.  1.
         -5    1    3    3    0  502 -0.21135503466E+02 -0.88179962508E+01  0.18884221138E+02  0.29975869839E+02  0.41800000000E+01 0.  1.
        -11    1    4    4    0    0 -0.38221190805E+01  0.34443015796E+02  0.36735500936E+02  0.50501752053E+02  0.00000000000E+00 0. -1.
         11    1    4    4    0    0 -0.16880027227E+02 -0.33917315923E+02 -0.23371431038E+02  0.44514530519E+02  0.00000000000E+00 0.  1.
</event>
<event>
 8    1  0.7232317E-009  0.1036012E+03  0.7561462E-02  0.1272900E+00
          1   -1    0    0  501    0  0.00000000000E+00  0.00000000000E+00  0.34742983491E+03  0.34742983491E+03  0.00000000000E+00 0. -1.
         -1   -1    0    0    0  501 -0.00000000000E+00 -0.00000000000E+00 -0.42487369444E+02  0.42487369444E+02  0.00000000000E+00 0.  1.
         25    2    1    2    0    0 -0.57545955379E+02  0.70307072056E+01  0.17243688152E+03  0.22077733947E+03  0.12508871928E+03 0.  0.
         23    2    1    2    0    0  0.57545955379E+02 -0.70307072056E+01  0.13250558396E+03  0.16913986489E+03  0.87690343208E+02 0.  0.
          5    1    3    3  502    0 -0.75813498859E+02  0.49181587362E+02  0.99501321633E+02  0.13447862489E+03  0.41800000000E+01 0. -1.
         -5    1    3    3    0  502  0.18267543480E+02 -0.42150880156E+02  0.72935559884E+02  0.86298714581E+02  0.41800000000E+01 0. -1.
        -11    1    4    4    0    0  0.11811754200E+02 -0.19861283833E+02 -0.50158368947E+01  0.23646284117E+02  0.00000000000E+00 0.  1.
         11    1    4    4    0    0  0.45734201179E+02  0.12830576628E+02  0.13752142085E+03  0.14549358077E+03  0.00000000000E+00 0. -1.
</event>
<event>
 8    1  0.7232317E-009  0.1195517E+03  0.7561462E-02  0.1243838E+00
         -2   -1    0    0    0  501 -0.00000000000E+00  0.00000000000E+00  0.58519106518E+02  0.58519106518E+02  0.00000000000E+00 0.  1.
          2   -1    0    0  501    0  0.00000000000E+00 -0.00000000000E+00 -0.31100890419E+03  0.31100890419E+03  0.00000000000E+00 0. -1.
         25    2    1    2    0    0 -0.83081163844E+02 -0.78156779180E+01 -0.13757913300E+03  0.20381480592E+03  0.12509553418E+03 0.  0.
         23    2    1    2    0    0  0.83081163844E+02  0.78156779180E+01 -0.11491066468E+03  0.16571320478E+03  0.85398130991E+02 0.  0.
          5    1    3    3  502    0 -0.99649319215E+01 -0.53265354846E+02 -0.90597074917E+02  0.10564942157E+03  0.41800000000E+01 0. -1.
         -5    1    3    3    0  502 -0.73116231922E+02  0.45449676928E+02 -0.46982058078E+02  0.98165384350E+02  0.41800000000E+01 0. -1.
        -11    1    4    4    0    0  0.41545147088E+02  0.30214230546E+02 -0.12375541906E+02  0.52839880881E+02  0.00000000000E+00 0.  1.
         11    1    4    4    0    0  0.41536016756E+02 -0.22398552627E+02 -0.10253512277E+03  0.11287332390E+03  0.00000000000E+00 0. -1.
</event>
<event>
 8    1  0.7232317E-009  0.1075142E+03  0.7561462E-02  0.1265244E+00
          1   -1    0    0  501    0  0.00000000000E+00  0.00000000000E+00  0.23985740811E+03  0.23985740811E+03  0.00000000000E+00 0. -1.
         -1   -1    0    0    0  501 -0.00000000000E+00 -0.00000000000E+00 -0.61573459997E+02  0.61573459997E+02  0.00000000000E+00 0.  1.
         25    2    1    2    0    0 -0.70565780263E+01 -0.46525938536E+02  0.79778908969E+02  0.15564795467E+03  0.12508858153E+03 0.  0.
         23    2    1    2    0    0  0.70565780263E+01  0.46525938536E+02  0.98505039143E+02  0.14578291343E+03  0.96617580501E+02 0.  0.
          5    1    3    3  502    0  0.30998973307E+02 -0.74517843372E+02  0.70665181002E+02  0.10735401964E+03  0.41800000000E+01 0.  1.
         -5    1    3    3    0  502 -0.38055551333E+02  0.27991904836E+02  0.91137279667E+01  0.48293935034E+02  0.41800000000E+01 0.  1.
        -11    1    4    4    0    0 -0.93289856257E+01  0.62919468442E+02  0.24381714176E+02  0.68120169319E+02  0.00000000000E+00 0.  1.
         11    1    4    4    0    0  0.16385563652E+02 -0.16393529906E+02  0.74123324967E+02  0.77662744113E+02  0.00000000000E+00 0. -1.
</event>
<event>
 8    1  0.7232317E-009  0.1455147E+03  0.7561462E-02  0.1206095E+00
          1   -1    0    0  501    0  0.00000000000E+00  0.00000000000E+00  0.69889205986E+03  0.69889205986E+03  0.00000000000E+00 0. -1.
         -1   -1    0    0    0  501 -0.00000000000E+00 -0.00000000000E+00 -0.33190661892E+02  0.33190661892E+02  0.00000000000E+00 0.  1.
         25    2    1    2    0    0 -0.83097696202E+02 -0.56615606390E+02  0.28004039381E+03  0.32277203545E+03  0.12509440714E+03 0.  0.
         23    2    1    2    0    0  0.83097696202E+02  0.56615606390E+02  0.38566100415E+03  0.40931068630E+03  0.93221638025E+02 0.  0.
          5    1    3    3  502    0  0.30637065925E+02  0.41288940132E+01  0.62579801944E+02  0.69924113048E+02  0.41800000000E+01 0.  1.
         -5    1    3    3    0  502 -0.11373476213E+03 -0.60744500403E+02  0.21746059187E+03  0.25284792240E+03  0.41800000000E+01 0.  1.
        -11    1    4    4    0    0  0.41801524874E+01  0.51579198732E+02  0.96115088623E+02  0.10916042175E+03  0.00000000000E+00 0.  1.
         11    1    4    4    0    0  0.78917543715E+02  0.50364076580E+01  0.28954591553E+03  0.30015026454E+03  0.00000000000E+00 0. -1.
</event>
<event>
 8    1  0.7232317E-009  0.9993356E+02  0.7561462E-02  0.1280436E+00
          2   -1    0    0  501    0  0.00000000000E+00  0.00000000000E+00  0.51124823522E+03  0.51124823522E+03  0.00000000000E+00 0. -1.
         -2   -1    0    0    0  501 -0.00000000000E+00 -0.00000000000E+00 -0.28980934631E+02  0.28980934631E+02  0.00000000000E+00 0.  1.
         25    2    1    2    0    0 -0.80809699730E+01 -0.51918711457E+02  0.31052569312E+03  0.33887891318E+03  0.12510738203E+03 0.  0.
         23    2    1    2    0    0  0.80809699730E+01  0.51918711457E+02  0.17174160748E+03  0.20135025667E+03  0.91026872119E+02 0.  0.
          5    1    3    3  502    0  0.38988892140E+02  0.24194882473E+02  0.10872585887E+03  0.11808603150E+03  0.41800000000E+01 0.  1.
         -5    1    3    3    0  502 -0.47069862113E+02 -0.76113593930E+02  0.20179983424E+03  0.22079288168E+03  0.41800000000E+01 0.  1.
        -11    1    4    4    0    0  0.22867504601E+02  0.33909003095E+02  0.17323768401E+03  0.17800010792E+03  0.00000000000E+00 0. -1.
         11    1    4    4    0    0 -0.14786534628E+02  0.18009708362E+02 -0.14960765381E+01  0.23350148749E+02  0.00000000000E+00 0.  1.
</event>
<event>
 8    1  0.7232317E-009  0.1301720E+03  0.7561462E-02  0.1227201E+00
          1   -1    0    0  501    0  0.00000000000E+00  0.00000000000E+00  0.60315272882E+03  0.60315272882E+03  0.00000000000E+00 0. -1.
         -1   -1    0    0    0  501 -0.00000000000E+00 -0.00000000000E+00 -0.39256171333E+02  0.39256171333E+02  0.00000000000E+00 0.  1.
         25    2    1    2    0    0  0.93130594807E+01  0.98389796923E+02  0.39693651623E+03  0.42775486615E+03  0.12509333468E+03 0.  0.
         23    2    1    2    0    0 -0.93130594807E+01 -0.98389796923E+02  0.16696004125E+03  0.21465403400E+03  0.91833619782E+02 0.  0.
          5    1    3    3  502    0  0.32959618519E+02  0.10052651890E+03  0.38776847546E+03  0.40196241170E+03  0.41800000000E+01 0. -1.
         -5    1    3    3    0  502 -0.23646559038E+02 -0.21367219729E+01  0.91680407677E+01  0.25792454452E+02  0.41800000000E+01 0. -1.
        -11    1    4    4    0    0 -0.30771375768E+02 -0.10377224138E+03  0.15624209919E+03  0.19007143185E+03  0.00000000000E+00 0. -1.
         11    1    4    4    0    0  0.21458316287E+02  0.53824444592E+01  0.10717942066E+02  0.24582602148E+02  0.00000000000E+00 0.  1.
</event>
<event>
 8    1  0.7232317E-009  0.1053096E+03  0.7561462E-02  0.1269511E+00
          2   -1    0    0  501    0  0.00000000000E+00  0.00000000000E+00  0.49264980403E+03  0.49264980403E+03  0.00000000000E+00 0. -1.
         -2   -1    0    0    0  501 -0.00000000000E+00 -0.00000000000E+00 -0.29523346283E+02  0.29523346283E+02  0.00000000000E+00 0.  1.
         25    2    1    2    0    0 -0.40744670325E+02  0.20629844154E+01  0.19778940836E+03  0.23755514624E+03  0.12508962139E+03 0.  0.
         23    2    1    2    0    0  0.40744670325E+02 -0.20629844154E+01  0.26533704938E+03  0.28461800407E+03  0.94547736104E+02 0.  0.
          5    1    3    3  502    0 -0.38384349561E+01 -0.47947803195E+02  0.26039008361E+02  0.54856428707E+02  0.41800000000E+01 0. -1.
         -5    1    3    3    0  502 -0.36906235369E+02  0.50010787610E+02  0.17175040000E+03  0.18269871753E+03  0.41800000000E+01 0. -1.
        -11    1    4    4    0    0  0.46088516609E-02 -0.42582623691E+02  0.14741055319E+03  0.15343777584E+03  0.00000000000E+00 0.  1.
         11    1    4    4    0    0  0.40740061473E+02  0.40519639275E+02  0.11792649619E+03  0.13118022823E+03  0.00000000000E+00 0. -1.
</event>
<event>
 8    1  0.7232317E-009  0.1192028E+03  0.7561462E-02  0.1244418E+00
         -2   -1    0    0    0  501 -0.00000000000E+00  0.00000000000E+00  0.21106093051E+03  0.21106093051E+03  0.00000000000E+00 0.  1.
          2   -1    0    0  501    0  0.00000000000E+00 -0.00000000000E+00 -0.84185616237E+02  0.84185616237E+02  0.00000000000E+00 0. -1.
         25    2    1    2    0    0 -0.69745550090E+02  0.96282258908E+01  0.36720494290E+02  0.14816070681E+03  0.12508419505E+03 0.  0.
         23    2    1    2    0    0  0.69745550090E+02 -0.96282258908E+01  0.90154819979E+02  0.14708583993E+03  0.92461928665E+02 0.  0.
          5    1    3    3  502    0 -0.77825304989E+02  0.54333160019E+02  0.10614223460E+02  0.95598140745E+02  0.41800000000E+01 0.  1.
         -5    1    3    3    0  502  0.80797548984E+01 -0.44704934128E+02  0.26106270831E+02  0.52562566065E+02  0.41800000000E+01 0.  1.
        -11    1    4    4    0    0  0.76411311595E+01  0.25366400448E+02  0.67139618259E+02  0.72177347534E+02  0.00000000000E+00 0.  1.
         11    1    4    4    0    0  0.62104418931E+02 -0.34994626339E+02  0.23015201720E+02  0.74908492400E+02  0.00000000000E+00 0. -1.
</event>
<event>
 8    1  0.7232317E-009  0.1111841E+03  0.7561462E-02  0.1258393E+00
         -1   -1    0    0    0  501 -0.00000000000E+00  0.00000000000E+00  0.29599429358E+02  0.29599429358E+02  0.00000000000E+00 0.  1.
          1   -1    0    0  501    0  0.00000000000E+00 -0.00000000000E+00 -0.79761414311E+03  0.79761414311E+03  0.00000000000E+00 0. -1.
         25    2    1    2    0    0  0.33698322941E+02  0.56672732206E+02 -0.65028054983E+03  0.66547718062E+03  0.12509080258E+03 0.  0.
         23    2    1    2    0    0 -0.33698322941E+02 -0.56672732206E+02 -0.11773416392E+03  0.16173639185E+03  0.89162500805E+02 0.  0.
          5    1    3    3  502    0  0.23692183400E+02 -0.38613618188E+02 -0.20605109814E+03  0.21101388226E+03  0.41800000000E+01 0. -1.
         -5    1    3    3    0  502  0.10006139541E+02  0.95286350393E+02 -0.44422945169E+03  0.45446329835E+03  0.41800000000E+01 0. -1.
        -11    1    4    4    0    0 -0.45163695787E+02 -0.37826268533E+02 -0.21037459080E+02  0.62555261112E+02  0.00000000000E+00 0. -1.
         11    1    4    4    0    0  0.11465372846E+02 -0.18846463672E+02 -0.96696704838E+02  0.99181130736E+02  0.00000000000E+00 0.  1.
</event>
<event>
 8    1  0.7232317E-009  0.1342967E+03  0.7561462E-02  0.1221216E+00
          2   -1    0    0  501    0  0.00000000000E+00  0.00000000000E+00  0.84615907762E+02  0.84615907762E+02  0.00000000000E+00 0.  1.
         -2   -1    0    0    0  501 -0.00000000000E+00 -0.00000000000E+00 -0.24987133403E+03  0.24987133403E+03  0.00000000000E+00 0. -1.
         25    2    1    2    0    0  0.90199977336E+02 -0.23391611785E+02 -0.12157452906E+03  0.19776519918E+03  0.12508998552E+03 0.  0.
         23    2    1    2    0    0 -0.90199977336E+02  0.23391611785E+02 -0.43680897203E+02  0.13672204261E+03  0.90009403630E+02 0.  0.
          5    1    3    3  502    0  0.97837417651E+02 -0.59819726063E+02 -0.71395562946E+02  0.13514939411E+03  0.41800000000E+01 0.  1.
         -5    1    3    3    0  502 -0.76374403149E+01  0.36428114278E+02 -0.50178966116E+02  0.62615805072E+02  0.41800000000E+01 0.  1.
        -11    1    4    4    0    0 -0.53942011927E+02 -0.22031379189E+02 -0.51892332446E+02  0.78025229807E+02  0.00000000000E+00 0. -1.
         11    1    4    4    0    0 -0.36257965409E+02  0.45422990974E+02  0.82114352428E+01  0.58696812804E+02  0.00000000000E+00 0.  1.
</event>
<event>
 8    1  0.7232317E-009  0.2935016E+03  0.7561462E-02  0.1088535E+00
         -1   -1    0    0    0  501 -0.00000000000E+00  0.00000000000E+00  0.11929070636E+03  0.11929070636E+03  0.00000000000E+00 0.  1.
          1   -1    0    0  501    0  0.00000000000E+00 -0.00000000000E+00 -0.88148678956E+03  0.88148678956E+03  0.00000000000E+00 0. -1.
         25    2    1    2    0    0  0.65677444495E+02 -0.28167739327E+03 -0.23666161633E+03  0.39409612857E+03  0.12508939732E+03 0.  0.
         23    2    1    2    0    0 -0.65677444495E+02  0.28167739327E+03 -0.52553446688E+03  0.60668136735E+03  0.90664905087E+02 0.  0.
          5    1    3    3  502    0  0.70809032296E+02 -0.26932026327E+03 -0.17068521206E+03  0.32664696123E+03  0.41800000000E+01 0. -1.
         -5    1    3    3    0  502 -0.51315878011E+01 -0.12357129993E+02 -0.65976404273E+02  0.67449167347E+02  0.41800000000E+01 0. -1.
        -11    1    4    4    0    0 -0.20955599761E+02  0.20221294660E+03 -0.29041931353E+03  0.35450330126E+03  0.00000000000E+00 0.  1.
         11    1    4    4    0    0 -0.44721844734E+02  0.79464446668E+02 -0.23511515335E+03  0.25217806608E+03  0.00000000000E+00 0. -1.
</event>
<event>
 8    1  0.7232317E-009  0.6350789E+02  0.7561462E-02  0.1383674E+00
          1   -1    0    0  501    0  0.00000000000E+00  0.00000000000E+00  0.35564633978E+03  0.35564633978E+03  0.00000000000E+00 0. -1.
         -1   -1    0    0    0  501 -0.00000000000E+00 -0.00000000000E+00 -0.39756372466E+02  0.39756372466E+02  0.00000000000E+00 0.  1.
         25    2    1    2    0    0  0.44734162067E+02 -0.12719070565E+02  0.15571003537E+03  0.20507679668E+03  0.12509179593E+03 0.  0.
         23    2    1    2    0    0 -0.44734162067E+02  0.12719070565E+02  0.16017993195E+03  0.19032591557E+03  0.91670188862E+02 0.  0.
          5    1    3    3  502    0  0.57522654710E+02  0.20830181630E+00  0.10438229797E+02  0.58611673204E+02  0.41800000000E+01 0.  1.
         -5    1    3    3    0  502 -0.12788492643E+02 -0.12927372381E+02  0.14527180557E+03  0.14646512348E+03  0.41800000000E+01 0.  1.
        -11    1    4    4    0    0 -0.14976326591E+02  0.14534363174E+02 -0.58233249072E+01  0.21666776041E+02  0.00000000000E+00 0.  1.
         11    1    4    4    0    0 -0.29757835475E+02 -0.18152926087E+01  0.16600325685E+03  0.16865913952E+03  0.00000000000E+00 0. -1.
</event>
<event>
 8    1  0.7232317E-009  0.1910055E+03  0.7561462E-02  0.1157558E+00
         -1   -1    0    0    0  501 -0.00000000000E+00  0.00000000000E+00  0.16699420900E+03  0.16699420900E+03  0.00000000000E+00 0.  1.
          1   -1    0    0  501    0  0.00000000000E+00 -0.00000000000E+00 -0.46177539682E+03  0.46177539682E+03  0.00000000000E+00 0. -1.
         25    2    1    2    0    0  0.15197285429E+03  0.80773667722E+02  0.62321375808E+02  0.22170294087E+03  0.12509239093E+03 0.  0.
         23    2    1    2    0    0 -0.15197285429E+03 -0.80773667722E+02 -0.35710256363E+03  0.40706666496E+03  0.92525104341E+02 0.  0.
          5    1    3    3  502    0  0.16267221857E+03  0.71078453599E+02  0.83102062824E+02  0.19605566176E+03  0.41800000000E+01 0. -1.
         -5    1    3    3    0  502 -0.10699364284E+02  0.96952141233E+01 -0.20780687015E+02  0.25647279111E+02  0.41800000000E+01 0. -1.
        -11    1    4    4    0    0 -0.10611366190E+03 -0.12060989242E+02 -0.24960799636E+03  0.27149535641E+03  0.00000000000E+00 0. -1.
         11    1    4    4    0    0 -0.45859192388E+02 -0.68712678480E+02 -0.10749456726E+03  0.13557130855E+03  0.00000000000E+00 0.  1.
</event>
<event>
 8    1  0.7232317E-009  0.1404976E+03  0.7561462E-02  0.1212661E+00
         -1   -1    0    0    0  501 -0.00000000000E+00  0.00000000000E+00  0.30369207332E+02  0.30369207332E+02  0.00000000000E+00 0.  1.
          1   -1    0    0  501    0  0.00000000000E+00 -0.00000000000E+00 -0.80826826139E+03  0.80826826139E+03  0.00000000000E+00 0. -1.
         25    2    1    2    0    0  0.10523701338E+03 -0.41006579009E+02 -0.42416799237E+03  0.45642390717E+03  0.12509168149E+03 0.  0.
         23    2    1    2    0    0 -0.10523701338E+03  0.41006579009E+02 -0.35373106169E+03  0.38221356156E+03  0.90582416201E+02 0.  0.
          5    1    3    3  502    0  0.17746147465E+02 -0.71023102641E+02 -0.22802880644E+03  0.23952831946E+03  0.41800000000E+01 0. -1.
         -5    1    3    3    0  502  0.87490865912E+02  0.30016523633E+02 -0.19613918593E+03  0.21689558770E+03  0.41800000000E+01 0. -1.
        -11    1    4    4    0    0 -0.67087239019E+02  0.37273155422E+02 -0.32597517807E+03  0.33488774607E+03  0.00000000000E+00 0. -1.
         11    1    4    4    0    0 -0.38149774359E+02  0.37334235864E+01 -0.27755883626E+02  0.47325815483E+02  0.00000000000E+00 0.  1.
</event>
<event>
 8    1  0.7232317E-009  0.1058835E+03  0.7561462E-02  0.1268389E+00
          2   -1    0    0  501    0  0.00000000000E+00  0.00000000000E+00  0.20599913974E+03  0.20599913974E+03  0.00000000000E+00 0. -1.
         -2   -1    0    0    0  501 -0.00000000000E+00 -0.00000000000E+00 -0.78109117144E+02  0.78109117144E+02  0.00000000000E+00 0.  1.
         25    2    1    2    0    0 -0.39383159447E+02  0.50945868435E+02  0.64058364673E+02  0.15458805001E+03  0.12508987315E+03 0.  0.
         23    2    1    2    0    0  0.39383159447E+02 -0.50945868435E+02  0.63831657924E+02  0.12952020687E+03  0.92490478840E+02 0.  0.
          5    1    3    3  502    0  0.29512999979E+02 -0.19499493205E+02  0.39025550204E+02  0.52836666924E+02  0.41800000000E+01 0. -1.
         -5    1    3    3    0  502 -0.68896159425E+02  0.70445361640E+02  0.25032814469E+02  0.10175138309E+03  0.41800000000E+01 0. -1.
        -11    1    4    4    0    0  0.48199808793E+02 -0.35956733900E+02 -0.32493397299E+01  0.60221810742E+02  0.00000000000E+00 0.  1.
         11    1    4    4    0    0 -0.88166493463E+01 -0.14989134536E+02  0.67080997654E+02  0.69298396129E+02  0.00000000000E+00 0. -1.
</event>
<event>
 8    1  0.7232317E-009  0.1867238E+03  0.7561462E-02  0.1161450E+00
         -2   -1    0    0    0  501 -0.00000000000E+00  0.00000000000E+00  0.11582319370E+03  0.11582319370E+03  0.00000000000E+00 0.  1.
          2   -1    0    0  501    0  0.00000000000E+00 -0.00000000000E+00 -0.32704447591E+03  0.32704447591E+03  0.00000000000E+00 0. -1.
         25    2    1    2    0    0  0.14784818418E+03  0.60346532300E+02 -0.13592584340E+03  0.24417887207E+03  0.12508675843E+03 0.  0.
         23    2    1    2    0    0 -0.14784818418E+03 -0.60346532300E+02 -0.75295438808E+02  0.19868879755E+03  0.91142995561E+02 0.  0.
          5    1    3    3  502    0  0.16980040821E+03  0.47231563226E+02 -0.11168096471E+03  0.20869381752E+03  0.41800000000E+01 0.  1.
         -5    1    3    3    0  502 -0.21952224030E+02  0.13114969074E+02 -0.24244878690E+02  0.35485054549E+02  0.41800000000E+01 0.  1.
        -11    1    4    4    0    0 -0.23306620885E+02  0.13018319789E+02 -0.42948895352E+02  0.50569584131E+02  0.00000000000E+00 0. -1.
         11    1    4    4    0    0 -0.12454156329E+03 -0.73364852089E+02 -0.32346543457E+02  0.14811921342E+03  0.00000000000E+00 0.  1.
</event>
<event>
 8    1  0.7232317E-009  0.1221959E+03  0.7561462E-02  0.1239518E+00
          1   -1    0    0  501    0  0.00000000000E+00  0.00000000000E+00  0.58550351484E+02  0.58550351484E+02  0.00000000000E+00 0. -1.
         -1   -1    0    0    0  501 -0.00000000000E+00 -0.00000000000E+00 -0.34301319600E+03  0.34301319600E+03  0.00000000000E+00 0.  1.
         25    2    1    2    0    0 -0.57831374521E+02  0.26090078412E+02 -0.67212865911E+02  0.15553233984E+03  0.12509028468E+03 0.  0.
         23    2    1    2    0    0  0.57831374521E+02 -0.26090078412E+02 -0.21724997861E+03  0.24603120765E+03  0.96481303160E+02 0.  0.
          5    1    3    3  502    0 -0.83070088977E+02 -0.21704322109E+02 -0.38515128338E+02  0.94194505104E+02  0.41800000000E+01 0.  1.
         -5    1    3    3    0  502  0.25238714455E+02  0.47794400521E+02 -0.28697737572E+02  0.61337834738E+02  0.41800000000E+01 0.  1.
        -11    1    4    4    0    0 -0.17673213773E+02  0.10245594733E+02 -0.99103849393E+02  0.10118738884E+03  0.00000000000E+00 0.  1.
         11    1    4    4    0    0  0.75504588295E+02 -0.36335673144E+02 -0.11814612922E+03  0.14484381880E+03  0.00000000000E+00 0. -1.
</event>
<event>
 8    1  0.7232317E-009  0.2555521E+03  0.7561462E-02  0.1109845E+00
          3   -1    0    0  501    0  0.00000000000E+00  0.00000000000E+00  0.49875971145E+02  0.49875971145E+02  0.00000000000E+00 0. -1.
         -3   -1    0    0    0  501 -0.00000000000E+00 -0.00000000000E+00 -0.15775857067E+04  0.15775857067E+04  0.00000000000E+00 0.  1.
         25    2    1    2    0    0 -0.12064330404E+03  0.20255332323E+03 -0.47503017807E+03  0.54487069710E+03  0.12509097059E+03 0.  0.
         23    2    1    2    0    0  0.12064330404E+03 -0.20255332323E+03 -0.10526795575E+04  0.10825909807E+04  0.91029255044E+02 0.  0.
          5    1    3    3  502    0  0.73805595018E+01  0.90637853410E+02 -0.22244308696E+03  0.24034993752E+03  0.41800000000E+01 0.  1.
         -5    1    3    3    0  502 -0.12802386354E+03  0.11191546982E+03 -0.25258709110E+03  0.30452075958E+03  0.41800000000E+01 0.  1.
        -11    1    4    4    0    0  0.85936917199E+02 -0.64026319633E+02 -0.53173763190E+03  0.54242919586E+03  0.00000000000E+00 0. -1.
         11    1    4    4    0    0  0.34706386844E+02 -0.13852700360E+03 -0.52094192557E+03  0.54016178486E+03  0.00000000000E+00 0.  1.
</event>
<event>
 8    1  0.7232317E-009  0.1563498E+03  0.7561462E-02  0.1192881E+00
          2   -1    0    0  501    0  0.00000000000E+00  0.00000000000E+00  0.97362747001E+03  0.97362747001E+03  0.00000000000E+00 0.  1.
         -2   -1    0    0    0  501 -0.00000000000E+00 -0.00000000000E+00 -0.27481669364E+02  0.27481669364E+02  0.00000000000E+00 0. -1.
         25    2    1    2    0    0  0.86881411299E+02 -0.79973803154E+02  0.60084896056E+03  0.62498528646E+03  0.12507176366E+03 0.  0.
         23    2    1    2    0    0 -0.86881411299E+02  0.79973803154E+02  0.34529684009E+03  0.37612385292E+03  0.91077198780E+02 0.  0.
          5    1    3    3  502    0  0.85022445085E+02  0.52542946831E+01  0.33969278189E+03  0.35023575238E+03  0.41800000000E+01 0.  1.
         -5    1    3    3    0  502  0.18589662137E+01 -0.85228097837E+02  0.26115617867E+03  0.27474953408E+03  0.41800000000E+01 0.  1.
        -11    1    4    4    0    0 -0.29666638615E+02 -0.13400204541E+02  0.13677605909E+03  0.14059646251E+03  0.00000000000E+00 0.  1.
         11    1    4    4    0    0 -0.57214772684E+02  0.93374007695E+02  0.20852078100E+03  0.23552739041E+03  0.00000000000E+00 0. -1.
</event>
<event>
 8    1  0.7232317E-009  0.8390805E+02  0.7561462E-02  0.1318313E+00
          1   -1    0    0  501    0  0.00000000000E+00  0.00000000000E+00  0.10327893438E+03  0.10327893438E+03  0.00000000000E+00 0. -1.
         -1   -1    0    0    0  501 -0.00000000000E+00 -0.00000000000E+00 -0.13831958501E+03  0.13831958501E+03  0.00000000000E+00 0.  1.
         25    2    1    2    0    0  0.23413007742E+02  0.33934291272E+02 -0.50815854206E+02  0.14117203607E+03  0.12509031807E+03 0.  0.
         23    2    1    2    0    0 -0.23413007742E+02 -0.33934291272E+02  0.15775203580E+02  0.10042648332E+03  0.90204858236E+02 0.  0.
          5    1    3    3  502    0  0.47645241425E+02  0.20351061307E+02  0.26906054359E+02  0.58528991858E+02  0.41800000000E+01 0.  1.
         -5    1    3    3    0  502 -0.24232233683E+02  0.13583229966E+02 -0.77721908565E+02  0.82643044212E+02  0.41800000000E+01 0.  1.
        -11    1    4    4    0    0 -0.18852780406E+02 -0.59170295312E+02 -0.11314695200E+02  0.63123478230E+02  0.00000000000E+00 0.  1.
         11    1    4    4    0    0 -0.45602273358E+01  0.25236004040E+02  0.27089898779E+02  0.37303005095E+02  0.00000000000E+00 0. -1.
</event>
<event>
 8    1  0.7232317E-009  0.1034448E+03  0.7561462E-02  0.1273214E+00
          2   -1    0    0  501    0  0.00000000000E+00  0.00000000000E+00  0.97171261308E+03  0.97171261308E+03  0.00000000000E+00 0. -1.
         -2   -1    0    0    0  501 -0.00000000000E+00 -0.00000000000E+00 -0.12762888171E+02  0.12762888171E+02  0.00000000000E+00 0.  1.
         25    2    1    2    0    0  0.22988340021E+02  0.11574512209E+02  0.60776272399E+03  0.62103940587E+03  0.12510788088E+03 0.  0.
         23    2    1    2    0    0 -0.22988340021E+02 -0.11574512209E+02  0.35118700091E+03  0.36343609538E+03  0.89950279062E+02 0.  0.
          5    1    3    3  502    0  0.68415929316E+02  0.16282941185E+02  0.48306766803E+03  0.48817795715E+03  0.41800000000E+01 0.  1.
         -5    1    3    3    0  502 -0.45427589295E+02 -0.47084289755E+01  0.12469505596E+03  0.13286144871E+03  0.41800000000E+01 0.  1.
        -11    1    4    4    0    0  0.13291920395E+01  0.36593975432E+02  0.18881952209E+03  0.19233745790E+03  0.00000000000E+00 0. -1.
         11    1    4    4    0    0 -0.24317532061E+02 -0.48168487642E+02  0.16236747883E+03  0.17109863748E+03  0.00000000000E+00 0.  1.
</event>
<event>
 8    1  0.7232317E-009  0.9892361E+02  0.7561462E-02  0.1282576E+00
          2   -1    0    0  501    0  0.00000000000E+00  0.00000000000E+00  0.41891216572E+02  0.41891216572E+02  0.00000000000E+00 0. -1.
         -2   -1    0    0    0  501 -0.00000000000E+00 -0.00000000000E+00 -0.29146979735E+03  0.29146979735E+03  0.00000000000E+00 0.  1.
         25    2    1    2    0    0 -0.10922333533E+02  0.74272336451E+01 -0.18301039897E+03  0.22207224730E+03  0.12509522661E+03 0.  0.
         23    2    1    2    0    0  0.10922333533E+02 -0.74272336451E+01 -0.66568181803E+02  0.11128876662E+03  0.88200938643E+02 0.  0.
          5    1    3    3  502    0 -0.65366670365E+02  0.65483739042E+01 -0.13123333231E+03  0.14681737876E+03  0.41800000000E+01 0.  1.
         -5    1    3    3    0  502  0.54444336832E+02  0.87885974083E+00 -0.51777066657E+02  0.75254868541E+02  0.41800000000E+01 0.  1.
        -11    1    4    4    0    0  0.42645392692E+02 -0.14244663981E+02 -0.64698921553E+02  0.78787628597E+02  0.00000000000E+00 0.  1.
         11    1    4    4    0    0 -0.31723059159E+02  0.68174303363E+01 -0.18692602499E+01  0.32501138021E+02  0.00000000000E+00 0. -1.
</event>
<event>
 8    1  0.7232317E-009  0.1212224E+03  0.7561462E-02  0.1241094E+00
          2   -1    0    0  501    0  0.00000000000E+00  0.00000000000E+00  0.54073737229E+02  0.54073737229E+02  0.00000000000E+00 0. -1.
         -2   -1    0    0    0  501 -0.00000000000E+00 -0.00000000000E+00 -0.37607063304E+03  0.37607063304E+03  0.00000000000E+00 0.  1.
         25    2    1    2    0    0 -0.46499016265E+02 -0.48296901635E+02 -0.22715403227E+03  0.26784657260E+03  0.12509229735E+03 0.  0.
         23    2    1    2    0    0  0.46499016265E+02  0.48296901635E+02 -0.94842863537E+02  0.16229779766E+03  0.11336073898E+03 0.  0.
          5    1    3    3  502    0  0.12562590835E+02  0.29110336994E+02 -0.11453013766E+03  0.11891112329E+03  0.41800000000E+01 0. -1.
         -5    1    3    3    0  502 -0.59061607100E+02 -0.77407238629E+02 -0.11262389460E+03  0.14893544931E+03  0.41800000000E+01 0. -1.
        -11    1    4    4    0    0  0.12116857856E+02  0.70857617024E+02 -0.16406026742E+02  0.73734509208E+02  0.00000000000E+00 0. -1.
         11    1    4    4    0    0  0.34382158410E+02 -0.22560715389E+02 -0.78436836795E+02  0.88563288457E+02  0.00000000000E+00 0.  1.
</event>
<event>
 8    1  0.7232317E-009  0.7973281E+02  0.7561462E-02  0.1329811E+00
         -1   -1    0    0    0  501 -0.00000000000E+00  0.00000000000E+00  0.91289384721E+02  0.91289384721E+02  0.00000000000E+00 0.  1.
          1   -1    0    0  501    0  0.00000000000E+00 -0.00000000000E+00 -0.16002225043E+03  0.16002225043E+03  0.00000000000E+00 0. -1.
         25    2    1    2    0    0 -0.37807602383E+02 -0.36231905939E+02 -0.20521279299E+02  0.13714881584E+03  0.12508600631E+03 0.  0.
         23    2    1    2    0    0  0.37807602383E+02  0.36231905939E+02 -0.48211586406E+02  0.11416281931E+03  0.89255960266E+02 0.  0.
          5    1    3    3  502    0 -0.64350260551E+02 -0.84767894953E+01  0.31569014721E+02  0.72297213525E+02  0.41800000000E+01 0. -1.
         -5    1    3    3    0  502  0.26542658167E+02 -0.27755116443E+02 -0.52090294019E+02  0.64851602312E+02  0.41800000000E+01 0. -1.
        -11    1    4    4    0    0  0.18055273286E+02  0.48189770320E+01 -0.69098776765E+02  0.71581117507E+02  0.00000000000E+00 0. -1.
         11    1    4    4    0    0  0.19752329097E+02  0.31412928907E+02  0.20887190360E+02  0.42581701802E+02  0.00000000000E+00 0.  1.
</event>
<event>
 8    1  0.7232317E-009  0.1094841E+03  0.7561462E-02  0.1261528E+00
          1   -1    0    0  501    0  0.00000000000E+00  0.00000000000E+00  0.28939067774E+03  0.28939067774E+03  0.00000000000E+00 0. -1.
         -1   -1    0    0    0  501 -0.00000000000E+00 -0.00000000000E+00 -0.87593455142E+02  0.87593455142E+02  0.00000000000E+00 0.  1.
         25    2    1    2    0    0  0.52182472040E+02 -0.49477868549E+02 -0.25008506129E+01  0.14431836908E+03  0.12510182867E+03 0.  0.
         23    2    1    2    0    0 -0.52182472040E+02  0.49477868549E+02  0.20429807321E+03  0.23266576380E+03  0.84997559157E+02 0.  0.
          5    1    3    3  502    0  0.65093371455E+02 -0.62577154973E+02  0.39219389020E+02  0.98532635239E+02  0.41800000000E+01 0. -1.
         -5    1    3    3    0  502 -0.12910899415E+02  0.13099286424E+02 -0.41720239633E+02  0.45785733843E+02  0.41800000000E+01 0. -1.
        -11    1    4    4    0    0 -0.71677945571E+02  0.20073479972E+02  0.11904175442E+03  0.14039804762E+03  0.00000000000E+00 0. -1.
         11    1    4    4    0    0  0.19495473531E+02  0.29404388577E+02  0.85256318789E+02  0.92267716181E+02  0.00000000000E+00 0.  1.
</event>
<event>
 8    1  0.7232317E-009  0.2863008E+03  0.7561462E-02  0.1092296E+00
          2   -1    0    0  501    0  0.00000000000E+00  0.00000000000E+00  0.10701461460E+04  0.10701461460E+04  0.00000000000E+00 0.  1.
         -2   -1    0    0    0  501 -0.00000000000E+00 -0.00000000000E+00 -0.82809155239E+02  0.82809155239E+02  0.00000000000E+00 0. -1.
         25    2    1    2    0    0  0.14524453537E+03  0.22454122628E+03  0.36591231497E+03  0.47016557692E+03  0.12509640331E+03 0.  0.
         23    2    1    2    0    0 -0.14524453537E+03 -0.22454122628E+03  0.62142467580E+03  0.68278972433E+03  0.92295409402E+02 0.  0.
          5    1    3    3  502    0  0.86548352908E+02  0.21953905473E+03  0.29871786874E+03  0.38070704150E+03  0.41800000000E+01 0. -1.
         -5    1    3    3    0  502  0.58696182460E+02  0.50021715513E+01  0.67194446228E+02  0.89458535420E+02  0.41800000000E+01 0. -1.
        -11    1    4    4    0    0 -0.16129198538E+02 -0.88533895868E+02  0.26779898496E+03  0.28251495201E+03  0.00000000000E+00 0.  1.
         11    1    4    4    0    0 -0.12911533683E+03 -0.13600733042E+03  0.35362569085E+03  0.40027477232E+03  0.00000000000E+00 0. -1.
</event>
<event>
 8    1  0.7232317E-009  0.8709336E+02  0.7561462E-02  0.1310047E+00
          2   -1    0    0  501    0  0.00000000000E+00  0.00000000000E+00  0.75305201331E+03  0.75305201331E+03  0.00000000000E+00 0.  1.
         -2   -1    0    0    0  501 -0.00000000000E+00 -0.00000000000E+00 -0.16896391895E+02  0.16896391895E+02  0.00000000000E+00 0. -1.
         25    2    1    2    0    0 -0.25310149135E+02 -0.21867589602E+02  0.40416651705E+03  0.42440258321E+03  0.12509270166E+03 0.  0.
         23    2    1    2    0    0  0.25310149135E+02  0.21867589602E+02  0.33198910436E+03  0.34554582199E+03  0.89812886359E+02 0.  0.
          5    1    3    3  502    0  0.14483549351E+02  0.28280766030E+02  0.27254739875E+02  0.42069801220E+02  0.41800000000E+01 0. -1.
         -5    1    3    3    0  502 -0.39793698486E+02 -0.50148355632E+02  0.37691177717E+03  0.38233278199E+03  0.41800000000E+01 0. -1.
        -11    1    4    4    0    0  0.44443615751E+02  0.33443796287E+02  0.30705647292E+03  0.31205352114E+03  0.00000000000E+00 0.  1.
         11    1    4    4    0    0 -0.19133466616E+02 -0.11576206685E+02  0.24932631441E+02  0.33492300855E+02  0.00000000000E+00 0. -1.
</event>
<event>
 8    1  0.7232317E-009  0.1319192E+03  0.7561462E-02  0.1224636E+00
          1   -1    0    0  501    0  0.00000000000E+00  0.00000000000E+00  0.27993488571E+03  0.27993488571E+03  0.00000000000E+00 0. -1.
         -1   -1    0    0    0  501 -0.00000000000E+00 -0.00000000000E+00 -0.87481481595E+02  0.87481481595E+02  0.00000000000E+00 0.  1.
         25    2    1    2    0    0 -0.69880417694E+02  0.86150326078E+02  0.13091931860E+03  0.21234741190E+03  0.12508558629E+03 0.  0.
         23    2    1    2    0    0  0.69880417694E+02 -0.86150326078E+02  0.61534085518E+02  0.15506895541E+03  0.89189605847E+02 0.  0.
          5    1    3    3  502    0  0.16365481048E+02 -0.93743912994E+01  0.64758539674E+02  0.67578465823E+02  0.41800000000E+01 0.  1.
         -5    1    3    3    0  502 -0.86245898742E+02  0.95524717377E+02  0.66160778927E+02  0.14476894608E+03  0.41800000000E+01 0.  1.
        -11    1    4    4    0    0  0.52029061240E+02 -0.38078847474E+02 -0.11838860768E+02  0.65552882948E+02  0.00000000000E+00 0.  1.
         11    1    4    4    0    0  0.17851356454E+02 -0.48071478604E+02  0.73372946287E+02  0.89516072463E+02  0.00000000000E+00 0. -1.
</event>
<event>
 8    1  0.7232317E-009  0.2000812E+03  0.7561462E-02  0.1149671E+00
          1   -1    0    0  501    0  0.00000000000E+00  0.00000000000E+00  0.24122338946E+03  0.24122338946E+03  0.00000000000E+00 0. -1.
         -1   -1    0    0    0  501 -0.00000000000E+00 -0.00000000000E+00 -0.19912526351E+03  0.19912526351E+03  0.00000000000E+00 0.  1.
         25    2    1    2    0    0  0.17189759158E+03  0.35243053443E+01 -0.59434700615E+02  0.22077769830E+03  0.12509638568E+03 0.  0.
         23    2    1    2    0    0 -0.17189759158E+03 -0.35243053443E+01  0.10153282657E+03  0.21957095466E+03  0.91330644031E+02 0.  0.
          5    1    3    3  502    0  0.11913509080E+02  0.40979223141E+02 -0.33426795521E+02  0.54369582367E+02  0.41800000000E+01 0. -1.
         -5    1    3    3    0  502  0.15998408250E+03 -0.37454917797E+02 -0.26007905094E+02  0.16640811594E+03  0.41800000000E+01 0. -1.
        -11    1    4    4    0    0  0.60041551809E+01 -0.13461811547E+02  0.16552115678E+02  0.22163997450E+02  0.00000000000E+00 0. -1.
         11    1    4    4    0    0 -0.17790174676E+03  0.99375062026E+01  0.84980710887E+02  0.19740695721E+03  0.00000000000E+00 0.  1.
</event>
<event>
 8    1  0.7232317E-009  0.1494041E+03  0.7561462E-02  0.1201207E+00
          1   -1    0    0  501    0  0.00000000000E+00  0.00000000000E+00  0.49678524137E+03  0.49678524137E+03  0.00000000000E+00 0. -1.
         -1   -1    0    0    0  501 -0.00000000000E+00 -0.00000000000E+00 -0.69319777381E+02  0.69319777381E+02  0.00000000000E+00 0.  1.
         25    2    1    2    0    0  0.12118726448E+03 -0.53738976003E+02  0.11570111054E+03  0.21589384720E+03  0.12509666528E+03 0.  0.
         23    2    1    2    0    0 -0.12118726448E+03  0.53738976003E+02  0.31176435345E+03  0.35021117155E+03  0.88750335131E+02 0.  0.
          5    1    3    3  502    0  0.11382967838E+03 -0.61306618837E+02  0.34466372422E+02  0.13386971436E+03  0.41800000000E+01 0.  1.
         -5    1    3    3    0  502  0.73575860975E+01  0.75676428339E+01  0.81234738121E+02  0.82024132844E+02  0.41800000000E+01 0.  1.
        -11    1    4    4    0    0 -0.94824108559E+02 -0.37029241005E+01  0.16361287663E+03  0.18914147247E+03  0.00000000000E+00 0.  1.
         11    1    4    4    0    0 -0.26363155920E+02  0.57441900104E+02  0.14815147682E+03  0.16106969908E+03  0.00000000000E+00 0. -1.
</event>
<event>
 8    1  0.7232317E-009  0.1902112E+03  0.7561462E-02  0.1158271E+00
          2   -1    0    0  501    0  0.00000000000E+00  0.00000000000E+00  0.17552186588E+04  0.17552186588E+04  0.00000000000E+00 0. -1.
         -2   -1    0    0    0  501 -0.00000000000E+00 -0.00000000000E+00 -0.21132560252E+02  0.21132560252E+02  0.00000000000E+00 0.  1.
         25    2    1    2    0    0 -0.87803368967E+02 -0.12962340474E+03  0.10512088375E+04  0.10701396386E+04  0.12508863815E+03 0.  0.
         23    2    1    2    0    0  0.87803368967E+02  0.12962340474E+03  0.68287726107E+03  0.70621158048E+03  0.88891979718E+02 0.  0.
          5    1    3    3  502    0  0.18474839035E+02 -0.81470208886E+02  0.43990818768E+03  0.44778946012E+03  0.41800000000E+01 0.  1.
         -5    1    3    3    0  502 -0.10627820800E+03 -0.48153195852E+02  0.61130064979E+03  0.62235017843E+03  0.41800000000E+01 0.  1.
        -11    1    4    4    0    0 -0.15514678618E+02  0.41241226208E+02  0.16379772448E+03  0.16962086704E+03  0.00000000000E+00 0.  1.
         11    1    4    4    0    0  0.10331804759E+03  0.88382178530E+02  0.51907953659E+03  0.53659071344E+03  0.00000000000E+00 0. -1.
</event>
<event>
 8    1  0.7232317E-009  0.1417714E+03  0.7561462E-02  0.1210965E+00
         -1   -1    0    0    0  501 -0.00000000000E+00  0.00000000000E+00  0.17353285372E+03  0.17353285372E+03  0.00000000000E+00 0.  1.
          1   -1    0    0  501    0  0.00000000000E+00 -0.00000000000E+00 -0.12131558174E+03  0.12131558174E+03  0.00000000000E+00 0. -1.
         25    2    1    2    0    0  0.15529380797E+02  0.91354111055E+02  0.31155699310E+01  0.15571911440E+03  0.12510795554E+03 0.  0.
         23    2    1    2    0    0 -0.15529380797E+02 -0.91354111055E+02  0.49101702044E+02  0.13912932106E+03  0.91428964560E+02 0.  0.
          5    1    3    3  502    0 -0.26619049398E+02  0.10536881678E+03 -0.99981128218E+01  0.10921811205E+03  0.41800000000E+01 0. -1.
         -5    1    3    3    0  502  0.42148430195E+02 -0.14014705722E+02  0.13113682753E+02  0.46501002352E+02  0.41800000000E+01 0. -1.
        -11    1    4    4    0    0 -0.49769792738E+02 -0.79769885112E+02  0.36118507166E+02  0.10072146444E+03  0.00000000000E+00 0. -1.
         11    1    4    4    0    0  0.34240411941E+02 -0.11584225943E+02  0.12983194877E+02  0.38407856615E+02  0.00000000000E+00 0.  1.
</event>
<event>
 8    1  0.7232317E-009  0.1027280E+03  0.7561462E-02  0.1274662E+00
         -4   -1    0    0    0  501 -0.00000000000E+00  0.00000000000E+00  0.57020561171E+02  0.57020561171E+02  0.00000000000E+00 0.  1.
          4   -1    0    0  501    0  0.00000000000E+00 -0.00000000000E+00 -0.22460472919E+03  0.22460472919E+03  0.00000000000E+00 0. -1.
         25    2    1    2    0    0  0.25506365764E+02 -0.15664682690E+02 -0.11182081853E+03  0.17043182484E+03  0.12508858655E+03 0.  0.
         23    2    1    2    0    0 -0.25506365764E+02  0.15664682690E+02 -0.55763349492E+02  0.11119346552E+03  0.91424715748E+02 0.  0.
          5    1    3    3  502    0 -0.31332394619E+02 -0.39028918034E+02 -0.93557245615E+02  0.10618571468E+03  0.41800000000E+01 0. -1.
         -5    1    3    3    0  502  0.56838760382E+02  0.23364235344E+02 -0.18263572913E+02  0.64246110159E+02  0.41800000000E+01 0. -1.
        -11    1    4    4    0    0 -0.16250909551E+02 -0.36870165224E+02 -0.36830760310E+02  0.54589431669E+02  0.00000000000E+00 0. -1.
         11    1    4    4    0    0 -0.92554562123E+01  0.52534847915E+02 -0.18932589182E+02  0.56604033851E+02  0.00000000000E+00 0.  1.
</event>
<event>
 8    1  0.7232317E-009  0.1213561E+03  0.7561462E-02  0.1240876E+00
         -2   -1    0    0    0  501 -0.00000000000E+00  0.00000000000E+00  0.13244805867E+03  0.13244805867E+03  0.00000000000E+00 0.  1.
          2   -1    0    0  501    0  0.00000000000E+00 -0.00000000000E+00 -0.12450724625E+03  0.12450724625E+03  0.00000000000E+00 0. -1.
         25    2    1    2    0    0  0.67207467413E+02  0.14558172558E+01  0.17968258927E+02  0.14314120961E+03  0.12509030529E+03 0.  0.
         23    2    1    2    0    0 -0.67207467413E+02 -0.14558172558E+01 -0.10027446509E+02  0.11381409532E+03  0.91291486627E+02 0.  0.
          5    1    3    3  502    0  0.41834625261E+02 -0.60933609204E+02  0.34182822949E+01  0.74109362804E+02  0.41800000000E+01 0. -1.
         -5    1    3    3    0  502  0.25372842152E+02  0.62389426460E+02  0.14549976632E+02  0.69031846802E+02  0.41800000000E+01 0. -1.
        -11    1    4    4    0    0  0.16991232379E+02 -0.14695791212E+00  0.18296221753E+02  0.24969487476E+02  0.00000000000E+00 0.  1.
         11    1    4    4    0    0 -0.84198699792E+02 -0.13088593437E+01 -0.28323668262E+02  0.88844607846E+02  0.00000000000E+00 0. -1.
</event>
<event>
 8    1  0.7232317E-009  0.1524713E+03  0.7561462E-02  0.1197469E+00
          2   -1    0    0  501    0  0.00000000000E+00  0.00000000000E+00  0.19492863614E+03  0.19492863614E+03  0.00000000000E+00 0. -1.
         -2   -1    0    0    0  501 -0.00000000000E+00 -0.00000000000E+00 -0.21569583640E+03  0.21569583640E+03  0.00000000000E+00 0.  1.
         25    2    1    2    0    0  0.35997382415E+02  0.13907366507E+03 -0.10938298282E+03  0.21966963605E+03  0.12511121538E+03 0.  0.
         23    2    1    2    0    0 -0.35997382415E+02 -0.13907366507E+03  0.88615782568E+02  0.19095483649E+03  0.89295558707E+02 0.  0.
          5    1    3    3  502    0  0.33303516756E+02  0.14182292966E+03 -0.13182766324E+03  0.19651685119E+03  0.41800000000E+01 0.  1.
         -5    1    3    3    0  502  0.26938656583E+01 -0.27492645920E+01  0.22444680415E+02  0.23152784863E+02  0.41800000000E+01 0.  1.
        -11    1    4    4    0    0 -0.74431564577E+01 -0.11749071168E+03  0.98854323882E+02  0.15372587700E+03  0.00000000000E+00 0. -1.
         11    1    4    4    0    0 -0.28554225957E+02 -0.21582953388E+02 -0.10238541314E+02  0.37228959497E+02  0.00000000000E+00 0.  1.
</event>
<event>
 8    1  0.7232317E-009  0.1269637E+03  0.7561462E-02  0.1232032E+00
          2   -1    0    0  501    0  0.00000000000E+00  0.00000000000E+00  0.34764676643E+03  0.34764676643E+03  0.00000000000E+00 0.  1.
         -2   -1    0    0    0  501 -0.00000000000E+00 -0.00000000000E+00 -0.65333828504E+02  0.65333828504E+02  0.00000000000E+00 0. -1.
         25    2    1    2    0    0  0.25047869973E+02  0.68925301573E+02  0.49691248729E+02  0.15327907556E+03  0.12508861586E+03 0.  0.
         23    2    1    2    0    0 -0.25047869973E+02 -0.68925301573E+02  0.23262168920E+03  0.25970151938E+03  0.89184841160E+02 0.  0.
          5    1    3    3  502    0  0.70631824009E+02  0.67312162100E+02  0.23238734500E+02  0.10038572065E+03  0.41800000000E+01 0. -1.
         -5    1    3    3    0  502 -0.45583954037E+02  0.16131394727E+01  0.26452514229E+02  0.52893354910E+02  0.41800000000E+01 0. -1.
        -11    1    4    4    0    0  0.27477338450E+02 -0.45049006064E+02  0.73798266924E+02  0.90722661318E+02  0.00000000000E+00 0. -1.
         11    1    4    4    0    0 -0.52525208423E+02 -0.23876295510E+02  0.15882342228E+03  0.16897885806E+03  0.00000000000E+00 0.  1.
</event>
<event>
 8    1  0.7232317E-009  0.1457893E+03  0.7561462E-02  0.1205745E+00
         -2   -1    0    0    0  501 -0.00000000000E+00  0.00000000000E+00  0.26909219362E+02  0.26909219362E+02  0.00000000000E+00 0.  1.
          2   -1    0    0  501    0  0.00000000000E+00 -0.00000000000E+00 -0.84215399129E+03  0.84215399129E+03  0.00000000000E+00 0. -1.
         25    2    1    2    0    0  0.95840054950E+00  0.10287518616E+03 -0.46751479169E+03  0.49477442721E+03  0.12508969144E+03 0.  0.
         23    2    1    2    0    0 -0.95840054950E+00 -0.10287518616E+03 -0.34772998023E+03  0.37428878345E+03  0.92691595099E+02 0.  0.
          5    1    3    3  502    0 -0.54260220064E+02  0.23939121052E+02 -0.24780379844E+03  0.25483611973E+03  0.41800000000E+01 0.  1.
         -5    1    3    3    0  502  0.55218620613E+02  0.78936065107E+02 -0.21971099326E+03  0.23993830748E+03  0.41800000000E+01 0.  1.
        -11    1    4    4    0    0 -0.44574757343E+02 -0.46361981040E+02 -0.12792928727E+03  0.14318604967E+03  0.00000000000E+00 0.  1.
         11    1    4    4    0    0  0.43616356793E+02 -0.56513205119E+02 -0.21980069296E+03  0.23110273378E+03  0.00000000000E+00 0. -1.
</event>
<event>
 8    1  0.7232317E-009  0.1766556E+03  0.7561462E-02  0.1171080E+00
         -2   -1    0    0    0  501 -0.00000000000E+00  0.00000000000E+00  0.37117038304E+02  0.37117038304E+02  0.00000000000E+00 0.  1.
          2   -1    0    0  501    0  0.00000000000E+00 -0.00000000000E+00 -0.10054388160E+04  0.10054388160E+04  0.00000000000E+00 0. -1.
         25    2    1    2    0    0 -0.88273135608E+02  0.13304651401E+03 -0.48922438546E+03  0.52960513277E+03  0.12509027129E+03 0.  0.
         23    2    1    2    0    0  0.88273135608E+02 -0.13304651401E+03 -0.47909739227E+03  0.51295072156E+03  0.89947818840E+02 0.  0.
          5    1    3    3  502    0 -0.95939677898E+02  0.46586414707E+02 -0.34590950006E+03  0.36200216914E+03  0.41800000000E+01 0. -1.
         -5    1    3    3    0  502  0.76665422906E+01  0.86460099299E+02 -0.14331488540E+03  0.16760296363E+03  0.41800000000E+01 0. -1.
        -11    1    4    4    0    0  0.50973850098E+02 -0.78442142369E+02 -0.14633942168E+03  0.17368572028E+03  0.00000000000E+00 0.  1.
         11    1    4    4    0    0  0.37299285509E+02 -0.54604371636E+02 -0.33275797059E+03  0.33926500128E+03  0.00000000000E+00 0. -1.
</event>
<event>
 8    1  0.7232317E-009  0.9407722E+02  0.7561462E-02  0.1293268E+00
         -1   -1    0    0    0  501 -0.00000000000E+00  0.00000000000E+00  0.26310267657E+02  0.26310267657E+02  0.00000000000E+00 0.  1.
          1   -1    0    0  501    0  0.00000000000E+00 -0.00000000000E+00 -0.65747681965E+03  0.65747681965E+03  0.00000000000E+00 0. -1.
         25    2    1    2    0    0 -0.25338265236E+02 -0.47302561895E+02 -0.46312201804E+03  0.48271036879E+03  0.12509091294E+03 0.  0.
         23    2    1    2    0    0  0.25338265236E+02  0.47302561895E+02 -0.16804453396E+03  0.20107671852E+03  0.96505550568E+02 0.  0.
          5    1    3    3  502    0 -0.65195989040E+02 -0.23046848334E+02 -0.13991387088E+03  0.15612507124E+03  0.41800000000E+01 0. -1.
         -5    1    3    3    0  502  0.39857723803E+02 -0.24255713561E+02 -0.32320814715E+03  0.32658529755E+03  0.41800000000E+01 0. -1.
        -11    1    4    4    0    0  0.94039218735E+01 -0.93030396185E+01  0.80076555554E+01  0.15462950567E+02  0.00000000000E+00 0.  1.
         11    1    4    4    0    0  0.15934343363E+02  0.56605601514E+02 -0.17605218951E+03  0.18561376795E+03  0.00000000000E+00 0. -1.
</event>
<event>
 8    1  0.7232317E-009  0.1034022E+03  0.7561462E-02  0.1273300E+00
          1   -1    0    0  501    0  0.00000000000E+00  0.00000000000E+00  0.21791568393E+03  0.21791568393E+03  0.00000000000E+00 0. -1.
         -1   -1    0    0    0  501 -0.00000000000E+00 -0.00000000000E+00 -0.89816515161E+02  0.89816515161E+02  0.00000000000E+00 0.  1.
         25    2    1    2    0    0 -0.22997133848E+02  0.73391357838E+02  0.11603585477E+03  0.18715146729E+03  0.12508474145E+03 0.  0.
         23    2    1    2    0    0  0.22997133848E+02 -0.73391357838E+02  0.12063313998E+02  0.12058073181E+03  0.92081647291E+02 0.  0.
          5    1    3    3  502    0 -0.54417003367E+02  0.12589291437E+02  0.44562986599E+01  0.56187467571E+02  0.41800000000E+01 0. -1.
         -5    1    3    3    0  502  0.31419869519E+02  0.60802066401E+02  0.11157955611E+03  0.13096399972E+03  0.41800000000E+01 0. -1.
        -11    1    4    4    0    0  0.16231258804E+01 -0.51865350027E+02  0.49964018774E+02  0.72035076477E+02  0.00000000000E+00 0. -1.
         11    1    4    4    0    0  0.21374007968E+02 -0.21526007812E+02 -0.37900704776E+02  0.48545655330E+02  0.00000000000E+00 0.  1.
</event>
<event>
 8    1  0.7232317E-009  0.1308243E+03  0.7561462E-02  0.1226238E+00
         -4   -1    0    0    0  501 -0.00000000000E+00  0.00000000000E+00  0.62813348222E+02  0.62813348222E+02  0.00000000000E+00 0.  1.
          4   -1    0    0  501    0  0.00000000000E+00 -0.00000000000E+00 -0.34304572589E+03  0.34304572589E+03  0.00000000000E+00 0. -1.
         25    2    1    2    0    0 -0.18873275305E+02  0.10189567064E+03 -0.15434897469E+03  0.22408074045E+03  0.12509853731E+03 0.  0.
         23    2    1    2    0    0  0.18873275305E+02 -0.10189567064E+03 -0.12588340299E+03  0.18177833367E+03  0.80360458115E+02 0.  0.
          5    1    3    3  502    0  0.12803340503E+02 -0.23563584709E+02 -0.53435145488E+02  0.59932922719E+02  0.41800000000E+01 0. -1.
         -5    1    3    3    0  502 -0.31676615808E+02  0.12545925535E+03 -0.10091382920E+03  0.16414781773E+03  0.41800000000E+01 0. -1.
        -11    1    4    4    0    0  0.16567061992E+02 -0.42673327785E+02 -0.36346841841E+01  0.45920489723E+02  0.00000000000E+00 0.  1.
         11    1    4    4    0    0  0.23062133132E+01 -0.59222342854E+02 -0.12224871880E+03  0.13585784395E+03  0.00000000000E+00 0. -1.
</event>
<event>
 8    1  0.7232317E-009  0.1057320E+03  0.7561462E-02  0.1268684E+00
          1   -1    0    0  501    0  0.00000000000E+00  0.00000000000E+00  0.30972668571E+02  0.30972668571E+02  0.00000000000E+00 0. -1.
         -1   -1    0    0    0  501 -0.00000000000E+00 -0.00000000000E+00 -0.48035449781E+03  0.48035449781E+03  0.00000000000E+00 0.  1.
         25    2    1    2    0    0  0.40096112067E+02 -0.29956427608E+02 -0.23015507528E+03  0.26668870054E+03  0.12508564491E+03 0.  0.
         23    2    1    2    0    0 -0.40096112067E+02  0.29956427608E+02 -0.21922675396E+03  0.24463846584E+03  0.96345853878E+02 0.  0.
          5    1    3    3  502    0  0.19110876409E+02  0.33068751550E+02 -0.14617725014E+02  0.41108614800E+02  0.41800000000E+01 0. -1.
         -5    1    3    3    0  502  0.20985235658E+02 -0.63025179158E+02 -0.21553735027E+03  0.22558008574E+03  0.41800000000E+01 0. -1.
        -11    1    4    4    0    0  0.22749973688E+02  0.36801887089E+02 -0.11331885843E+03  0.12129758395E+03  0.00000000000E+00 0.  1.
         11    1    4    4    0    0 -0.62846085755E+02 -0.68454594810E+01 -0.10590789553E+03  0.12334088189E+03  0.00000000000E+00 0. -1.
</event>
<event>
 8    1  0.7232317E-009  0.8945246E+02  0.7561462E-02  0.1304183E+00
         -1   -1    0    0    0  501 -0.00000000000E+00  0.00000000000E+00  0.15584010063E+03  0.15584010063E+03  0.00000000000E+00 0.  1.
          1   -1    0    0  501    0  0.00000000000E+00 -0.00000000000E+00 -0.75192836776E+02  0.75192836776E+02  0.00000000000E+00 0. -1.
         25    2    1    2    0    0  0.13076620540E+02 -0.28473167959E+02  0.80693837077E+01  0.12920957570E+03  0.12509308615E+03 0.  0.
         23    2    1    2    0    0 -0.13076620540E+02  0.28473167959E+02  0.72577880146E+02  0.10182336170E+03  0.64177324684E+02 0.  0.
          5    1    3    3  502    0 -0.31303945882E+02  0.28090953634E+02  0.32330912354E+02  0.53214650215E+02  0.41800000000E+01 0.  1.
         -5    1    3    3    0  502  0.44380566422E+02 -0.56564121593E+02 -0.24261528646E+02  0.75994925487E+02  0.41800000000E+01 0.  1.
        -11    1    4    4    0    0  0.19856780600E+02 -0.17321832167E+01  0.45732000787E+01  0.20450094217E+02  0.00000000000E+00 0. -1.
         11    1    4    4    0    0 -0.32933401140E+02  0.30205351176E+02  0.68004680067E+02  0.81373267486E+02  0.00000000000E+00 0.  1.
</event>
<event>
 8    1  0.7232317E-009  0.5929277E+02  0.7561462E-02  0.1400824E+00
         -1   -1    0    0    0  501 -0.00000000000E+00  0.00000000000E+00  0.62758270744E+02  0.62758270744E+02  0.00000000000E+00 0.  1.
          1   -1    0    0  501    0  0.00000000000E+00 -0.00000000000E+00 -0.19531801954E+03  0.19531801954E+03  0.00000000000E+00 0. -1.
         25    2    1    2    0    0  0.10614817589E+01  0.16935593229E+02 -0.91344157606E+02  0.15581599921E+03  0.12508768693E+03 0.  0.
         23    2    1    2    0    0 -0.10614817589E+01 -0.16935593229E+02 -0.41215591186E+02  0.10226029107E+03  0.92035325340E+02 0.  0.
          5    1    3    3  502    0 -0.28224833170E+02  0.70073481419E+01  0.22986075140E+02  0.37303836073E+02  0.41800000000E+01 0. -1.
         -5    1    3    3    0  502  0.29286314929E+02  0.99282450869E+01 -0.11433023275E+03  0.11851216314E+03  0.41800000000E+01 0. -1.
        -11    1    4    4    0    0 -0.12055935530E+02 -0.34908301360E+02 -0.62318823433E+02  0.72440118991E+02  0.00000000000E+00 0. -1.
         11    1    4    4    0    0  0.10994453771E+02  0.17972708131E+02  0.21103232247E+02  0.29820172075E+02  0.00000000000E+00 0.  1.
</event>
<event>
 8    1  0.7232317E-009  0.1088251E+03  0.7561462E-02  0.1262761E+00
          2   -1    0    0  501    0  0.00000000000E+00  0.00000000000E+00  0.14770351034E+04  0.14770351034E+04  0.00000000000E+00 0. -1.
         -2   -1    0    0    0  501 -0.00000000000E+00 -0.00000000000E+00 -0.20283853458E+02  0.20283853458E+02  0.00000000000E+00 0.  1.
         25    2    1    2    0    0  0.69496799294E+02  0.51274896851E+02  0.12070892504E+04  0.12166226211E+04  0.12508886342E+03 0.  0.
         23    2    1    2    0    0 -0.69496799294E+02 -0.51274896851E+02  0.24966199959E+03  0.28069633574E+03  0.94870431099E+02 0.  0.
          5    1    3    3  502    0  0.73062130745E+02  0.40547783908E+02  0.36574495853E+03  0.37519201060E+03  0.41800000000E+01 0.  1.
         -5    1    3    3    0  502 -0.35653314512E+01  0.10727112944E+02  0.84134429184E+03  0.84143061054E+03  0.41800000000E+01 0.  1.
        -11    1    4    4    0    0 -0.75000836530E+02 -0.48214649802E+01  0.19363338304E+03  0.20770714729E+03  0.00000000000E+00 0.  1.
         11    1    4    4    0    0  0.55040372360E+01 -0.46453431871E+02  0.56028616549E+02  0.72989188452E+02  0.00000000000E+00 0. -1.
</event>
<event>
 8    1  0.7232317E-009  0.1253865E+03  0.7561462E-02  0.1234466E+00
          1   -1    0    0  501    0  0.00000000000E+00  0.00000000000E+00  0.89090353694E+02  0.89090353694E+02  0.00000000000E+00 0. -1.
         -1   -1    0    0    0  501 -0.00000000000E+00 -0.00000000000E+00 -0.21082763508E+03  0.21082763508E+03  0.00000000000E+00 0.  1.
         25    2    1    2    0    0  0.65069444278E+02  0.43706989898E+02 -0.35185165045E+02  0.15175622672E+03  0.12509045913E+03 0.  0.
         23    2    1    2    0    0 -0.65069444278E+02 -0.43706989898E+02 -0.86552116340E+02  0.14816176205E+03  0.91193779101E+02 0.  0.
          5    1    3    3  502    0  0.70687928290E+02 -0.16112656233E+02 -0.51889328320E+02  0.89254555572E+02  0.41800000000E+01 0.  1.
         -5    1    3    3    0  502 -0.56184840123E+01  0.59819646131E+02  0.16704163276E+02  0.62501671151E+02  0.41800000000E+01 0.  1.
        -11    1    4    4    0    0 -0.87076002919E+02 -0.30527773637E+02 -0.54708070181E+02  0.10727137638E+03  0.00000000000E+00 0. -1.
         11    1    4    4    0    0  0.22006558642E+02 -0.13179216261E+02 -0.31844046159E+02  0.40890385671E+02  0.00000000000E+00 0.  1.
</event>
<event>
 8    1  0.7232317E-009  0.1228484E+03  0.7561462E-02  0.1238471E+00
         -1   -1    0    0    0  501 -0.00000000000E+00  0.00000000000E+00  0.11442962287E+03  0.11442962287E+03  0.00000000000E+00 0.  1.
          1   -1    0    0  501    0  0.00000000000E+00 -0.00000000000E+00 -0.19554491788E+03  0.19554491788E+03  0.00000000000E+00 0. -1.
         25    2    1    2    0    0 -0.10509687409E+03 -0.70479059620E+01 -0.51292118524E+02  0.17137980234E+03  0.12508049131E+03 0.  0.
         23    2    1    2    0    0  0.10509687409E+03  0.70479059620E+01 -0.29823176481E+02  0.13859473841E+03  0.84994433578E+02 0.  0.
          5    1    3    3  502    0 -0.77917130561E+02  0.90712154812E+01 -0.91159278940E+02  0.12033641478E+03  0.41800000000E+01 0.  1.
         -5    1    3    3    0  502 -0.27179743524E+02 -0.16119121443E+02  0.39867160416E+02  0.51043387562E+02  0.41800000000E+01 0.  1.
        -11    1    4    4    0    0 -0.14944844407E+02  0.23900941812E+01 -0.18363738130E+01  0.15245759848E+02  0.00000000000E+00 0.  1.
         11    1    4    4    0    0  0.12004171849E+03  0.46578117808E+01 -0.27986802668E+02  0.12334897856E+03  0.00000000000E+00 0. -1.
</event>
<event>
 8    1  0.7232317E-009  0.1301062E+03  0.7561462E-02  0.1227298E+00
          1   -1    0    0  501    0  0.00000000000E+00  0.00000000000E+00  0.31251999565E+03  0.31251999565E+03  0.00000000000E+00 0. -1.
         -1   -1    0    0    0  501 -0.00000000000E+00 -0.00000000000E+00 -0.77203008517E+02  0.77203008517E+02  0.00000000000E+00 0.  1.
         25    2    1    2    0    0 -0.72885619228E+02  0.72268921876E+02  0.73977455969E+02  0.17791928790E+03  0.12508996145E+03 0.  0.
         23    2    1    2    0    0  0.72885619228E+02 -0.72268921876E+02  0.16133953116E+03  0.21180371627E+03  0.91078314378E+02 0.  0.
          5    1    3    3  502    0 -0.71322916736E+02 -0.50927382428E+01  0.70269642542E+02  0.10034036824E+03  0.41800000000E+01 0.  1.
         -5    1    3    3    0  502 -0.15627024912E+01  0.77361660119E+02  0.37078134273E+01  0.77578919661E+02  0.41800000000E+01 0.  1.
        -11    1    4    4    0    0  0.19257912265E+02 -0.48978641199E+02  0.13999835594E+03  0.14956374609E+03  0.00000000000E+00 0. -1.
         11    1    4    4    0    0  0.53627706962E+02 -0.23290280677E+02  0.21341175223E+02  0.62239970180E+02  0.00000000000E+00 0.  1.
</event>
<event>
 8    1  0.7232317E-009  0.1062825E+03  0.7561462E-02  0.1267613E+00
          1   -1    0    0  501    0  0.00000000000E+00  0.00000000000E+00  0.34363896888E+03  0.34363896888E+03  0.00000000000E+00 0. -1.
         -1   -1    0    0    0  501 -0.00000000000E+00 -0.00000000000E+00 -0.42562953125E+02  0.42562953125E+02  0.00000000000E+00 0.  1.
         25    2    1    2    0    0  0.35375546357E+02  0.59455978153E+02  0.19986152141E+03  0.24572088301E+03  0.12509069504E+03 0.  0.
         23    2    1    2    0    0 -0.35375546357E+02 -0.59455978153E+02  0.10121449434E+03  0.14048103899E+03  0.68586484339E+02 0.  0.
          5    1    3    3  502    0 -0.42364066763E+02 -0.35282343704E+01  0.55762736537E+02  0.70243275668E+02  0.41800000000E+01 0.  1.
         -5    1    3    3    0  502  0.77739613120E+02  0.62984212523E+02  0.14409878487E+03  0.17547760734E+03  0.41800000000E+01 0.  1.
        -11    1    4    4    0    0 -0.31014261071E+02 -0.45319718385E+02  0.20809556507E+02  0.58726475344E+02  0.00000000000E+00 0.  1.
         11    1    4    4    0    0 -0.43612852853E+01 -0.14136259768E+02  0.80404937833E+02  0.81754563649E+02  0.00000000000E+00 0. -1.
</event>
<event>
 8    1  0.7232317E-009  0.1692955E+03  0.7561462E-02  0.1178585E+00
          2   -1    0    0  501    0  0.00000000000E+00  0.00000000000E+00  0.10964639537E+04  0.10964639537E+04  0.00000000000E+00 0. -1.
         -2   -1    0    0    0  501 -0.00000000000E+00 -0.00000000000E+00 -0.39254947507E+02  0.39254947507E+02  0.00000000000E+00 0.  1.
         25    2    1    2    0    0  0.15542166444E+03 -0.41844690817E+02  0.75227410825E+03  0.77940452235E+03  0.12509277995E+03 0.  0.
         23    2    1    2    0    0 -0.15542166444E+03  0.41844690817E+02  0.30493489793E+03  0.35631437884E+03  0.89820780816E+02 0.  0.
          5    1    3    3  502    0  0.14023497810E+03 -0.30734448510E+02  0.37384337168E+03  0.40048320110E+03  0.41800000000E+01 0. -1.
         -5    1    3    3    0  502  0.15186686341E+02 -0.11110242307E+02  0.37843073657E+03  0.37892132126E+03  0.41800000000E+01 0. -1.
        -11    1    4    4    0    0 -0.79641404674E+02 -0.14896089357E+02  0.19543853479E+03  0.21156764331E+03  0.00000000000E+00 0. -1.
         11    1    4    4    0    0 -0.75780259766E+02  0.56740780174E+02  0.10949636314E+03  0.14474673553E+03  0.00000000000E+00 0.  1.
</event>
<event>
 7    1  0.7232317E-009  0.1348171E+03  0.7561462E-02  0.1220478E+00
          1   -1    0    0  501    0  0.00000000000E+00  0.00000000000E+00  0.14660522477E+04  0.14660522477E+04  0.00000000000E+00 0. -1.
         -1   -1    0    0    0  501 -0.00000000000E+00 -0.00000000000E+00 -0.12964178171E+02  0.12964178171E+02  0.00000000000E+00 0.  1.
         25    2    1    2    0    0 -0.82007260595E+02 -0.59475506274E+02  0.95652974656E+03  0.96997965981E+03  0.12509539459E+03 0.  0.
          5    1    3    3  502    0 -0.30554969117E+02 -0.93193386204E+02  0.64228110324E+03  0.64973925644E+03  0.41800000000E+01 0.  1.
         -5    1    3    3    0  502 -0.51452291478E+02  0.33717879929E+02  0.31424864331E+03  0.32024040337E+03  0.41800000000E+01 0.  1.
        -11    1    1    2    0    0  0.52394361908E+02  0.11828149880E+02  0.19283891134E+03  0.20017971929E+03  0.00000000000E+00 0. -1.
         11    1    1    2    0    0  0.29612898687E+02  0.47647356394E+02  0.30371941164E+03  0.30885704678E+03  0.00000000000E+00 0.  1.
</event>
<event>
 8    1  0.7232317E-009  0.1174927E+03  0.7561462E-02  0.1247291E+00
          2   -1    0    0  501    0  0.00000000000E+00  0.00000000000E+00  0.48211689501E+03  0.48211689501E+03  0.00000000000E+00 0. -1.
         -2   -1    0    0    0  501 -0.00000000000E+00 -0.00000000000E+00 -0.46395178259E+02  0.46395178259E+02  0.00000000000E+00 0.  1.
         25    2    1    2    0    0 -0.72791940062E+02  0.59609060082E+02  0.17414767755E+03  0.23415173886E+03  0.12509083352E+03 0.  0.
         23    2    1    2    0    0  0.72791940062E+02 -0.59609060082E+02  0.26157403920E+03  0.29436033441E+03  0.96825213194E+02 0.  0.
          5    1    3    3  502    0 -0.37643767643E+02 -0.15741707397E+02 -0.12414195252E+00  0.41016367530E+02  0.41800000000E+01 0. -1.
         -5    1    3    3    0  502 -0.35148172419E+02  0.75350767479E+02  0.17427181950E+03  0.19313537133E+03  0.41800000000E+01 0. -1.
        -11    1    4    4    0    0  0.26334597772E+02 -0.58606013142E+02  0.61427997878E+02  0.88890802334E+02  0.00000000000E+00 0.  1.
         11    1    4    4    0    0  0.46457342290E+02 -0.10030469401E+01  0.20014604132E+03  0.20546953208E+03  0.00000000000E+00 0. -1.
</event>
<event>
 8    1  0.7232317E-009  0.1006714E+03  0.7561462E-02  0.1278890E+00
         -1   -1    0    0    0  501 -0.00000000000E+00  0.00000000000E+00  0.15301549415E+04  0.15301549415E+04  0.00000000000E+00 0.  1.
          1   -1    0    0  501    0  0.00000000000E+00 -0.00000000000E+00 -0.10894794723E+02  0.10894794723E+02  0.00000000000E+00 0. -1.
         25    2    1    2    0    0 -0.32110520526E+02  0.39028954718E+02  0.11624508087E+04  0.11702534312E+04  0.12508743239E+03 0.  0.
         23    2    1    2    0    0  0.32110520526E+02 -0.39028954718E+02  0.35680933806E+03  0.37079630501E+03  0.87307796035E+02 0.  0.
          5    1    3    3  502    0  0.36365339818E+02  0.14475522366E+02  0.77572560026E+03  0.77672366900E+03  0.41800000000E+01 0. -1.
         -5    1    3    3    0  502 -0.68475860344E+02  0.24553432352E+02  0.38672520848E+03  0.39352976223E+03  0.41800000000E+01 0. -1.
        -11    1    4    4    0    0  0.52382932372E+02 -0.43807744241E+02  0.32922212629E+03  0.33622953246E+03  0.00000000000E+00 0.  1.
         11    1    4    4    0    0 -0.20272411845E+02  0.47787895233E+01  0.27587211765E+02  0.34566772547E+02  0.00000000000E+00 0. -1.
</event>
<event>
 8    1  0.7232317E-009  0.1173091E+03  0.7561462E-02  0.1247603E+00
          2   -1    0    0  501    0  0.00000000000E+00  0.00000000000E+00  0.63050210730E+02  0.63050210730E+02  0.00000000000E+00 0. -1.
         -2   -1    0    0    0  501 -0.00000000000E+00 -0.00000000000E+00 -0.63382378824E+03  0.63382378824E+03  0.00000000000E+00 0.  1.
         25    2    1    2    0    0 -0.22092929938E+00 -0.74073005051E+02 -0.56634711533E+03  0.58470813837E+03  0.12509073968E+03 0.  0.
         23    2    1    2    0    0  0.22092929938E+00  0.74073005051E+02 -0.44264621784E+01  0.11216586059E+03  0.84111401296E+02 0.  0.
          5    1    3    3  502    0 -0.48166434995E+02 -0.55564050369E+02 -0.17342804005E+03  0.18842008022E+03  0.41800000000E+01 0.  1.
         -5    1    3    3    0  502  0.47945505696E+02 -0.18508954682E+02 -0.39291907528E+03  0.39628805815E+03  0.41800000000E+01 0.  1.
        -11    1    4    4    0    0  0.25959271577E+02  0.79034575067E+02 -0.13805157690E+02  0.84326331686E+02  0.00000000000E+00 0.  1.
         11    1    4    4    0    0 -0.25738342278E+02 -0.49615700159E+01  0.93786955118E+01  0.27839528906E+02  0.00000000000E+00 0. -1.
</event>
<event>
 8    1  0.7232317E-009  0.1318654E+03  0.7561462E-02  0.1224714E+00
          3   -1    0    0  501    0  0.00000000000E+00  0.00000000000E+00  0.99702150147E+02  0.99702150147E+02  0.00000000000E+00 0. -1.
         -3   -1    0    0    0  501 -0.00000000000E+00 -0.00000000000E+00 -0.26492748930E+03  0.26492748930E+03  0.00000000000E+00 0.  1.
         25    2    1    2    0    0  0.87683382788E+02 -0.74037690301E+02 -0.12036025649E+03  0.20809398013E+03  0.12508620237E+03 0.  0.
         23    2    1    2    0    0 -0.87683382788E+02  0.74037690301E+02 -0.44865082664E+02  0.15653565931E+03  0.96543160256E+02 0.  0.
          5    1    3    3  502    0  0.68420340729E+02 -0.18078512552E+02  0.32675052660E+01  0.70967067237E+02  0.41800000000E+01 0.  1.
         -5    1    3    3    0  502  0.19263042059E+02 -0.55959177748E+02 -0.12362776176E+03  0.13712691290E+03  0.41800000000E+01 0.  1.
        -11    1    4    4    0    0 -0.57635932135E+02  0.45636928600E+01 -0.55446287265E+02  0.80106296488E+02  0.00000000000E+00 0.  1.
         11    1    4    4    0    0 -0.30047450653E+02  0.69473997441E+02  0.10581204601E+02  0.76429362826E+02  0.00000000000E+00 0. -1.
</event>
<event>
 8    1  0.7232317E-009  0.1144930E+03  0.7561462E-02  0.1252469E+00
         -1   -1    0    0    0  501 -0.00000000000E+00  0.00000000000E+00  0.53088329077E+02  0.53088329077E+02  0.00000000000E+00 0.  1.
          1   -1    0    0  501    0  0.00000000000E+00 -0.00000000000E+00 -0.40824263473E+03  0.40824263473E+03  0.00000000000E+00 0. -1.
         25    2    1    2    0    0  0.82678925798E+02 -0.50086560542E+02 -0.22813529893E+03  0.27755482525E+03  0.12508596280E+03 0.  0.
         23    2    1    2    0    0 -0.82678925798E+02  0.50086560542E+02 -0.12701900673E+03  0.18377613855E+03  0.91078936713E+02 0.  0.
          5    1    3    3  502    0 -0.11669829982E+02  0.41345700345E+01  0.94999378650E+01  0.16155519819E+02  0.41800000000E+01 0. -1.
         -5    1    3    3    0  502  0.94348755780E+02 -0.54221130577E+02 -0.23763523679E+03  0.26139930544E+03  0.41800000000E+01 0. -1.
        -11    1    4    4    0    0 -0.40228048249E+02  0.50502782711E+02 -0.12568823422E+03  0.14130236781E+03  0.00000000000E+00 0. -1.
         11    1    4    4    0    0 -0.42450877549E+02 -0.41622216917E+00 -0.13307725078E+01  0.42473770742E+02  0.00000000000E+00 0.  1.
</event>
<event>
 8    1  0.7232317E-009  0.9377056E+02  0.7561462E-02  0.1293969E+00
          2   -1    0    0  501    0  0.00000000000E+00  0.00000000000E+00  0.35422440962E+03  0.35422440962E+03  0.00000000000E+00 0.  1.
         -2   -1    0    0    0  501 -0.00000000000E+00 -0.00000000000E+00 -0.37797739790E+02  0.37797739790E+02  0.00000000000E+00 0. -1.
         25    2    1    2    0    0 -0.11494313205E+02  0.33995165799E+02  0.15763024043E+03  0.20440651340E+03  0.12508772717E+03 0.  0.
         23    2    1    2    0    0  0.11494313205E+02 -0.33995165799E+02  0.15879642940E+03  0.18761563601E+03  0.93249827620E+02 0.  0.
          5    1    3    3  502    0 -0.43970833749E+02 -0.24709448730E+02  0.11273174054E+03  0.12357147245E+03  0.41800000000E+01 0. -1.
         -5    1    3    3    0  502  0.32476520544E+02  0.58704614529E+02  0.44898499883E+02  0.80835040950E+02  0.41800000000E+01 0. -1.
        -11    1    4    4    0    0  0.84543237206E+01 -0.51375652332E+02  0.16157222463E+03  0.16975428423E+03  0.00000000000E+00 0.  1.
         11    1    4    4    0    0  0.30399894842E+01  0.17380486533E+02 -0.27757952317E+01  0.17861351778E+02  0.00000000000E+00 0. -1.
</event>
<event>
 8    1  0.7232317E-009  0.1307374E+03  0.7561462E-02  0.1226366E+00
          1   -1    0    0  501    0  0.00000000000E+00  0.00000000000E+00  0.53038124782E+03  0.53038124782E+03  0.00000000000E+00 0. -1.
         -1   -1    0    0    0  501 -0.00000000000E+00 -0.00000000000E+00 -0.49461890523E+02  0.49461890523E+02  0.00000000000E+00 0.  1.
         25    2    1    2    0    0  0.96613328303E+02 -0.55303269821E+02  0.17817840101E+03  0.24451441970E+03  0.12508865654E+03 0.  0.
         23    2    1    2    0    0 -0.96613328303E+02  0.55303269821E+02  0.30274095628E+03  0.33532871864E+03  0.91655202115E+02 0.  0.
          5    1    3    3  502    0  0.28077945604E+02  0.81167675139E+01 -0.12575036902E+02  0.32091383537E+02  0.41800000000E+01 0. -1.
         -5    1    3    3    0  502  0.68535382699E+02 -0.63420037335E+02  0.19075343791E+03  0.21242303616E+03  0.41800000000E+01 0. -1.
        -11    1    4    4    0    0 -0.44654791784E+02  0.71286902275E+02  0.22711272066E+03  0.24219013347E+03  0.00000000000E+00 0.  1.
         11    1    4    4    0    0 -0.51958536519E+02 -0.15983632455E+02  0.75628235620E+02  0.93138585166E+02  0.00000000000E+00 0. -1.
</event>
<event>
 8    1  0.7232317E-009  0.1370348E+03  0.7561462E-02  0.1217375E+00
         -1   -1    0    0    0  501 -0.00000000000E+00  0.00000000000E+00  0.24338710366E+03  0.24338710366E+03  0.00000000000E+00 0.  1.
          1   -1    0    0  501    0  0.00000000000E+00 -0.00000000000E+00 -0.91189447818E+02  0.91189447818E+02  0.00000000000E+00 0. -1.
         25    2    1    2    0    0  0.66532568027E+02  0.71210873692E+02  0.11529913728E+03  0.19605974777E+03  0.12509181627E+03 0.  0.
         23    2    1    2    0    0 -0.66532568027E+02 -0.71210873692E+02  0.36898518569E+02  0.13851680371E+03  0.91256961915E+02 0.  0.
          5    1    3    3  502    0 -0.14996220706E+02  0.74473264289E+02  0.65380377293E+02  0.10031560130E+03  0.41800000000E+01 0. -1.
         -5    1    3    3    0  502  0.81528788733E+02 -0.32623905964E+01  0.49918759984E+02  0.95744146469E+02  0.41800000000E+01 0. -1.
        -11    1    4    4    0    0 -0.11177667010E+02 -0.58409983973E+02 -0.15252971727E+02  0.61394784909E+02  0.00000000000E+00 0. -1.
         11    1    4    4    0    0 -0.55354901017E+02 -0.12800889719E+02  0.52151490296E+02  0.77122018803E+02  0.00000000000E+00 0.  1.
</event>
<event>
 8    1  0.7232317E-009  0.1201722E+03  0.7561462E-02  0.1242813E+00
          1   -1    0    0  501    0  0.00000000000E+00  0.00000000000E+00  0.99228178880E+02  0.99228178880E+02  0.00000000000E+00 0. -1.
         -1   -1    0    0    0  501 -0.00000000000E+00 -0.00000000000E+00 -0.19425871893E+03  0.19425871893E+03  0.00000000000E+00 0.  1.
         25    2    1    2    0    0  0.27815884182E+02  0.60104983271E+02 -0.11070150343E+03  0.17968264489E+03  0.12507876553E+03 0.  0.
         23    2    1    2    0    0 -0.27815884182E+02 -0.60104983271E+02  0.15670963380E+02  0.11380425292E+03  0.91211273769E+02 0.  0.
          5    1    3    3  502    0  0.55008620459E+02  0.86642330903E+02 -0.87769242192E+02  0.13510645471E+03  0.41800000000E+01 0. -1.
         -5    1    3    3    0  502 -0.27192736277E+02 -0.26537347633E+02 -0.22932261238E+02  0.44576190181E+02  0.41800000000E+01 0. -1.
        -11    1    4    4    0    0  0.33958697009E+01  0.16415796724E+02 -0.17972728623E+02  0.24577007289E+02  0.00000000000E+00 0.  1.
         11    1    4    4    0    0 -0.31211753883E+02 -0.76520779994E+02  0.33643692003E+02  0.89227245631E+02  0.00000000000E+00 0. -1.
</event>
<event>
 8    1  0.7232317E-009  0.1403579E+03  0.7561462E-02  0.1212848E+00
          1   -1    0    0  501    0  0.00000000000E+00  0.00000000000E+00  0.12809591924E+03  0.12809591924E+03  0.00000000000E+00 0. -1.
         -1   -1    0    0    0  501 -0.00000000000E+00 -0.00000000000E+00 -0.17139132052E+03  0.17139132052E+03  0.00000000000E+00 0.  1.
         25    2    1    2    0    0 -0.42083426962E+01  0.99117397977E+02 -0.68064364821E+01  0.15979907705E+03  0.12508976265E+03 0.  0.
         23    2    1    2    0    0  0.42083426962E+01 -0.99117397977E+02 -0.36488964798E+02  0.13968816270E+03  0.91320148471E+02 0.  0.
          5    1    3    3  502    0 -0.60797741159E+02  0.64607455072E+02 -0.22366057290E+02  0.91587125185E+02  0.41800000000E+01 0. -1.
         -5    1    3    3    0  502  0.56589398463E+02  0.34509942905E+02  0.15559620808E+02  0.68211951866E+02  0.41800000000E+01 0. -1.
        -11    1    4    4    0    0 -0.94006112655E+01  0.11036054085E+02  0.11756502299E+02  0.18664975978E+02  0.00000000000E+00 0. -1.
         11    1    4    4    0    0  0.13608953962E+02 -0.11015345206E+03 -0.48245467097E+02  0.12102318672E+03  0.00000000000E+00 0.  1.
</event>
<event>
 8    1  0.7232317E-009  0.1107414E+03  0.7561462E-02  0.1259203E+00
         -3   -1    0    0    0  501 -0.00000000000E+00  0.00000000000E+00  0.52075853895E+03  0.52075853895E+03  0.00000000000E+00 0.  1.
          3   -1    0    0  501    0  0.00000000000E+00 -0.00000000000E+00 -0.36912913835E+02  0.36912913835E+02  0.00000000000E+00 0. -1.
         25    2    1    2    0    0  0.25395394533E+02 -0.52019400773E+02  0.38895655148E+03  0.41265633025E+03  0.12508838409E+03 0.  0.
         23    2    1    2    0    0 -0.25395394533E+02  0.52019400773E+02  0.94889073634E+02  0.14501512254E+03  0.93137024588E+02 0.  0.
          5    1    3    3  502    0  0.21474049016E+02  0.38333867258E+02  0.17188676755E+03  0.17746310439E+03  0.41800000000E+01 0.  1.
         -5    1    3    3    0  502  0.39213455175E+01 -0.90353268031E+02  0.21706978393E+03  0.23519322586E+03  0.41800000000E+01 0.  1.
        -11    1    4    4    0    0 -0.46927946339E+01 -0.15496771284E+02 -0.96570200551E+01  0.18852858617E+02  0.00000000000E+00 0. -1.
         11    1    4    4    0    0 -0.20702599899E+02  0.67516172056E+02  0.10454609369E+03  0.12616226392E+03  0.00000000000E+00 0.  1.
</event>
<event>
 8    1  0.7232317E-009  0.1429119E+03  0.7561462E-02  0.1209464E+00
         -2   -1    0    0    0  501 -0.00000000000E+00  0.00000000000E+00  0.45110785985E+03  0.45110785985E+03  0.00000000000E+00 0.  1.
          2   -1    0    0  501    0  0.00000000000E+00 -0.00000000000E+00 -0.52655488648E+02  0.52655488648E+02  0.00000000000E+00 0. -1.
         25    2    1    2    0    0 -0.68110220304E+02  0.78570780954E+02  0.21347708355E+03  0.26838846987E+03  0.12509011082E+03 0.  0.
         23    2    1    2    0    0  0.68110220304E+02 -0.78570780954E+02  0.18497528765E+03  0.23537487863E+03  0.10184844977E+03 0.  0.
          5    1    3    3  502    0 -0.92138700557E+02  0.72259907262E+02  0.10601093248E+03  0.15800893818E+03  0.41800000000E+01 0. -1.
         -5    1    3    3    0  502  0.24028480253E+02  0.63108736916E+01  0.10746615107E+03  0.11037953169E+03  0.41800000000E+01 0. -1.
        -11    1    4    4    0    0 -0.25854928536E+02 -0.13509902694E+02  0.23058482684E+02  0.37184518608E+02  0.00000000000E+00 0. -1.
         11    1    4    4    0    0  0.93965148840E+02 -0.65060878260E+02  0.16191680497E+03  0.19819036003E+03  0.00000000000E+00 0.  1.
</event>
<event>
 8    1  0.7232317E-009  0.1283444E+03  0.7561462E-02  0.1229933E+00
         -1   -1    0    0    0  501 -0.00000000000E+00  0.00000000000E+00  0.12189582810E+02  0.12189582810E+02  0.00000000000E+00 0.  1.
          1   -1    0    0  501    0  0.00000000000E+00 -0.00000000000E+00 -0.14489590625E+04  0.14489590625E+04  0.00000000000E+00 0. -1.
         25    2    1    2    0    0 -0.61018488844E+02  0.37085167841E+02 -0.94690518972E+03  0.95779697943E+03  0.12508816819E+03 0.  0.
         23    2    1    2    0    0  0.61018488844E+02 -0.37085167841E+02 -0.48986428992E+03  0.50335166583E+03  0.91089578476E+02 0.  0.
          5    1    3    3  502    0  0.21989311769E+02 -0.27870580929E+02 -0.33093505055E+03  0.33285999940E+03  0.41800000000E+01 0.  1.
         -5    1    3    3    0  502 -0.83007800613E+02  0.64955748770E+02 -0.61597013917E+03  0.62493698003E+03  0.41800000000E+01 0.  1.
        -11    1    4    4    0    0  0.37300527720E+02 -0.67360635337E+02 -0.30972532212E+03  0.31915287830E+03  0.00000000000E+00 0.  1.
         11    1    4    4    0    0  0.23717961124E+02  0.30275467496E+02 -0.18013896779E+03  0.18419878753E+03  0.00000000000E+00 0. -1.
</event>
<event>
 7    1  0.7232317E-009  0.1248147E+03  0.7561462E-02  0.1235359E+00
         -2   -1    0    0    0  501 -0.00000000000E+00  0.00000000000E+00  0.48881010476E+02  0.48881010476E+02  0.00000000000E+00 0.  1.
          2   -1    0    0  501    0  0.00000000000E+00 -0.00000000000E+00 -0.42277798410E+03  0.42277798410E+03  0.00000000000E+00 0. -1.
         23    2    1    2    0    0 -0.16822730643E+02 -0.81450070938E+02 -0.25548909006E+03  0.28354541628E+03  0.90588131842E+02 0.  0.
          5    1    1    2  502    0  0.42981319161E+02  0.94704654840E+02 -0.54087189582E+02  0.11729988032E+03  0.41800000000E+01 0.  1.
         -5    1    1    2    0  502 -0.26158588518E+02 -0.13254583902E+02 -0.64320693981E+02  0.70813697982E+02  0.41800000000E+01 0.  1.
        -11    1    3    3    0    0  0.14073098862E+02 -0.83765840453E+02 -0.13804961096E+03  0.16208782565E+03  0.00000000000E+00 0.  1.
         11    1    3    3    0    0 -0.30895829506E+02  0.23157695151E+01 -0.11743947911E+03  0.12145759063E+03  0.00000000000E+00 0. -1.
</event>
<event>
 8    1  0.7232317E-009  0.9955647E+02  0.7561462E-02  0.1281231E+00
          2   -1    0    0  501    0  0.00000000000E+00  0.00000000000E+00  0.17594435064E+04  0.17594435064E+04  0.00000000000E+00 0. -1.
         -2   -1    0    0    0  501 -0.00000000000E+00 -0.00000000000E+00 -0.11120771516E+02  0.11120771516E+02  0.00000000000E+00 0.  1.
         25    2    1    2    0    0 -0.44218846528E+02 -0.52935040983E+02  0.13142863480E+04  0.13220249126E+04  0.12507533758E+03 0.  0.
         23    2    1    2    0    0  0.44218846528E+02  0.52935040983E+02  0.43403638693E+03  0.44853936535E+03  0.89680277315E+02 0.  0.
          5    1    3    3  502    0 -0.33393353089E+02 -0.19702476350E+01  0.82389318658E+02  0.89019493007E+02  0.41800000000E+01 0.  1.
         -5    1    3    3    0  502 -0.10825493438E+02 -0.50964793348E+02  0.12318970293E+04  0.12330054196E+04  0.41800000000E+01 0.  1.
        -11    1    4    4    0    0  0.55896950096E+02 -0.30131834703E+01  0.21268429697E+03  0.21992762101E+03  0.00000000000E+00 0. -1.
         11    1    4    4    0    0 -0.11678103569E+02  0.55948224453E+02  0.22135208996E+03  0.22861174434E+03  0.00000000000E+00 0.  1.
</event>
<event>
 8    1  0.7232317E-009  0.1511516E+03  0.7561462E-02  0.1199065E+00
         -3   -1    0    0    0  501 -0.00000000000E+00  0.00000000000E+00  0.22808276954E+03  0.22808276954E+03  0.00000000000E+00 0.  1.
          3   -1    0    0  501    0  0.00000000000E+00 -0.00000000000E+00 -0.22667383588E+03  0.22667383588E+03  0.00000000000E+00 0. -1.
         25    2    1    2    0    0 -0.21999271684E+02  0.12836590657E+03 -0.15088210225E+03  0.23531826688E+03  0.12508998370E+03 0.  0.
         23    2    1    2    0    0  0.21999271684E+02 -0.12836590657E+03  0.15229103591E+03  0.21943833854E+03  0.89436295098E+02 0.  0.
          5    1    3    3  502    0  0.18227010425E+02  0.10996464257E+03 -0.44612981738E+02  0.12013424601E+03  0.41800000000E+01 0. -1.
         -5    1    3    3    0  502 -0.40226282108E+02  0.18401263999E+02 -0.10626912051E+03  0.11518402087E+03  0.41800000000E+01 0. -1.
        -11    1    4    4    0    0  0.33128755516E+02 -0.22893153499E+02  0.91640756135E+01  0.41298803869E+02  0.00000000000E+00 0. -1.
         11    1    4    4    0    0 -0.11129483833E+02 -0.10547275307E+03  0.14312696030E+03  0.17813953467E+03  0.00000000000E+00 0.  1.
</event>
<event>
 8    1  0.7232317E-009  0.8755498E+02  0.7561462E-02  0.1308883E+00
         -1   -1    0    0    0  501 -0.00000000000E+00  0.00000000000E+00  0.34368316968E+02  0.34368316968E+02  0.00000000000E+00 0.  1.
          1   -1    0    0  501    0  0.00000000000E+00 -0.00000000000E+00 -0.44046234638E+03  0.44046234638E+03  0.00000000000E+00 0. -1.
         25    2    1    2    0    0 -0.28079082422E+02 -0.38895509173E+02 -0.16506222462E+03  0.21258480074E+03  0.12508182924E+03 0.  0.
         23    2    1    2    0    0  0.28079082422E+02  0.38895509173E+02 -0.24103180479E+03  0.26224586260E+03  0.91516479547E+02 0.  0.
          5    1    3    3  502    0 -0.14290331905E+02  0.30714744145E+02 -0.14121981179E+01  0.34162491089E+02  0.41800000000E+01 0. -1.
         -5    1    3    3    0  502 -0.13788750517E+02 -0.69610253319E+02 -0.16365002650E+03  0.17842230965E+03  0.41800000000E+01 0. -1.
        -11    1    4    4    0    0  0.16588790922E+02  0.50743524474E+02 -0.23982721725E+03  0.24569734918E+03  0.00000000000E+00 0. -1.
         11    1    4    4    0    0  0.11490291500E+02 -0.11848015301E+02 -0.12045875383E+01  0.16548513421E+02  0.00000000000E+00 0.  1.
</event>
<event>
 8    1  0.7232317E-009  0.1476522E+03  0.7561462E-02  0.1203388E+00
         -2   -1    0    0    0  501 -0.00000000000E+00  0.00000000000E+00  0.51532073851E+02  0.51532073851E+02  0.00000000000E+00 0.  1.
          2   -1    0    0  501    0  0.00000000000E+00 -0.00000000000E+00 -0.50629071722E+03  0.50629071722E+03  0.00000000000E+00 0. -1.
         25    2    1    2    0    0 -0.85756695925E+02  0.83452450501E+02 -0.26993620170E+03  0.32067422092E+03  0.12509148886E+03 0.  0.
         23    2    1    2    0    0  0.85756695925E+02 -0.83452450501E+02 -0.18482244168E+03  0.23714857016E+03  0.88099869407E+02 0.  0.
          5    1    3    3  502    0 -0.19615767237E+02 -0.24051833920E+02 -0.12299478451E+03  0.12691910202E+03  0.41800000000E+01 0.  1.
         -5    1    3    3    0  502 -0.66140928688E+02  0.10750428442E+03 -0.14694141718E+03  0.19375511890E+03  0.41800000000E+01 0.  1.
        -11    1    4    4    0    0  0.96685313329E+02 -0.65855742513E+02 -0.11393992422E+03  0.16330136242E+03  0.00000000000E+00 0.  1.
         11    1    4    4    0    0 -0.10928617404E+02 -0.17596707988E+02 -0.70882517452E+02  0.73847207738E+02  0.00000000000E+00 0. -1.
</event>
<event>
 8    1  0.7232317E-009  0.9587233E+02  0.7561462E-02  0.1289223E+00
          1   -1    0    0  501    0  0.00000000000E+00  0.00000000000E+00  0.36657105250E+03  0.36657105250E+03  0.00000000000E+00 0. -1.
         -1   -1    0    0    0  501 -0.00000000000E+00 -0.00000000000E+00 -0.36734602973E+02  0.36734602973E+02  0.00000000000E+00 0.  1.
         25    2    1    2    0    0  0.24231019597E+02  0.22127579063E+02  0.23269587308E+03  0.26621807579E+03  0.12509165626E+03 0.  0.
         23    2    1    2    0    0 -0.24231019597E+02 -0.22127579063E+02  0.97140576444E+02  0.13708757968E+03  0.90994180275E+02 0.  0.
          5    1    3    3  502    0 -0.23550824930E+02 -0.40800387692E+02  0.11555237146E+03  0.12485646135E+03  0.41800000000E+01 0.  1.
         -5    1    3    3    0  502  0.47781844527E+02  0.62927966755E+02  0.11714350162E+03  0.14136161444E+03  0.41800000000E+01 0.  1.
        -11    1    4    4    0    0  0.14761413711E+02 -0.21806444866E+02 -0.58391206343E+01  0.26972498999E+02  0.00000000000E+00 0.  1.
         11    1    4    4    0    0 -0.38992433308E+02 -0.32113419637E+00  0.10297969708E+03  0.11011508068E+03  0.00000000000E+00 0. -1.
</event>
<event>
 7    1  0.7232317E-009  0.7240387E+02  0.7561462E-02  0.1352104E+00
          1   -1    0    0  501    0  0.00000000000E+00  0.00000000000E+00  0.16422676173E+04  0.16422676173E+04  0.00000000000E+00 0. -1.
         -1   -1    0    0    0  501 -0.00000000000E+00 -0.00000000000E+00 -0.89339082094E+01  0.89339082094E+01  0.00000000000E+00 0.  1.
         23    2    1    2    0    0 -0.32344099491E+02  0.86237251778E+01  0.40793487798E+03  0.41901457259E+03  0.89676295405E+02 0.  0.
          5    1    1    2  502    0  0.39729372309E+02 -0.72474345325E+01  0.11864232403E+03  0.12539705651E+03  0.41800000000E+01 0.  1.
         -5    1    1    2    0  502 -0.73852728179E+01 -0.13762906453E+01  0.11067565071E+04  0.11067898964E+04  0.41800000000E+01 0.  1.
        -11    1    3    3    0    0 -0.45957453797E+02  0.40305083295E+02  0.27033191062E+03  0.27715686749E+03  0.00000000000E+00 0.  1.
         11    1    3    3    0    0  0.13613354305E+02 -0.31681358117E+02  0.13760296737E+03  0.14185770510E+03  0.00000000000E+00 0. -1.
</event>
<event>
 8    1  0.7232317E-009  0.1390556E+03  0.7561462E-02  0.1214605E+00
          1   -1    0    0  501    0  0.00000000000E+00  0.00000000000E+00  0.39738559247E+03  0.39738559247E+03  0.00000000000E+00 0. -1.
         -1   -1    0    0    0  501 -0.00000000000E+00 -0.00000000000E+00 -0.58350971673E+02  0.58350971673E+02  0.00000000000E+00 0.  1.
         25    2    1    2    0    0  0.75801037809E+02 -0.71216740726E+02  0.21440174537E+03  0.26913284278E+03  0.12508699834E+03 0.  0.
         23    2    1    2    0    0 -0.75801037809E+02  0.71216740726E+02  0.12463287543E+03  0.18660372136E+03  0.92032460013E+02 0.  0.
          5    1    3    3  502    0  0.47429063686E+01  0.32020133138E+02  0.74041439987E+02  0.80915952211E+02  0.41800000000E+01 0. -1.
         -5    1    3    3    0  502  0.71058131441E+02 -0.10323687386E+03  0.14036030538E+03  0.18821689057E+03  0.41800000000E+01 0. -1.
        -11    1    4    4    0    0 -0.78125359067E+02  0.38177940026E+02  0.12641696003E+03  0.15343524568E+03  0.00000000000E+00 0. -1.
         11    1    4    4    0    0  0.23243212573E+01  0.33038800700E+02 -0.17840846039E+01  0.33168475679E+02  0.00000000000E+00 0.  1.
</event>
<event>
 8    1  0.7232317E-009  0.9089060E+02  0.7561462E-02  0.1300709E+00
         -1   -1    0    0    0  501 -0.00000000000E+00  0.00000000000E+00  0.28656020937E+02  0.28656020937E+02  0.00000000000E+00 0.  1.
          1   -1    0    0  501    0  0.00000000000E+00 -0.00000000000E+00 -0.39521564863E+03  0.39521564863E+03  0.00000000000E+00 0. -1.
         25    2    1    2    0    0  0.14424416913E+02  0.21751373215E+01 -0.18471375725E+03  0.22356039635E+03  0.12508910294E+03 0.  0.
         23    2    1    2    0    0 -0.14424416913E+02 -0.21751373215E+01 -0.18184587044E+03  0.20031127322E+03  0.82727810039E+02 0.  0.
          5    1    3    3  502    0 -0.15974934762E+02 -0.43400612517E+02 -0.21169404527E+02  0.51033594773E+02  0.41800000000E+01 0. -1.
         -5    1    3    3    0  502  0.30399351676E+02  0.45575749838E+02 -0.16354435272E+03  0.17252680158E+03  0.41800000000E+01 0. -1.
        -11    1    4    4    0    0 -0.34545094846E+02  0.27771495654E+02 -0.12833802817E+03  0.13577654077E+03  0.00000000000E+00 0.  1.
         11    1    4    4    0    0  0.20120677932E+02 -0.29946632975E+02 -0.53507842272E+02  0.64534732444E+02  0.00000000000E+00 0. -1.
</event>
<event>
 8    1  0.7232317E-009  0.1593880E+03  0.7561462E-02  0.1189389E+00
         -2   -1    0    0    0  501 -0.00000000000E+00  0.00000000000E+00  0.14266986842E+03  0.14266986842E+03  0.00000000000E+00 0.  1.
          2   -1    0    0  501    0  0.00000000000E+00 -0.00000000000E+00 -0.20559773954E+03  0.20559773954E+03  0.00000000000E+00 0. -1.
         25    2    1    2    0    0 -0.96490391911E+02  0.69501314826E+02 -0.93804392089E+02  0.19643692283E+03  0.12508945672E+03 0.  0.
         23    2    1    2    0    0  0.96490391911E+02 -0.69501314826E+02  0.30876520961E+02  0.15183068513E+03  0.89209690655E+02 0.  0.
          5    1    3    3  502    0  0.73666399121E+01 -0.27145637807E+02 -0.28301693982E+02  0.40119961588E+02  0.41800000000E+01 0. -1.
         -5    1    3    3    0  502 -0.10385703182E+03  0.96646952633E+02 -0.65502698106E+02  0.15631696124E+03  0.41800000000E+01 0. -1.
        -11    1    4    4    0    0  0.53988982567E+02  0.13063361379E+02  0.73151198135E+01  0.56026535027E+02  0.00000000000E+00 0.  1.
         11    1    4    4    0    0  0.42501409344E+02 -0.82564676205E+02  0.23561401147E+02  0.95804150104E+02  0.00000000000E+00 0. -1.
</event>
<event>
 8    1  0.7232317E-009  0.9693987E+02  0.7561462E-02  0.1286866E+00
         -1   -1    0    0    0  501 -0.00000000000E+00  0.00000000000E+00  0.15019559270E+03  0.15019559270E+03  0.00000000000E+00 0.  1.
          1   -1    0    0  501    0  0.00000000000E+00 -0.00000000000E+00 -0.12182939624E+03  0.12182939624E+03  0.00000000000E+00 0. -1.
         25    2    1    2    0    0 -0.75562176818E+02 -0.25870271716E+02  0.28641168461E+02  0.15114550667E+03  0.12508290903E+03 0.  0.
         23    2    1    2    0    0  0.75562176818E+02  0.25870271716E+02 -0.27497200078E+00  0.12087948228E+03  0.90735109539E+02 0.  0.
          5    1    3    3  502    0 -0.24416168044E+02 -0.51012539121E+02 -0.34187012597E+02  0.66216709673E+02  0.41800000000E+01 0.  1.
         -5    1    3    3    0  502 -0.51146008774E+02  0.25142267406E+02  0.62828181058E+02  0.84928796994E+02  0.41800000000E+01 0.  1.
        -11    1    4    4    0    0  0.31082894961E+02  0.80381849953E+01  0.44783062089E+02  0.55102462987E+02  0.00000000000E+00 0.  1.
         11    1    4    4    0    0  0.44479281856E+02  0.17832086721E+02 -0.45058034090E+02  0.65777019295E+02  0.00000000000E+00 0. -1.
</event>
<event>
 8    1  0.7232317E-009  0.3231123E+03  0.7561462E-02  0.1074226E+00
         -1   -1    0    0    0  501 -0.00000000000E+00  0.00000000000E+00  0.39106092188E+03  0.39106092188E+03  0.00000000000E+00 0.  1.
          1   -1    0    0  501    0  0.00000000000E+00 -0.00000000000E+00 -0.27413026930E+03  0.27413026930E+03  0.00000000000E+00 0. -1.
         25    2    1    2    0    0 -0.56741837534E+02  0.30528545507E+03  0.80775739427E+02  0.34436943584E+03  0.12508694198E+03 0.  0.
         23    2    1    2    0    0  0.56741837534E+02 -0.30528545507E+03  0.36154913149E+02  0.32082175534E+03  0.72115017533E+02 0.  0.
          5    1    3    3  502    0 -0.48917770527E+02  0.42354738587E+02  0.44865473138E+02  0.78849573455E+02  0.41800000000E+01 0. -1.
         -5    1    3    3    0  502 -0.78240670065E+01  0.26293071648E+03  0.35910266289E+02  0.26551986238E+03  0.41800000000E+01 0. -1.
        -11    1    4    4    0    0 -0.45845940092E+01 -0.16660701140E+03  0.10187875311E+02  0.16698115928E+03  0.00000000000E+00 0. -1.
         11    1    4    4    0    0  0.61326431543E+02 -0.13867844366E+03  0.25967037838E+02  0.15384059606E+03  0.00000000000E+00 0.  1.
</event>
<event>
 8    1  0.7232317E-009  0.1461528E+03  0.7561462E-02  0.1205282E+00
          2   -1    0    0  501    0  0.00000000000E+00  0.00000000000E+00  0.51691747869E+03  0.51691747869E+03  0.00000000000E+00 0.  1.
         -2   -1    0    0    0  501 -0.00000000000E+00 -0.00000000000E+00 -0.56453117418E+02  0.56453117418E+02  0.00000000000E+00 0. -1.
         25    2    1    2    0    0 -0.12310061763E+03  0.37594528396E+02  0.19936185820E+03  0.26825450148E+03  0.12509283126E+03 0.  0.
         23    2    1    2    0    0  0.12310061763E+03 -0.37594528396E+02  0.26110250308E+03  0.30511609463E+03  0.91401331855E+02 0.  0.
          5    1    3    3  502    0 -0.18349976835E+02  0.45317589065E+02  0.13816560335E+03  0.14662063933E+03  0.41800000000E+01 0.  1.
         -5    1    3    3    0  502 -0.10475064079E+03 -0.77230606691E+01  0.61196254842E+02  0.12163386214E+03  0.41800000000E+01 0.  1.
        -11    1    4    4    0    0  0.51837302597E+02  0.94974333788E+01  0.34601577445E+02  0.63044241157E+02  0.00000000000E+00 0. -1.
         11    1    4    4    0    0  0.71263315033E+02 -0.47091961775E+02  0.22650092563E+03  0.24207185348E+03  0.00000000000E+00 0.  1.
</event>
<event>
 8    1  0.7232317E-009  0.1627760E+03  0.7561462E-02  0.1185598E+00
         -2   -1    0    0    0  501 -0.00000000000E+00  0.00000000000E+00  0.19672095689E+03  0.19672095689E+03  0.00000000000E+00 0.  1.
          2   -1    0    0  501    0  0.00000000000E+00 -0.00000000000E+00 -0.22007260247E+03  0.22007260247E+03  0.00000000000E+00 0. -1.
         25    2    1    2    0    0 -0.35227123103E+02  0.13956863392E+03  0.81601617868E+02  0.20742849330E+03  0.12508957597E+03 0.  0.
         23    2    1    2    0    0  0.35227123103E+02 -0.13956863392E+03 -0.10495326345E+03  0.20936506606E+03  0.10999177061E+03 0.  0.
          5    1    3    3  502    0 -0.51953612539E+01  0.23221891484E+02  0.83761408739E+02  0.87176223918E+02  0.41800000000E+01 0. -1.
         -5    1    3    3    0  502 -0.30031761849E+02  0.11634674243E+03 -0.21597908703E+01  0.12025226938E+03  0.41800000000E+01 0. -1.
        -11    1    4    4    0    0 -0.38351229849E+02 -0.27887635341E+02 -0.27419389032E+02  0.54775541354E+02  0.00000000000E+00 0. -1.
         11    1    4    4    0    0  0.73578352952E+02 -0.11168099858E+03 -0.77533874423E+02  0.15458952471E+03  0.00000000000E+00 0.  1.
</event>
<event>
 8    1  0.7232317E-009  0.1024446E+03  0.7561462E-02  0.1275238E+00
          1   -1    0    0  501    0  0.00000000000E+00  0.00000000000E+00  0.30679315875E+03  0.30679315875E+03  0.00000000000E+00 0. -1.
         -1   -1    0    0    0  501 -0.00000000000E+00 -0.00000000000E+00 -0.71511627034E+02  0.71511627034E+02  0.00000000000E+00 0.  1.
         25    2    1    2    0    0  0.70560804609E+02 -0.29202297721E+02  0.57854510879E+02  0.15756747099E+03  0.12509501248E+03 0.  0.
         23    2    1    2    0    0 -0.70560804609E+02  0.29202297721E+02  0.17742702083E+03  0.22073731479E+03  0.10683170447E+03 0.  0.
          5    1    3    3  502    0 -0.26773724923E+02 -0.11579884583E+02 -0.16478947976E+02  0.33763207780E+02  0.41800000000E+01 0.  1.
         -5    1    3    3    0  502  0.97334529532E+02 -0.17622413137E+02  0.74333458855E+02  0.12380426321E+03  0.41800000000E+01 0.  1.
        -11    1    4    4    0    0 -0.29622676526E+02  0.13747581815E+02  0.17378611903E+03  0.17682792240E+03  0.00000000000E+00 0. -1.
         11    1    4    4    0    0 -0.40938128083E+02  0.15454715906E+02  0.36409018023E+01  0.43909392396E+02  0.00000000000E+00 0.  1.
</event>
<event>
 8    1  0.7232317E-009  0.2164949E+03  0.7561462E-02  0.1136524E+00
          4   -1    0    0  501    0  0.00000000000E+00  0.00000000000E+00  0.59393011782E+02  0.59393011782E+02  0.00000000000E+00 0. -1.
         -4   -1    0    0    0  501 -0.00000000000E+00 -0.00000000000E+00 -0.10560483770E+04  0.10560483770E+04  0.00000000000E+00 0.  1.
         25    2    1    2    0    0 -0.15376027912E+03  0.15138427435E+03 -0.36790423091E+03  0.44447783162E+03  0.12509035824E+03 0.  0.
         23    2    1    2    0    0  0.15376027912E+03 -0.15138427435E+03 -0.62875113436E+03  0.67096355721E+03  0.91130040015E+02 0.  0.
          5    1    3    3  502    0 -0.10284864771E+03  0.90810963944E+02 -0.32841136236E+03  0.35594377482E+03  0.41800000000E+01 0. -1.
         -5    1    3    3    0  502 -0.50911631412E+02  0.60573310405E+02 -0.39492868548E+02  0.88534056795E+02  0.41800000000E+01 0. -1.
        -11    1    4    4    0    0  0.25866843220E+02 -0.35323662111E+02 -0.47508846445E+02  0.64606076909E+02  0.00000000000E+00 0. -1.
         11    1    4    4    0    0  0.12789343590E+03 -0.11606061224E+03 -0.58124228791E+03  0.60635748030E+03  0.00000000000E+00 0.  1.
</event>
<event>
 8    1  0.7232317E-009  0.1575478E+03  0.7561462E-02  0.1191493E+00
         -2   -1    0    0    0  501 -0.00000000000E+00  0.00000000000E+00  0.22106150517E+02  0.22106150517E+02  0.00000000000E+00 0. -1.
          2   -1    0    0  501    0  0.00000000000E+00 -0.00000000000E+00 -0.12956115301E+04  0.12956115301E+04  0.00000000000E+00 0.  1.
         25    2    1    2    0    0 -0.11562006835E+03  0.10975776704E+02 -0.89297965835E+03  0.90914769341E+03  0.12509352631E+03 0.  0.
         23    2    1    2    0    0  0.11562006835E+03 -0.10975776704E+02 -0.38052572127E+03  0.40856998725E+03  0.92957743351E+02 0.  0.
          5    1    3    3  502    0  0.21128873066E+02 -0.19250345731E+02 -0.20693532489E+03  0.20894187272E+03  0.41800000000E+01 0.  1.
         -5    1    3    3    0  502 -0.13674894142E+03  0.30226122435E+02 -0.68604433346E+03  0.70020582069E+03  0.41800000000E+01 0.  1.
        -11    1    4    4    0    0 -0.69637072243E+01 -0.21944335490E+02 -0.93072742243E+02  0.95877955897E+02  0.00000000000E+00 0.  1.
         11    1    4    4    0    0  0.12258377558E+03  0.10968558786E+02 -0.28745297903E+03  0.31269203135E+03  0.00000000000E+00 0. -1.
</event>
<event>
 8    1  0.7232317E-009  0.9977666E+02  0.7561462E-02  0.1280766E+00
          1   -1    0    0  501    0  0.00000000000E+00  0.00000000000E+00  0.85417179703E+03  0.85417179703E+03  0.00000000000E+00 0. -1.
         -1   -1    0    0    0  501 -0.00000000000E+00 -0.00000000000E+00 -0.22952493867E+02  0.22952493867E+02  0.00000000000E+00 0.  1.
         25    2    1    2    0    0 -0.67598066793E+02  0.17807169247E+02  0.61865695874E+03  0.63503851938E+03  0.12510353551E+03 0.  0.
         23    2    1    2    0    0  0.67598066793E+02 -0.17807169247E+02  0.21256234443E+03  0.24208577152E+03  0.92391431374E+02 0.  0.
          5    1    3    3  502    0 -0.73973488615E+02  0.31787143405E+02  0.19403307727E+03  0.21011617496E+03  0.41800000000E+01 0.  1.
         -5    1    3    3    0  502  0.63754218219E+01 -0.13979974158E+02  0.42462388147E+03  0.42492234443E+03  0.41800000000E+01 0.  1.
        -11    1    4    4    0    0  0.82136364151E+02 -0.26208269497E+02  0.11854975568E+03  0.14658547089E+03  0.00000000000E+00 0.  1.
         11    1    4    4    0    0 -0.14538297357E+02  0.84011002505E+01  0.94012588752E+02  0.95500300625E+02  0.00000000000E+00 0. -1.
</event>
<event>
 8    1  0.7232317E-009  0.1006123E+03  0.7561462E-02  0.1279014E+00
         -2   -1    0    0    0  501 -0.00000000000E+00  0.00000000000E+00  0.29841757876E+02  0.29841757876E+02  0.00000000000E+00 0.  1.
          2   -1    0    0  501    0  0.00000000000E+00 -0.00000000000E+00 -0.60304434987E+03  0.60304434987E+03  0.00000000000E+00 0. -1.
         25    2    1    2    0    0 -0.37413997446E+01  0.24590866332E+02 -0.49980235393E+03  0.51581833501E+03  0.12508977961E+03 0.  0.
         23    2    1    2    0    0  0.37413997446E+01 -0.24590866332E+02 -0.73400238059E+02  0.11706777273E+03  0.87741436535E+02 0.  0.
          5    1    3    3  502    0  0.47965005276E+02  0.47950969699E+02 -0.32365523281E+03  0.33071153495E+03  0.41800000000E+01 0.  1.
         -5    1    3    3    0  502 -0.51706405020E+02 -0.23360103366E+02 -0.17614712112E+03  0.18510680006E+03  0.41800000000E+01 0.  1.
        -11    1    4    4    0    0 -0.18283429340E+02 -0.43605682476E+02 -0.11488466858E+02  0.48659266367E+02  0.00000000000E+00 0. -1.
         11    1    4    4    0    0  0.22024829085E+02  0.19014816144E+02 -0.61911771201E+02  0.68408506360E+02  0.00000000000E+00 0.  1.
</event>
<event>
 8    1  0.7232317E-009  0.8844486E+02  0.7561462E-02  0.1306662E+00
          2   -1    0    0  501    0  0.00000000000E+00  0.00000000000E+00  0.29052724214E+03  0.29052724214E+03  0.00000000000E+00 0. -1.
         -2   -1    0    0    0  501 -0.00000000000E+00 -0.00000000000E+00 -0.52037773299E+02  0.52037773299E+02  0.00000000000E+00 0.  1.
         25    2    1    2    0    0  0.25688813672E+02 -0.13556739548E+02  0.51560360027E+02  0.13838202603E+03  0.12508962414E+03 0.  0.
         23    2    1    2    0    0 -0.25688813672E+02  0.13556739548E+02  0.18692910881E+03  0.20418298940E+03  0.76840751592E+02 0.  0.
          5    1    3    3  502    0  0.26332457974E+02 -0.65842385048E+02  0.10587743309E+02  0.71820545251E+02  0.41800000000E+01 0. -1.
         -5    1    3    3    0  502 -0.64364430191E+00  0.52285645500E+02  0.40972616717E+02  0.66561480783E+02  0.41800000000E+01 0. -1.
        -11    1    4    4    0    0 -0.34967677160E+01 -0.16033311795E+02  0.31386103223E+01  0.16707643351E+02  0.00000000000E+00 0.  1.
         11    1    4    4    0    0 -0.22192045956E+02  0.29590051343E+02  0.18379049849E+03  0.18747534605E+03  0.00000000000E+00 0. -1.
</event>
